<event>
 9    1  0.6106093E-005  0.1297505E+03  0.7546771E-02  0.1230181E+00
         -2   -1    0    0    0  501 -0.00000000000E+00  0.00000000000E+00  0.85316470473E+02  0.85316470473E+02  0.00000000000E+00 0.  1.
          1   -1    0    0  502    0  0.00000000000E+00 -0.00000000000E+00 -0.39860169884E+03  0.39860169884E+03  0.00000000000E+00 0. -1.
        -24    2    1    2    0    0  0.34899781023E+02  0.54567352115E+02 -0.42536898758E+02  0.11291798997E+03  0.82130956828E+02 0.  0.
         23    2    1    2    0    0 -0.10308042189E+03 -0.42375694519E+02 -0.26489206950E+03  0.30149095631E+03  0.91146669666E+02 0.  0.
         13    1    3    3    0    0  0.11070741001E+02 -0.17700844156E+02 -0.28833580249E+02  0.35598546882E+02  0.00000000000E+00 0. -1.
        -14    1    3    3    0    0  0.23829040022E+02  0.72268196271E+02 -0.13703318509E+02  0.77319443084E+02  0.00000000000E+00 0.  1.
        -13    1    4    4    0    0 -0.56743519443E+02 -0.20753555108E+02 -0.43962038595E+02  0.74720799553E+02  0.00000000000E+00 0.  1.
         13    1    4    4    0    0 -0.46336902449E+02 -0.21622139411E+02 -0.22093003091E+03  0.22677015676E+03  0.00000000000E+00 0. -1.
         21    1    1    2  502  501  0.68180640869E+02 -0.12191657596E+02 -0.58562601083E+01  0.69509223034E+02  0.00000000000E+00 0.  1.
<scales pt_clust_5="13000.00000" pt_clust_6="13000.00000" pt_clust_7="13000.00000" pt_clust_8="13000.00000" pt_clust_9="69.26208"></scales>
<clustering>
<clus scale="   69.262">  1  9  2 -1</clus>
<clus scale="   82.131">  5  6 -1 -1</clus>
<clus scale="   91.147">  7  8 -1 -1</clus>
<clus scale="  123.584">  1  5  2 -1</clus>
<clus scale="  129.750">  2  5  1 -1</clus>
</clustering>
</event>
<event>
 9    1  0.6106093E-005  0.1106224E+03  0.7546771E-02  0.1263089E+00
          1   -1    0    0  502    0  0.00000000000E+00  0.00000000000E+00  0.22221538734E+03  0.22221538734E+03  0.00000000000E+00 0. -1.
         -2   -1    0    0    0  501 -0.00000000000E+00 -0.00000000000E+00 -0.11661277576E+03  0.11661277576E+03  0.00000000000E+00 0.  1.
        -24    2    1    2    0    0  0.62335596822E+02 -0.18633324829E+02 -0.63686538452E+02  0.12220150093E+03  0.81512601627E+02 0.  0.
         23    2    1    2    0    0 -0.52158775559E+02 -0.21041796104E+01  0.16082427026E+03  0.19202450839E+03  0.91016484656E+02 0.  0.
         11    1    3    3    0    0  0.40401325351E+02  0.24940659215E+02 -0.54986416587E+02  0.72648534612E+02  0.00000000000E+00 0. -1.
        -12    1    3    3    0    0  0.21934271471E+02 -0.43573984044E+02 -0.87001218649E+01  0.49552966318E+02  0.00000000000E+00 0.  1.
        -13    1    4    4    0    0 -0.58974041864E+02  0.18929017426E+02  0.15803565304E+03  0.16973954444E+03  0.00000000000E+00 0. -1.
         13    1    4    4    0    0  0.68152663049E+01 -0.21033197036E+02  0.27886172177E+01  0.22284963952E+02  0.00000000000E+00 0.  1.
         21    1    1    2  502  501 -0.10176821263E+02  0.20737504439E+02  0.84648797748E+01  0.24602153788E+02  0.00000000000E+00 0. -1.
<scales pt_clust_5="13000.00000" pt_clust_6="13000.00000" pt_clust_7="13000.00000" pt_clust_8="13000.00000" pt_clust_9="23.10004"></scales>
<clustering>
<clus scale="   23.100">  1  9  2 -1</clus>
<clus scale="   81.513">  5  6 -1 -1</clus>
<clus scale="   91.016">  7  8 -1 -1</clus>
<clus scale="  102.945">  2  5  1 -1</clus>
<clus scale="   23.100">  1  5  2 -1</clus>
</clustering>
</event>
<event>
 9    1  0.6835601E-005  0.1698539E+03  0.7546771E-02  0.1180437E+00
         -2   -1    0    0    0  501 -0.00000000000E+00  0.00000000000E+00  0.86941467515E+02  0.86941467515E+02  0.00000000000E+00 0.  1.
          1   -1    0    0  502    0  0.00000000000E+00 -0.00000000000E+00 -0.10678657561E+04  0.10678657561E+04  0.00000000000E+00 0. -1.
        -24    2    1    2    0    0 -0.60168852569E+02  0.10636874700E+03 -0.13384729667E+02  0.14521602668E+03  0.77291281919E+02 0.  0.
         23    2    1    2    0    0  0.10002746370E+03 -0.10305512216E+03 -0.95079061716E+03  0.96622973893E+03  0.94716730398E+02 0.  0.
         13    1    3    3    0    0  0.15112677052E+02  0.30446372335E+02 -0.17474572073E+02  0.38219566522E+02  0.00000000000E+00 0. -1.
        -14    1    3    3    0    0 -0.75281529621E+02  0.75922374662E+02  0.40898424060E+01  0.10699646016E+03  0.00000000000E+00 0.  1.
        -13    1    4    4    0    0 -0.27200939821E+01 -0.60724505317E+02 -0.31864973681E+03  0.32439562146E+03  0.00000000000E+00 0.  1.
         13    1    4    4    0    0  0.10274755768E+03 -0.42330616841E+02 -0.63214088035E+03  0.64183411746E+03  0.00000000000E+00 0. -1.
         21    1    1    2  502  501 -0.39858611134E+02 -0.33136248392E+01 -0.16748941781E+02  0.43361458023E+02  0.00000000000E+00 0.  1.
<scales pt_clust_5="13000.00000" pt_clust_6="13000.00000" pt_clust_7="13000.00000" pt_clust_8="13000.00000" pt_clust_9="39.99611"></scales>
<clustering>
<clus scale="   39.996">  1  9  2 -1</clus>
<clus scale="   77.291">  5  6 -1 -1</clus>
<clus scale="   94.717">  7  8 -1 -1</clus>
<clus scale="  160.789">  1  5  2 -1</clus>
<clus scale="  169.854">  2  5  1 -1</clus>
</clustering>
</event>
<event>
 9    1  0.6106093E-005  0.1720295E+03  0.7546771E-02  0.1200385E+00
          1   -1    0    0  502    0  0.00000000000E+00  0.00000000000E+00  0.29732136260E+03  0.29732136260E+03  0.00000000000E+00 0. -1.
         -2   -1    0    0    0  501 -0.00000000000E+00 -0.00000000000E+00 -0.19113506088E+03  0.19113506088E+03  0.00000000000E+00 0.  1.
         23    2    1    2    0    0  0.24935749615E+02 -0.31439645089E+02 -0.10201255261E+02  0.10015079211E+03  0.91191406719E+02 0.  0.
        -24    2    1    2    0    0  0.14531954750E+02 -0.14123765120E+03  0.13256362555E+03  0.21043822700E+03  0.80943688683E+02 0.  0.
         13    1    4    4    0    0  0.19666590577E+01 -0.14116632655E+03  0.93327038605E+02  0.16923869426E+03  0.00000000000E+00 0. -1.
        -14    1    4    4    0    0  0.12565295692E+02 -0.71324654060E-01  0.39236586946E+02  0.41199532743E+02  0.00000000000E+00 0.  1.
        -11    1    3    3    0    0  0.55972312159E+02 -0.27592701362E+02  0.95957543575E+01  0.63137432626E+02  0.00000000000E+00 0. -1.
         11    1    3    3    0    0 -0.31036562544E+02 -0.38469437271E+01 -0.19797009619E+02  0.37013359486E+02  0.00000000000E+00 0.  1.
         21    1    1    2  502  501 -0.39467704365E+02  0.17267729629E+03 -0.16176068571E+02  0.17786740437E+03  0.00000000000E+00 0.  1.
<scales pt_clust_5="13000.00000" pt_clust_6="13000.00000" pt_clust_7="13000.00000" pt_clust_8="13000.00000" pt_clust_9="151.79686"></scales>
<clustering>
<clus scale="   80.944">  5  6 -1 -1</clus>
<clus scale="   91.191">  7  8 -1 -1</clus>
<clus scale="   99.630">  2  7  1 -1</clus>
<clus scale="  151.797">  2  9  1 -1</clus>
<clus scale="  172.030">  1  5  2 -1</clus>
</clustering>
</event>
<event>
 9    1  0.6106093E-005  0.1262191E+03  0.7546771E-02  0.1236305E+00
         -2   -1    0    0    0  501 -0.00000000000E+00  0.00000000000E+00  0.93095362362E+02  0.93095362362E+02  0.00000000000E+00 0.  1.
          1   -1    0    0  502    0  0.00000000000E+00 -0.00000000000E+00 -0.30912380213E+03  0.30912380213E+03  0.00000000000E+00 0. -1.
        -24    2    1    2    0    0 -0.41864485012E+02 -0.63165720104E+02 -0.30975920486E+02  0.11568975465E+03  0.81743919524E+02 0.  0.
         23    2    1    2    0    0  0.69368732663E+02  0.58681243017E+02 -0.21146343684E+03  0.24813499958E+03  0.92729086828E+02 0.  0.
         11    1    3    3    0    0 -0.24420732583E+02  0.16410601406E+02 -0.30937823739E+01  0.29584649867E+02  0.00000000000E+00 0. -1.
        -12    1    3    3    0    0 -0.17443752429E+02 -0.79576321509E+02 -0.27882138112E+02  0.86105104781E+02  0.00000000000E+00 0.  1.
        -11    1    4    4    0    0 -0.16269815250E+02  0.38481182267E+02 -0.71511695598E+02  0.82821681245E+02  0.00000000000E+00 0.  1.
         11    1    4    4    0    0  0.85638547912E+02  0.20200060749E+02 -0.13995174124E+03  0.16531331833E+03  0.00000000000E+00 0. -1.
         21    1    1    2  502  501 -0.27504247651E+02  0.44844770871E+01  0.26410917554E+02  0.38394410266E+02  0.00000000000E+00 0.  1.
<scales pt_clust_5="13000.00000" pt_clust_6="13000.00000" pt_clust_7="13000.00000" pt_clust_8="13000.00000" pt_clust_9="27.86744"></scales>
<clustering>
<clus scale="   27.867">  1  9  2 -1</clus>
<clus scale="   81.744">  5  6 -1 -1</clus>
<clus scale="   92.729">  7  8 -1 -1</clus>
<clus scale="  118.383">  1  5  2 -1</clus>
<clus scale="  126.219">  2  5  1 -1</clus>
</clustering>
</event>
<event>
 9    1  0.6106093E-005  0.1534378E+03  0.7546771E-02  0.1198013E+00
         -4   -1    0    0    0  501 -0.00000000000E+00  0.00000000000E+00  0.29219157384E+03  0.29219157384E+03  0.00000000000E+00 0.  1.
          3   -1    0    0  502    0  0.00000000000E+00 -0.00000000000E+00 -0.23023922350E+03  0.23023922350E+03  0.00000000000E+00 0. -1.
        -24    2    1    2    0    0 -0.10440318904E+02 -0.69014455139E+02  0.19171397576E+03  0.21935578110E+03  0.80564973306E+02 0.  0.
         23    2    1    2    0    0  0.16534131660E+01  0.13265674502E+03 -0.16464725958E+03  0.22996853058E+03  0.90422669703E+02 0.  0.
         13    1    3    3    0    0 -0.41458658805E+02 -0.17132095114E+02  0.65183830292E+02  0.79128129034E+02  0.00000000000E+00 0. -1.
        -14    1    3    3    0    0  0.31018339901E+02 -0.51882360026E+02  0.12653014546E+03  0.14022765206E+03  0.00000000000E+00 0.  1.
        -13    1    4    4    0    0 -0.24537306782E+02  0.92085412840E+02 -0.54694375747E+02  0.10987846659E+03  0.00000000000E+00 0.  1.
         13    1    4    4    0    0  0.26190719948E+02  0.40571332184E+02 -0.10995288383E+03  0.12009006399E+03  0.00000000000E+00 0. -1.
         21    1    1    2  502  501  0.87869057385E+01 -0.63642289884E+02  0.34885634166E+02  0.73106485658E+02  0.00000000000E+00 0.  1.
<scales pt_clust_5="13000.00000" pt_clust_6="13000.00000" pt_clust_7="13000.00000" pt_clust_8="13000.00000" pt_clust_9="64.24602"></scales>
<clustering>
<clus scale="   64.246">  1  9  2 -1</clus>
<clus scale="   80.565">  5  6 -1 -1</clus>
<clus scale="   90.423">  7  8 -1 -1</clus>
<clus scale="  147.843">  1  5  2 -1</clus>
<clus scale="  153.438">  2  5  1 -1</clus>
</clustering>
</event>
<event>
 9    1  0.6106093E-005  0.1430042E+03  0.7546771E-02  0.1210443E+00
         -2   -1    0    0    0  501 -0.00000000000E+00  0.00000000000E+00  0.35778012932E+03  0.35778012932E+03  0.00000000000E+00 0.  1.
          1   -1    0    0  502    0  0.00000000000E+00 -0.00000000000E+00 -0.54382585484E+03  0.54382585484E+03  0.00000000000E+00 0. -1.
         23    2    1    2    0    0 -0.39974904519E+02  0.34245159633E+02  0.19784857787E+03  0.22464161203E+03  0.92461181805E+02 0.  0.
        -24    2    1    2    0    0  0.76114911425E+02 -0.81707956014E+02 -0.51435156439E+03  0.53351433175E+03  0.87237265980E+02 0.  0.
         13    1    4    4    0    0  0.85438860791E+02 -0.93475545976E+02 -0.46410057003E+03  0.48106841065E+03  0.00000000000E+00 0. -1.
        -14    1    4    4    0    0 -0.93239493659E+01  0.11767589962E+02 -0.50250994359E+02  0.52445921094E+02  0.00000000000E+00 0.  1.
        -11    1    3    3    0    0  0.11820094307E+01 -0.20932662763E+02  0.11514769656E+03  0.11704087123E+03  0.00000000000E+00 0.  1.
         11    1    3    3    0    0 -0.41156913950E+02  0.55177822396E+02  0.82700881317E+02  0.10760074080E+03  0.00000000000E+00 0. -1.
         21    1    1    2  502  501 -0.36140006906E+02  0.47462796381E+02  0.13045726099E+03  0.14345004038E+03  0.00000000000E+00 0.  1.
<scales pt_clust_5="13000.00000" pt_clust_6="13000.00000" pt_clust_7="13000.00000" pt_clust_8="13000.00000" pt_clust_9="59.65582"></scales>
<clustering>
<clus scale="   59.656">  1  9  2 -1</clus>
<clus scale="   87.237">  5  6 -1 -1</clus>
<clus scale="   92.461">  7  8 -1 -1</clus>
<clus scale="  139.683">  2  5  1 -1</clus>
<clus scale="  139.683">  2  5  1 -1</clus>
</clustering>
</event>
<event>
 9    1  0.6106093E-005  0.1218915E+03  0.7546771E-02  0.1242637E+00
          1   -1    0    0  502    0  0.00000000000E+00  0.00000000000E+00  0.26351033398E+03  0.26351033398E+03  0.00000000000E+00 0. -1.
         -2   -1    0    0    0  501 -0.00000000000E+00 -0.00000000000E+00 -0.11108282684E+03  0.11108282684E+03  0.00000000000E+00 0.  1.
         23    2    1    2    0    0 -0.97974225480E+02  0.36386639168E+02 -0.22806525347E+02  0.13993504913E+03  0.90214987716E+02 0.  0.
        -24    2    1    2    0    0  0.74452291368E+02 -0.21208757856E+02  0.17335963728E+03  0.20660168955E+03  0.81472321602E+02 0.  0.
         11    1    4    4    0    0  0.47675872022E+02  0.23647042493E+02  0.12309502674E+03  0.13410651364E+03  0.00000000000E+00 0. -1.
        -12    1    4    4    0    0  0.26776419346E+02 -0.44855800349E+02  0.50264610543E+02  0.72495175916E+02  0.00000000000E+00 0.  1.
        -11    1    3    3    0    0 -0.37058754478E+02 -0.26562432941E+02  0.94926002287E+01  0.46572777309E+02  0.00000000000E+00 0. -1.
         11    1    3    3    0    0 -0.60915471002E+02  0.62949072109E+02 -0.32299125575E+02  0.93362271822E+02  0.00000000000E+00 0.  1.
         21    1    1    2  502  501  0.23521934112E+02 -0.15177881312E+02  0.18743952066E+01  0.28056422133E+02  0.00000000000E+00 0. -1.
<scales pt_clust_5="13000.00000" pt_clust_6="13000.00000" pt_clust_7="13000.00000" pt_clust_8="13000.00000" pt_clust_9="27.99374"></scales>
<clustering>
<clus scale="   27.994">  2  9  1 -1</clus>
<clus scale="   81.472">  5  6 -1 -1</clus>
<clus scale="   90.215">  7  8 -1 -1</clus>
<clus scale="  115.570">  1  5  2 -1</clus>
<clus scale="  115.570">  1  5  2 -1</clus>
</clustering>
</event>
<event>
 9    1  0.7921167E-005  0.1252477E+03  0.7546771E-02  0.1237454E+00
          1   -1    0    0  502    0  0.00000000000E+00  0.00000000000E+00  0.73650190274E+03  0.73650190274E+03  0.00000000000E+00 0. -1.
         -2   -1    0    0    0  501 -0.00000000000E+00 -0.00000000000E+00 -0.80238265457E+02  0.80238265457E+02  0.00000000000E+00 0.  1.
         23    2    1    2    0    0  0.41534535794E+02  0.57774999097E+02 -0.20404641217E+02  0.11768811307E+03  0.91493575678E+02 0.  0.
        -24    2    1    2    0    0 -0.61950367603E+02 -0.60674901380E+02  0.66450209014E+03  0.67510979623E+03  0.81798028497E+02 0.  0.
         13    1    4    4    0    0 -0.78744080956E+02 -0.64667186089E+02  0.57495206059E+03  0.58391124944E+03  0.00000000000E+00 0. -1.
        -14    1    4    4    0    0  0.16793713352E+02  0.39922847096E+01  0.89550029546E+02  0.91198546793E+02  0.00000000000E+00 0.  1.
        -11    1    3    3    0    0  0.64623292780E+02  0.64988317323E+02 -0.14512264455E+02  0.92791471472E+02  0.00000000000E+00 0.  1.
         11    1    3    3    0    0 -0.23088756985E+02 -0.72133182261E+01 -0.58923767617E+01  0.24896641598E+02  0.00000000000E+00 0. -1.
         21    1    1    2  502  501  0.20415831809E+02  0.28999022825E+01  0.12166188358E+02  0.23942258892E+02  0.00000000000E+00 0.  1.
<scales pt_clust_5="13000.00000" pt_clust_6="13000.00000" pt_clust_7="13000.00000" pt_clust_8="13000.00000" pt_clust_9="20.62076"></scales>
<clustering>
<clus scale="   20.621">  2  9  1 -1</clus>
<clus scale="   81.798">  5  6 -1 -1</clus>
<clus scale="   91.494">  7  8 -1 -1</clus>
<clus scale="  118.350">  1  5  2 -1</clus>
<clus scale="  118.350">  1  5  2 -1</clus>
</clustering>
</event>
<event>
 9    1  0.6106093E-005  0.9926801E+02  0.7546771E-02  0.1287928E+00
          3   -1    0    0  502    0  0.00000000000E+00  0.00000000000E+00  0.28457279582E+03  0.28457279582E+03  0.00000000000E+00 0. -1.
         -4   -1    0    0    0  501 -0.00000000000E+00 -0.00000000000E+00 -0.11166951727E+03  0.11166951727E+03  0.00000000000E+00 0.  1.
        -24    2    1    2    0    0  0.11374265373E+02 -0.32142182899E+02 -0.32070302513E+02  0.93346326438E+02  0.80762234503E+02 0.  0.
         23    2    1    2    0    0 -0.39181418483E+02 -0.16422602404E+02  0.22216541371E+03  0.24435253916E+03  0.92443533684E+02 0.  0.
         13    1    3    3    0    0  0.44579841572E+02 -0.56165707488E+01 -0.13083792813E+02  0.46798437751E+02  0.00000000000E+00 0. -1.
        -14    1    3    3    0    0 -0.33205576199E+02 -0.26525612151E+02 -0.18986509700E+02  0.46547888687E+02  0.00000000000E+00 0.  1.
        -11    1    4    4    0    0 -0.67250441415E+02 -0.37984221554E+01  0.17968138589E+03  0.19189176719E+03  0.00000000000E+00 0. -1.
         11    1    4    4    0    0  0.28069022931E+02 -0.12624180248E+02  0.42484027817E+02  0.52460771961E+02  0.00000000000E+00 0.  1.
         21    1    1    2  502  501  0.27807153111E+02  0.48564785303E+02 -0.17191832646E+02  0.58543447502E+02  0.00000000000E+00 0. -1.
<scales pt_clust_5="13000.00000" pt_clust_6="13000.00000" pt_clust_7="13000.00000" pt_clust_8="13000.00000" pt_clust_9="55.96227"></scales>
<clustering>
<clus scale="   55.962">  2  9  1 -1</clus>
<clus scale="   80.762">  5  6 -1 -1</clus>
<clus scale="   88.492">  2  5  1 -1</clus>
<clus scale="   92.444">  7  8 -1 -1</clus>
<clus scale="   99.268">  1  5  2 -1</clus>
</clustering>
</event>
<event>
 9    1  0.6106093E-005  0.1503716E+03  0.7546771E-02  0.1201426E+00
          1   -1    0    0  502    0  0.00000000000E+00  0.00000000000E+00  0.55576201369E+03  0.55576201369E+03  0.00000000000E+00 0. -1.
         -2   -1    0    0    0  501 -0.00000000000E+00 -0.00000000000E+00 -0.95225208705E+02  0.95225208705E+02  0.00000000000E+00 0.  1.
        -24    2    1    2    0    0  0.14524005611E+03  0.92477048900E+02  0.14760410687E+03  0.23978578563E+03  0.77868942157E+02 0.  0.
         23    2    1    2    0    0 -0.80528437394E+02 -0.72548194210E+02  0.31436217763E+03  0.34347554616E+03  0.86045350684E+02 0.  0.
         13    1    3    3    0    0  0.11431209365E+03  0.64673961534E+02  0.14842253130E+03  0.19818986819E+03  0.00000000000E+00 0. -1.
        -14    1    3    3    0    0  0.30927962464E+02  0.27803087366E+02 -0.81842443101E+00  0.41595917442E+02  0.00000000000E+00 0.  1.
        -13    1    4    4    0    0 -0.74876615530E+02 -0.35200051222E+02  0.28150286464E+03  0.29340997590E+03  0.00000000000E+00 0. -1.
         13    1    4    4    0    0 -0.56518218641E+01 -0.37348142988E+02  0.32859312988E+02  0.50065570256E+02  0.00000000000E+00 0.  1.
         21    1    1    2  502  501 -0.64711618719E+02 -0.19928854690E+02 -0.14294795150E+01  0.67725890604E+02  0.00000000000E+00 0. -1.
<scales pt_clust_5="13000.00000" pt_clust_6="13000.00000" pt_clust_7="13000.00000" pt_clust_8="13000.00000" pt_clust_9="67.71080"></scales>
<clustering>
<clus scale="   67.711">  2  9  1 -1</clus>
<clus scale="   77.869">  5  6 -1 -1</clus>
<clus scale="   86.045">  7  8 -1 -1</clus>
<clus scale="  145.847">  2  5  1 -1</clus>
<clus scale="  150.372">  1  5  2 -1</clus>
</clustering>
</event>
<event>
 9    1  0.6106093E-005  0.2239527E+03  0.7546771E-02  0.1131409E+00
         -2   -1    0    0    0  501 -0.00000000000E+00  0.00000000000E+00  0.15459124036E+03  0.15459124036E+03  0.00000000000E+00 0.  1.
          1   -1    0    0  502    0  0.00000000000E+00 -0.00000000000E+00 -0.62244806228E+03  0.62244806228E+03  0.00000000000E+00 0. -1.
         23    2    1    2    0    0 -0.10579721954E+03 -0.12993325016E+03 -0.73687422564E+02  0.20431902344E+03  0.90778444219E+02 0.  0.
        -24    2    1    2    0    0  0.54344033537E+02  0.22026676941E+03 -0.39858406399E+03  0.46866709899E+03  0.96482485021E+02 0.  0.
         13    1    4    4    0    0  0.53708428670E+02  0.80574835952E+02 -0.23113341531E+03  0.25059839419E+03  0.00000000000E+00 0. -1.
        -14    1    4    4    0    0  0.63560486743E+00  0.13969193346E+03 -0.16745064869E+03  0.21806870480E+03  0.00000000000E+00 0.  1.
        -13    1    3    3    0    0 -0.51713656020E+02 -0.12607783764E+03 -0.55310975995E+02  0.14706878469E+03  0.00000000000E+00 0.  1.
         13    1    3    3    0    0 -0.54083563521E+02 -0.38554125204E+01 -0.18376446569E+02  0.57250238754E+02  0.00000000000E+00 0. -1.
         21    1    1    2  502  501  0.51453186004E+02 -0.90333519244E+02  0.44146646301E+01  0.10405318021E+03  0.00000000000E+00 0.  1.
<scales pt_clust_5="13000.00000" pt_clust_6="13000.00000" pt_clust_7="13000.00000" pt_clust_8="13000.00000" pt_clust_9="103.95949"></scales>
<clustering>
<clus scale="   90.778">  7  8 -1 -1</clus>
<clus scale="   96.482">  5  6 -1 -1</clus>
<clus scale="  103.959">  1  9  2 -1</clus>
<clus scale="  221.555">  1  7  2 -1</clus>
<clus scale="  223.953">  2  5  1 -1</clus>
</clustering>
</event>
<event>
 9    1  0.6106093E-005  0.1664465E+03  0.7546771E-02  0.1182601E+00
         -4   -1    0    0    0  501 -0.00000000000E+00  0.00000000000E+00  0.15608226664E+03  0.15608226664E+03  0.00000000000E+00 0.  1.
          3   -1    0    0  502    0  0.00000000000E+00 -0.00000000000E+00 -0.49771727734E+03  0.49771727734E+03  0.00000000000E+00 0. -1.
         23    2    1    2    0    0 -0.12257511553E+02 -0.11834255161E+03  0.66519031615E+02  0.16353487250E+03  0.90353012382E+02 0.  0.
        -24    2    1    2    0    0  0.41200527092E+01  0.14255627881E+03 -0.42744031188E+03  0.45825712526E+03  0.83397273144E+02 0.  0.
         13    1    4    4    0    0  0.39503969373E+02  0.10967251720E+03 -0.31513042639E+03  0.33599971765E+03  0.00000000000E+00 0. -1.
        -14    1    4    4    0    0 -0.35383916664E+02  0.32883761611E+02 -0.11230988549E+03  0.12225740760E+03  0.00000000000E+00 0.  1.
        -11    1    3    3    0    0  0.17271918591E+02 -0.38068318413E+02 -0.15927859305E+02  0.44734916348E+02  0.00000000000E+00 0. -1.
         11    1    3    3    0    0 -0.29529430144E+02 -0.80274233194E+02  0.82446890920E+02  0.11879995615E+03  0.00000000000E+00 0.  1.
         21    1    1    2  502  501  0.81374588436E+01 -0.24213727200E+02  0.19286269570E+02  0.32007546224E+02  0.00000000000E+00 0.  1.
<scales pt_clust_5="13000.00000" pt_clust_6="13000.00000" pt_clust_7="13000.00000" pt_clust_8="13000.00000" pt_clust_9="25.54453"></scales>
<clustering>
<clus scale="   25.545">  1  9  2 -1</clus>
<clus scale="   83.397">  5  6 -1 -1</clus>
<clus scale="   90.353">  7  8 -1 -1</clus>
<clus scale="  162.776">  2  5  1 -1</clus>
<clus scale="  162.776">  2  5  1 -1</clus>
</clustering>
</event>
<event>
 9    1  0.6106093E-005  0.1105977E+03  0.7546771E-02  0.1266872E+00
          1   -1    0    0  502    0  0.00000000000E+00  0.00000000000E+00  0.60979221188E+03  0.60979221188E+03  0.00000000000E+00 0. -1.
         -2   -1    0    0    0  501 -0.00000000000E+00 -0.00000000000E+00 -0.49950235919E+02  0.49950235919E+02  0.00000000000E+00 0.  1.
        -24    2    1    2    0    0  0.50299582653E+02  0.57721610804E+02  0.43590789467E+02  0.11865029354E+03  0.79472654800E+02 0.  0.
         23    2    1    2    0    0 -0.32670676323E+02 -0.37356982136E+02  0.49486114611E+03  0.50669694723E+03  0.96908849944E+02 0.  0.
         11    1    3    3    0    0  0.12873864829E+02  0.51628110462E+02  0.57425093924E+02  0.78286905659E+02  0.00000000000E+00 0. -1.
        -12    1    3    3    0    0  0.37425717824E+02  0.60935003424E+01 -0.13834304457E+02  0.40363387877E+02  0.00000000000E+00 0.  1.
        -13    1    4    4    0    0 -0.45795971013E+02 -0.63936611919E+02  0.38166436939E+03  0.38968301498E+03  0.00000000000E+00 0. -1.
         13    1    4    4    0    0  0.13125294690E+02  0.26579629783E+02  0.11319677672E+03  0.11701393225E+03  0.00000000000E+00 0.  1.
         21    1    1    2  502  501 -0.17628906330E+02 -0.20364628668E+02  0.21390040382E+02  0.34395207031E+02  0.00000000000E+00 0. -1.
<scales pt_clust_5="13000.00000" pt_clust_6="13000.00000" pt_clust_7="13000.00000" pt_clust_8="13000.00000" pt_clust_9="26.93504"></scales>
<clustering>
<clus scale="   26.935">  2  9  1 -1</clus>
<clus scale="   79.473">  5  6 -1 -1</clus>
<clus scale="   95.689">  2  5  1 -1</clus>
<clus scale="   96.909">  7  8 -1 -1</clus>
<clus scale="  110.598">  1  5  2 -1</clus>
</clustering>
</event>
<event>
 9    1  0.6106093E-005  0.2759827E+03  0.7546771E-02  0.1125611E+00
          3   -1    0    0  502    0  0.00000000000E+00  0.00000000000E+00  0.41854618820E+02  0.41854618820E+02  0.00000000000E+00 0. -1.
         -4   -1    0    0    0  501 -0.00000000000E+00 -0.00000000000E+00 -0.30230305550E+04  0.30230305550E+04  0.00000000000E+00 0.  1.
        -24    2    1    2    0    0  0.25348724242E+03  0.12963549169E+03 -0.12479728676E+04  0.12827868678E+04  0.83932872767E+02 0.  0.
         23    2    1    2    0    0 -0.82627808838E+02  0.60354097991E+02 -0.35399372517E+03  0.37941965317E+03  0.90430878664E+02 0.  0.
         11    1    3    3    0    0  0.11476912475E+03  0.35024014304E+02 -0.37226378490E+03  0.39112524736E+03  0.00000000000E+00 0. -1.
        -12    1    3    3    0    0  0.13871811766E+03  0.94611477390E+02 -0.87570908268E+03  0.89166162041E+03  0.00000000000E+00 0.  1.
        -13    1    4    4    0    0 -0.48502295976E+02 -0.84051109127E+01 -0.72388791124E+02  0.87540023331E+02  0.00000000000E+00 0. -1.
         13    1    4    4    0    0 -0.34125512862E+02  0.68759208903E+02 -0.28160493404E+03  0.29187962984E+03  0.00000000000E+00 0.  1.
         21    1    1    2  502  501 -0.17085943358E+03 -0.18998958968E+03 -0.13792093434E+04  0.14026786528E+04  0.00000000000E+00 0.  1.
<scales pt_clust_5="13000.00000" pt_clust_6="13000.00000" pt_clust_7="13000.00000" pt_clust_8="13000.00000" pt_clust_9="262.91014"></scales>
<clustering>
<clus scale="   83.933">  5  6 -1 -1</clus>
<clus scale="   90.431">  7  8 -1 -1</clus>
<clus scale="  136.557">  1  7  2 -1</clus>
<clus scale="  262.910">  2  9  1 -1</clus>
<clus scale="  136.557">  1  5  2 -1</clus>
</clustering>
</event>
<event>
 9    1  0.6106093E-005  0.1378407E+03  0.7546771E-02  0.1217965E+00
         -2   -1    0    0    0  501 -0.00000000000E+00  0.00000000000E+00  0.23197509938E+03  0.23197509938E+03  0.00000000000E+00 0.  1.
          1   -1    0    0  502    0  0.00000000000E+00 -0.00000000000E+00 -0.54285821382E+03  0.54285821382E+03  0.00000000000E+00 0. -1.
         23    2    1    2    0    0 -0.30699215820E+02 -0.76056559911E+02  0.53419897540E+02  0.13167373745E+03  0.88075226496E+02 0.  0.
        -24    2    1    2    0    0  0.92353175708E+02  0.59517916611E+02 -0.48656808108E+03  0.50523392688E+03  0.80257908572E+02 0.  0.
         11    1    4    4    0    0  0.91678446747E+02  0.26279249469E+02 -0.27495885164E+03  0.29102904777E+03  0.00000000000E+00 0. -1.
        -12    1    4    4    0    0  0.67472896121E+00  0.33238667142E+02 -0.21160922944E+03  0.21420487911E+03  0.00000000000E+00 0.  1.
        -11    1    3    3    0    0 -0.28917544550E+02 -0.31296510851E+02 -0.18891948513E+02  0.46611175622E+02  0.00000000000E+00 0. -1.
         11    1    3    3    0    0 -0.17816712695E+01 -0.44760049060E+02  0.72311846053E+02  0.85062561824E+02  0.00000000000E+00 0.  1.
         21    1    1    2  502  501 -0.61653959889E+02  0.16538643300E+02  0.12226506910E+03  0.13792564887E+03  0.00000000000E+00 0.  1.
<scales pt_clust_5="13000.00000" pt_clust_6="13000.00000" pt_clust_7="13000.00000" pt_clust_8="13000.00000" pt_clust_9="63.83367"></scales>
<clustering>
<clus scale="   63.834">  1  9  2 -1</clus>
<clus scale="   80.258">  5  6 -1 -1</clus>
<clus scale="   88.075">  7  8 -1 -1</clus>
<clus scale="  132.982">  2  5  1 -1</clus>
<clus scale="  132.982">  2  5  1 -1</clus>
</clustering>
</event>
<event>
 9    1  0.6106093E-005  0.9129957E+02  0.7546771E-02  0.1305905E+00
          1   -1    0    0  502    0  0.00000000000E+00  0.00000000000E+00  0.17043415665E+03  0.17043415665E+03  0.00000000000E+00 0. -1.
         -2   -1    0    0    0  501 -0.00000000000E+00 -0.00000000000E+00 -0.12379001586E+03  0.12379001586E+03  0.00000000000E+00 0.  1.
        -24    2    1    2    0    0 -0.10651145157E+02 -0.28175009321E+01 -0.56611014296E+02  0.98219180178E+02  0.79503554704E+02 0.  0.
         23    2    1    2    0    0 -0.23623037696E+02  0.12696727045E+01  0.12487893511E+03  0.15545005126E+03  0.89500335336E+02 0.  0.
         13    1    3    3    0    0 -0.41129004456E+02 -0.19378691778E+02 -0.34658261146E+02  0.57169255446E+02  0.00000000000E+00 0. -1.
        -14    1    3    3    0    0  0.30477859299E+02  0.16561190845E+02 -0.21952753150E+02  0.41049924732E+02  0.00000000000E+00 0.  1.
        -11    1    4    4    0    0 -0.32751841105E+02  0.25672072870E+02  0.12239726061E+03  0.12927810266E+03  0.00000000000E+00 0. -1.
         11    1    4    4    0    0  0.91288034089E+01 -0.24402400166E+02  0.24816744957E+01  0.26171948606E+02  0.00000000000E+00 0.  1.
         21    1    1    2  502  501  0.34274182853E+02  0.15478282276E+01 -0.21623780023E+02  0.40554941067E+02  0.00000000000E+00 0.  1.
<scales pt_clust_5="13000.00000" pt_clust_6="13000.00000" pt_clust_7="13000.00000" pt_clust_8="13000.00000" pt_clust_9="34.30912"></scales>
<clustering>
<clus scale="   34.309">  2  9  1 -1</clus>
<clus scale="   79.504">  5  6 -1 -1</clus>
<clus scale="   81.524">  2  5  1 -1</clus>
<clus scale="   89.500">  7  8 -1 -1</clus>
<clus scale="   91.300">  1  5  2 -1</clus>
</clustering>
</event>
<event>
 9    1  0.6106093E-005  0.1165201E+03  0.7546771E-02  0.1252686E+00
         -2   -1    0    0    0  501 -0.00000000000E+00  0.00000000000E+00  0.61374738903E+02  0.61374738903E+02  0.00000000000E+00 0.  1.
          1   -1    0    0  502    0  0.00000000000E+00 -0.00000000000E+00 -0.31586764046E+03  0.31586764046E+03  0.00000000000E+00 0. -1.
         23    2    1    2    0    0  0.62772453164E+02 -0.24916732953E+02 -0.56633683480E+02  0.12715045136E+03  0.91644087198E+02 0.  0.
        -24    2    1    2    0    0 -0.50253889837E+02  0.57544049633E+02 -0.17811614677E+03  0.20995410188E+03  0.80737798234E+02 0.  0.
         13    1    4    4    0    0  0.20122496959E+02  0.19545037472E+02 -0.70468477938E+02  0.75846751787E+02  0.00000000000E+00 0. -1.
        -14    1    4    4    0    0 -0.70376386797E+02  0.37999012161E+02 -0.10764766883E+03  0.13410735009E+03  0.00000000000E+00 0.  1.
        -13    1    3    3    0    0  0.63688362121E+02 -0.50365641774E+02 -0.21930262692E+02  0.84106133918E+02  0.00000000000E+00 0.  1.
         13    1    3    3    0    0 -0.91590895686E+00  0.25448908820E+02 -0.34703420788E+02  0.43044317438E+02  0.00000000000E+00 0. -1.
         21    1    1    2  502  501 -0.12518563327E+02 -0.32627316680E+02 -0.19743071307E+02  0.40137826126E+02  0.00000000000E+00 0.  1.
<scales pt_clust_5="13000.00000" pt_clust_6="13000.00000" pt_clust_7="13000.00000" pt_clust_8="13000.00000" pt_clust_9="34.94648"></scales>
<clustering>
<clus scale="   34.946">  1  9  2 -1</clus>
<clus scale="   80.738">  5  6 -1 -1</clus>
<clus scale="   91.644">  7  8 -1 -1</clus>
<clus scale="  108.152">  2  5  1 -1</clus>
<clus scale="  108.152">  2  5  1 -1</clus>
</clustering>
</event>
<event>
 9    1  0.6106093E-005  0.1157109E+03  0.7546771E-02  0.1253266E+00
          1   -1    0    0  502    0  0.00000000000E+00  0.00000000000E+00  0.16258790220E+03  0.16258790220E+03  0.00000000000E+00 0. -1.
         -2   -1    0    0    0  501 -0.00000000000E+00 -0.00000000000E+00 -0.10995403063E+03  0.10995403063E+03  0.00000000000E+00 0.  1.
        -24    2    1    2    0    0 -0.85687413589E+01  0.52386231645E+02 -0.75907677922E+01  0.98520857014E+02  0.82649857330E+02 0.  0.
         23    2    1    2    0    0 -0.74676366889E+00 -0.84710001059E+02  0.64455378308E+02  0.14011674195E+03  0.91114563307E+02 0.  0.
         11    1    3    3    0    0  0.18647393367E+02  0.46871014980E+02  0.24503439728E+02  0.56080619496E+02  0.00000000000E+00 0. -1.
        -12    1    3    3    0    0 -0.27216134726E+02  0.55152166654E+01 -0.32094207520E+02  0.42440237518E+02  0.00000000000E+00 0.  1.
        -11    1    4    4    0    0  0.28740726279E+02 -0.59983527007E+02  0.74971003490E+02  0.10022327187E+03  0.00000000000E+00 0.  1.
         11    1    4    4    0    0 -0.29487489948E+02 -0.24726474052E+02 -0.10515625181E+02  0.39893470085E+02  0.00000000000E+00 0. -1.
         21    1    1    2  502  501  0.93155050278E+01  0.32323769413E+02 -0.42307389518E+01  0.33904333869E+02  0.00000000000E+00 0. -1.
<scales pt_clust_5="13000.00000" pt_clust_6="13000.00000" pt_clust_7="13000.00000" pt_clust_8="13000.00000" pt_clust_9="33.63933"></scales>
<clustering>
<clus scale="   33.639">  2  9  1 -1</clus>
<clus scale="   82.650">  5  6 -1 -1</clus>
<clus scale="   91.115">  7  8 -1 -1</clus>
<clus scale="  109.170">  2  5  1 -1</clus>
<clus scale="  115.711">  1  5  2 -1</clus>
</clustering>
</event>
<event>
 9    1  0.6106093E-005  0.9439547E+02  0.7546771E-02  0.1301156E+00
         -2   -1    0    0    0  501 -0.00000000000E+00  0.00000000000E+00  0.94585772873E+02  0.94585772873E+02  0.00000000000E+00 0.  1.
          1   -1    0    0  502    0  0.00000000000E+00 -0.00000000000E+00 -0.14188090869E+03  0.14188090869E+03  0.00000000000E+00 0. -1.
        -24    2    1    2    0    0  0.33427798256E+02 -0.42267393840E+01  0.14962981781E+02  0.87456254287E+02  0.79305879783E+02 0.  0.
         23    2    1    2    0    0 -0.11491087889E+01  0.89779037098E+01 -0.67993049117E+02  0.11588374927E+03  0.93402705587E+02 0.  0.
         11    1    3    3    0    0  0.37854711197E+02  0.70322935058E+01 -0.24863642025E+02  0.45832663097E+02  0.00000000000E+00 0. -1.
        -12    1    3    3    0    0 -0.44269129408E+01 -0.11259032890E+02  0.39826623806E+02  0.41623591191E+02  0.00000000000E+00 0.  1.
        -13    1    4    4    0    0  0.26654206866E+02  0.34784113549E+02 -0.74684946866E+01  0.44454017950E+02  0.00000000000E+00 0.  1.
         13    1    4    4    0    0 -0.27803315655E+02 -0.25806209840E+02 -0.60524554430E+02  0.71429731321E+02  0.00000000000E+00 0. -1.
         21    1    1    2  502  501 -0.32278689467E+02 -0.47511643258E+01  0.57349315164E+01  0.33126678005E+02  0.00000000000E+00 0.  1.
<scales pt_clust_5="13000.00000" pt_clust_6="13000.00000" pt_clust_7="13000.00000" pt_clust_8="13000.00000" pt_clust_9="32.62648"></scales>
<clustering>
<clus scale="   32.626">  1  9  2 -1</clus>
<clus scale="   79.306">  5  6 -1 -1</clus>
<clus scale="   80.473">  1  5  2 -1</clus>
<clus scale="   93.403">  7  8 -1 -1</clus>
<clus scale="   94.395">  2  5  1 -1</clus>
</clustering>
</event>
<event>
 9    1  0.6106093E-005  0.9180245E+02  0.7546771E-02  0.1304374E+00
          1   -1    0    0  502    0  0.00000000000E+00  0.00000000000E+00  0.17522761824E+03  0.17522761824E+03  0.00000000000E+00 0. -1.
         -2   -1    0    0    0  501 -0.00000000000E+00 -0.00000000000E+00 -0.29363169097E+03  0.29363169097E+03  0.00000000000E+00 0.  1.
        -24    2    1    2    0    0  0.21508484448E+02  0.38022160697E+02 -0.24712811556E+03  0.26358894313E+03  0.80613434569E+02 0.  0.
         23    2    1    2    0    0 -0.10803890968E+01 -0.16192154814E+02  0.14479287223E+03  0.17132830494E+03  0.90139109755E+02 0.  0.
         11    1    3    3    0    0 -0.64813392359E+01  0.43991214862E+02 -0.62201334248E+02  0.76460713609E+02  0.00000000000E+00 0. -1.
        -12    1    3    3    0    0  0.27989823684E+02 -0.59690541652E+01 -0.18492678131E+03  0.18712822952E+03  0.00000000000E+00 0.  1.
        -11    1    4    4    0    0  0.29605154834E+02  0.19119174669E+02  0.10203828202E+03  0.10795285559E+03  0.00000000000E+00 0.  1.
         11    1    4    4    0    0 -0.30685543931E+02 -0.35311329483E+02  0.42754590206E+02  0.63375449346E+02  0.00000000000E+00 0. -1.
         21    1    1    2  502  501 -0.20428095351E+02 -0.21830005883E+02 -0.16068829397E+02  0.33942061144E+02  0.00000000000E+00 0.  1.
<scales pt_clust_5="13000.00000" pt_clust_6="13000.00000" pt_clust_7="13000.00000" pt_clust_8="13000.00000" pt_clust_9="29.89743"></scales>
<clustering>
<clus scale="   29.897">  2  9  1 -1</clus>
<clus scale="   80.613">  5  6 -1 -1</clus>
<clus scale="   82.469">  2  5  1 -1</clus>
<clus scale="   90.139">  7  8 -1 -1</clus>
<clus scale="   91.802">  1  5  2 -1</clus>
</clustering>
</event>
<event>
 9    1  0.6106093E-005  0.9138685E+02  0.7546771E-02  0.1300159E+00
         -4   -1    0    0    0  501 -0.00000000000E+00  0.00000000000E+00  0.86056663925E+02  0.86056663925E+02  0.00000000000E+00 0.  1.
          3   -1    0    0  502    0  0.00000000000E+00 -0.00000000000E+00 -0.19313373124E+03  0.19313373124E+03  0.00000000000E+00 0. -1.
        -24    2    1    2    0    0 -0.31672218016E+02  0.49489599036E+02  0.51219764152E+01  0.10021590754E+03  0.81022488694E+02 0.  0.
         23    2    1    2    0    0 -0.15879200829E+02 -0.22691214618E+02 -0.61816262501E+02  0.10469316100E+03  0.79827109497E+02 0.  0.
         13    1    3    3    0    0  0.23680857153E+02  0.64150140803E+01 -0.13011912551E+02  0.27771302984E+02  0.00000000000E+00 0. -1.
        -14    1    3    3    0    0 -0.55353075169E+02  0.43074584956E+02  0.18133888967E+02  0.72444604553E+02  0.00000000000E+00 0.  1.
        -11    1    4    4    0    0 -0.42184033008E+02 -0.32736205438E+02 -0.26752721742E+02  0.59723194053E+02  0.00000000000E+00 0.  1.
         11    1    4    4    0    0  0.26304832179E+02  0.10044990820E+02 -0.35063540759E+02  0.44969966946E+02  0.00000000000E+00 0. -1.
         21    1    1    2  502  501  0.47551418845E+02 -0.26798384419E+02 -0.50382781233E+02  0.74281326634E+02  0.00000000000E+00 0. -1.
<scales pt_clust_5="13000.00000" pt_clust_6="13000.00000" pt_clust_7="13000.00000" pt_clust_8="13000.00000" pt_clust_9="54.58288"></scales>
<clustering>
<clus scale="   54.583">  2  9  1 -1</clus>
<clus scale="   79.827">  7  8 -1 -1</clus>
<clus scale="   81.022">  5  6 -1 -1</clus>
<clus scale="   90.329">  2  7  1 -1</clus>
<clus scale="   54.583">  2  5  1 -1</clus>
</clustering>
</event>
<event>
 9    1  0.6106093E-005  0.9672287E+02  0.7546771E-02  0.1292610E+00
         -2   -1    0    0    0  501 -0.00000000000E+00  0.00000000000E+00  0.48423758702E+03  0.48423758702E+03  0.00000000000E+00 0.  1.
          1   -1    0    0  502    0  0.00000000000E+00 -0.00000000000E+00 -0.10093173978E+03  0.10093173978E+03  0.00000000000E+00 0. -1.
         23    2    1    2    0    0  0.15329547675E+02 -0.30768822405E+02  0.36921279542E+03  0.38167446980E+03  0.90419008683E+02 0.  0.
        -24    2    1    2    0    0  0.13158110199E+02  0.32394450378E+02 -0.71486950774E+02  0.11328329365E+03  0.80623719891E+02 0.  0.
         11    1    4    4    0    0  0.10239372707E+02  0.50209525991E+02 -0.14134278182E+02  0.53156552498E+02  0.00000000000E+00 0. -1.
        -12    1    4    4    0    0  0.29187374924E+01 -0.17815075613E+02 -0.57352672592E+02  0.60126741149E+02  0.00000000000E+00 0.  1.
        -11    1    3    3    0    0  0.46940905569E+02 -0.23906757301E+02  0.30768244547E+03  0.31215936460E+03  0.00000000000E+00 0.  1.
         11    1    3    3    0    0 -0.31611357894E+02 -0.68620651041E+01  0.61530349955E+02  0.69515105200E+02  0.00000000000E+00 0. -1.
         21    1    1    2  502  501 -0.28487657874E+02 -0.16256279730E+01  0.85580002590E+02  0.90211563343E+02  0.00000000000E+00 0. -1.
<scales pt_clust_5="13000.00000" pt_clust_6="13000.00000" pt_clust_7="13000.00000" pt_clust_8="13000.00000" pt_clust_9="28.53400"></scales>
<clustering>
<clus scale="   28.534">  1  9  2 -1</clus>
<clus scale="   80.624">  5  6 -1 -1</clus>
<clus scale="   87.635">  2  5  1 -1</clus>
<clus scale="   90.419">  7  8 -1 -1</clus>
<clus scale="   87.635">  2  5  1 -1</clus>
</clustering>
</event>
<event>
 9    1  0.6106093E-005  0.1080118E+03  0.7546771E-02  0.1268188E+00
         -2   -1    0    0    0  501 -0.00000000000E+00  0.00000000000E+00  0.23905606631E+03  0.23905606631E+03  0.00000000000E+00 0.  1.
          1   -1    0    0  502    0  0.00000000000E+00 -0.00000000000E+00 -0.12788823152E+03  0.12788823152E+03  0.00000000000E+00 0. -1.
         23    2    1    2    0    0  0.37440085329E+02 -0.25411033074E+02  0.16511998297E+02  0.10260432518E+03  0.90595368901E+02 0.  0.
        -24    2    1    2    0    0 -0.50022341802E+02  0.43642518989E+02 -0.51345194346E+02  0.11666803468E+03  0.81044414919E+02 0.  0.
         11    1    4    4    0    0 -0.61019745313E+02  0.25105384557E+01 -0.38507591030E+02  0.72197968727E+02  0.00000000000E+00 0. -1.
        -12    1    4    4    0    0  0.10997403511E+02  0.41131980533E+02 -0.12837603316E+02  0.44470065948E+02  0.00000000000E+00 0.  1.
        -11    1    3    3    0    0  0.38633126766E+01 -0.55057742882E+02  0.17186967384E+02  0.57807197510E+02  0.00000000000E+00 0. -1.
         11    1    3    3    0    0  0.33576772653E+02  0.29646709807E+02 -0.67496908691E+00  0.44797127670E+02  0.00000000000E+00 0.  1.
         21    1    1    2  502  501  0.12582256472E+02 -0.18231485915E+02  0.14600103085E+03  0.14767193797E+03  0.00000000000E+00 0.  1.
<scales pt_clust_5="13000.00000" pt_clust_6="13000.00000" pt_clust_7="13000.00000" pt_clust_8="13000.00000" pt_clust_9="22.15176"></scales>
<clustering>
<clus scale="   22.152">  1  9  2 -1</clus>
<clus scale="   81.044">  5  6 -1 -1</clus>
<clus scale="   90.595">  7  8 -1 -1</clus>
<clus scale="  100.136">  2  5  1 -1</clus>
<clus scale="  100.136">  2  5  1 -1</clus>
</clustering>
</event>
<event>
 9    1  0.6106093E-005  0.8529816E+02  0.7546771E-02  0.1314717E+00
         -2   -1    0    0    0  501 -0.00000000000E+00  0.00000000000E+00  0.60393450880E+03  0.60393450880E+03  0.00000000000E+00 0.  1.
          1   -1    0    0  502    0  0.00000000000E+00 -0.00000000000E+00 -0.57838556026E+02  0.57838556026E+02  0.00000000000E+00 0. -1.
         23    2    1    2    0    0  0.11078660963E+02  0.23760644836E+02  0.24384263079E+03  0.25831775219E+03  0.81126614215E+02 0.  0.
        -24    2    1    2    0    0  0.26153410462E+02  0.22353037200E+02 -0.72523231218E+01  0.88326064287E+02  0.81026158066E+02 0.  0.
         13    1    4    4    0    0  0.17304344931E+02  0.51208642860E+02 -0.16909853419E+02  0.56636636550E+02  0.00000000000E+00 0. -1.
        -14    1    4    4    0    0  0.88490655312E+01 -0.28855605661E+02  0.96575302971E+01  0.31689427736E+02  0.00000000000E+00 0.  1.
        -11    1    3    3    0    0 -0.23470892622E+02  0.30528939225E+02  0.19084988712E+03  0.19469611795E+03  0.00000000000E+00 0.  1.
         11    1    3    3    0    0  0.34549553585E+02 -0.67682943889E+01  0.52992743674E+02  0.63621634244E+02  0.00000000000E+00 0. -1.
         21    1    1    2  502  501 -0.37232071425E+02 -0.46113682035E+02  0.30950564511E+03  0.31512924835E+03  0.00000000000E+00 0.  1.
<scales pt_clust_5="13000.00000" pt_clust_6="13000.00000" pt_clust_7="13000.00000" pt_clust_8="13000.00000" pt_clust_9="59.26803"></scales>
<clustering>
<clus scale="   59.268">  1  9  2 -1</clus>
<clus scale="   81.026">  5  6 -1 -1</clus>
<clus scale="   81.127">  7  8 -1 -1</clus>
<clus scale="   85.203">  2  5  1 -1</clus>
<clus scale="   85.203">  2  5  1 -1</clus>
</clustering>
</event>
<event>
 9    1  0.6106093E-005  0.1011126E+03  0.7546771E-02  0.1286277E+00
         -2   -1    0    0    0  501 -0.00000000000E+00  0.00000000000E+00  0.14672866189E+03  0.14672866189E+03  0.00000000000E+00 0.  1.
          1   -1    0    0  502    0  0.00000000000E+00 -0.00000000000E+00 -0.18686918761E+03  0.18686918761E+03  0.00000000000E+00 0. -1.
         23    2    1    2    0    0 -0.54373222361E+01 -0.45755740286E+02  0.75269058987E+02  0.13058104768E+03  0.96243579163E+02 0.  0.
        -24    2    1    2    0    0 -0.23940566660E+02  0.20262509094E+02 -0.13431862697E+03  0.15976732700E+03  0.80624966475E+02 0.  0.
         11    1    4    4    0    0  0.15689325738E+02  0.14332291350E+02 -0.11180135788E+03  0.11380295753E+03  0.00000000000E+00 0. -1.
        -12    1    4    4    0    0 -0.39629892398E+02  0.59302177439E+01 -0.22517269085E+02  0.45964369472E+02  0.00000000000E+00 0.  1.
        -13    1    3    3    0    0  0.37771724359E+02 -0.28916535336E+01  0.54296577686E+02  0.66205612825E+02  0.00000000000E+00 0. -1.
         13    1    3    3    0    0 -0.43209046595E+02 -0.42864086753E+02  0.20972481302E+02  0.64375434855E+02  0.00000000000E+00 0.  1.
         21    1    1    2  502  501  0.29377888896E+02  0.25493231192E+02  0.18909042265E+02  0.43249474817E+02  0.00000000000E+00 0.  1.
<scales pt_clust_5="13000.00000" pt_clust_6="13000.00000" pt_clust_7="13000.00000" pt_clust_8="13000.00000" pt_clust_9="38.89685"></scales>
<clustering>
<clus scale="   38.897">  1  9  2 -1</clus>
<clus scale="   80.625">  5  6 -1 -1</clus>
<clus scale="   86.379">  2  5  1 -1</clus>
<clus scale="   96.244">  7  8 -1 -1</clus>
<clus scale="   86.379">  2  5  1 -1</clus>
</clustering>
</event>
<event>
 9    1  0.6106093E-005  0.9460243E+02  0.7546771E-02  0.1294699E+00
          3   -1    0    0  502    0  0.00000000000E+00  0.00000000000E+00  0.26003377691E+03  0.26003377691E+03  0.00000000000E+00 0. -1.
         -4   -1    0    0    0  501 -0.00000000000E+00 -0.00000000000E+00 -0.14276572010E+03  0.14276572010E+03  0.00000000000E+00 0.  1.
         23    2    1    2    0    0  0.38189366750E+02  0.21545385973E+02 -0.78969390543E+02  0.12475572907E+03  0.86053447944E+02 0.  0.
        -24    2    1    2    0    0  0.88515987371E+01 -0.40646703601E+02  0.20698125267E+03  0.22614827564E+03  0.81063544841E+02 0.  0.
         11    1    4    4    0    0  0.36398679943E+02 -0.56303008043E+01  0.14631476880E+03  0.15087934172E+03  0.00000000000E+00 0. -1.
        -12    1    4    4    0    0 -0.27547081206E+02 -0.35016402796E+02  0.60666483873E+02  0.75268933919E+02  0.00000000000E+00 0.  1.
        -11    1    3    3    0    0 -0.16590719599E+02 -0.13954332354E+02 -0.47659130084E+02  0.52358075295E+02  0.00000000000E+00 0. -1.
         11    1    3    3    0    0  0.54780086349E+02  0.35499718327E+02 -0.31310260458E+02  0.72397653772E+02  0.00000000000E+00 0.  1.
         21    1    1    2  502  501 -0.47040965487E+02  0.19101317627E+02 -0.10743805326E+02  0.51895492309E+02  0.00000000000E+00 0. -1.
<scales pt_clust_5="13000.00000" pt_clust_6="13000.00000" pt_clust_7="13000.00000" pt_clust_8="13000.00000" pt_clust_9="50.77118"></scales>
<clustering>
<clus scale="   50.771">  2  9  1 -1</clus>
<clus scale="   81.064">  5  6 -1 -1</clus>
<clus scale="   86.053">  7  8 -1 -1</clus>
<clus scale="   90.087">  1  5  2 -1</clus>
<clus scale="   90.087">  1  5  2 -1</clus>
</clustering>
</event>
<event>
 9    1  0.6106093E-005  0.4172781E+03  0.7546771E-02  0.1037973E+00
          1   -1    0    0  502    0  0.00000000000E+00  0.00000000000E+00  0.93781770597E+03  0.93781770597E+03  0.00000000000E+00 0. -1.
         -2   -1    0    0    0  501 -0.00000000000E+00 -0.00000000000E+00 -0.42603181052E+03  0.42603181052E+03  0.00000000000E+00 0.  1.
        -24    2    1    2    0    0 -0.43338573031E+03  0.70315015478E+02 -0.20246571951E+03  0.49220930159E+03  0.92250942324E+02 0.  0.
         23    2    1    2    0    0  0.38935213727E+03 -0.10023925746E+03  0.70628171531E+03  0.81780772588E+03  0.91283183496E+02 0.  0.
         11    1    3    3    0    0 -0.37113991795E+02  0.32086820115E+02 -0.10236019923E+02  0.50117746517E+02  0.00000000000E+00 0. -1.
        -12    1    3    3    0    0 -0.39627173851E+03  0.38228195363E+02 -0.19222969958E+03  0.44209155507E+03  0.00000000000E+00 0.  1.
        -11    1    4    4    0    0  0.33302809413E+03 -0.60709594595E+02  0.53358586065E+03  0.63190761749E+03  0.00000000000E+00 0. -1.
         11    1    4    4    0    0  0.56324043144E+02 -0.39529662861E+02  0.17269585466E+03  0.18590010839E+03  0.00000000000E+00 0.  1.
         21    1    1    2  502  501  0.44033593035E+02  0.29924241978E+02  0.79698996526E+01  0.53832489019E+02  0.00000000000E+00 0. -1.
<scales pt_clust_5="13000.00000" pt_clust_6="13000.00000" pt_clust_7="13000.00000" pt_clust_8="13000.00000" pt_clust_9="53.23925"></scales>
<clustering>
<clus scale="   53.239">  2  9  1 -1</clus>
<clus scale="   91.283">  7  8 -1 -1</clus>
<clus scale="   92.251">  5  6 -1 -1</clus>
<clus scale="  417.065">  1  7  2 -1</clus>
<clus scale="  417.065">  1  5  2 -1</clus>
</clustering>
</event>
<event>
 9    1  0.6106093E-005  0.9659857E+02  0.7546771E-02  0.1293593E+00
          3   -1    0    0  502    0  0.00000000000E+00  0.00000000000E+00  0.41069719739E+03  0.41069719739E+03  0.00000000000E+00 0. -1.
         -4   -1    0    0    0  501 -0.00000000000E+00 -0.00000000000E+00 -0.30998147014E+02  0.30998147014E+02  0.00000000000E+00 0.  1.
        -24    2    1    2    0    0 -0.22158969313E+01 -0.19810561162E+02  0.85717097890E+02  0.11877130242E+03  0.79761098756E+02 0.  0.
         23    2    1    2    0    0 -0.79666716302E+01  0.39616552685E+02  0.27881958745E+03  0.29598226557E+03  0.90731472409E+02 0.  0.
         11    1    3    3    0    0  0.97340685789E+01  0.29709591972E+02  0.33462568655E+02  0.45794709818E+02  0.00000000000E+00 0. -1.
        -12    1    3    3    0    0 -0.11949965510E+02 -0.49520153135E+02  0.52254529234E+02  0.72976592601E+02  0.00000000000E+00 0.  1.
        -11    1    4    4    0    0  0.26212819164E+02 -0.16662559435E+02  0.61375327378E+02  0.68787234180E+02  0.00000000000E+00 0.  1.
         11    1    4    4    0    0 -0.34179490794E+02  0.56279112120E+02  0.21744426007E+03  0.22719503139E+03  0.00000000000E+00 0. -1.
         21    1    1    2  502  501  0.10182568561E+02 -0.19805991523E+02  0.15162365038E+02  0.26941776412E+02  0.00000000000E+00 0. -1.
<scales pt_clust_5="13000.00000" pt_clust_6="13000.00000" pt_clust_7="13000.00000" pt_clust_8="13000.00000" pt_clust_9="22.27020"></scales>
<clustering>
<clus scale="   22.270">  2  9  1 -1</clus>
<clus scale="   79.761">  5  6 -1 -1</clus>
<clus scale="   86.377">  2  5  1 -1</clus>
<clus scale="   90.731">  7  8 -1 -1</clus>
<clus scale="   96.599">  1  5  2 -1</clus>
</clustering>
</event>
<event>
 9    1  0.6106093E-005  0.1063412E+03  0.7546771E-02  0.1272927E+00
          1   -1    0    0  502    0  0.00000000000E+00  0.00000000000E+00  0.19905524310E+03  0.19905524310E+03  0.00000000000E+00 0. -1.
         -2   -1    0    0    0  501 -0.00000000000E+00 -0.00000000000E+00 -0.12078034082E+03  0.12078034082E+03  0.00000000000E+00 0.  1.
         23    2    1    2    0    0 -0.25183148786E+02  0.62518757754E+02 -0.48232667194E+02  0.12342600971E+03  0.91459300432E+02 0.  0.
        -24    2    1    2    0    0  0.42742929250E+01 -0.52284300488E+02  0.14034330215E+03  0.16932910398E+03  0.78893506310E+02 0.  0.
         13    1    4    4    0    0 -0.21223076378E+02 -0.63035049314E+02  0.10714727291E+03  0.12611254698E+03  0.00000000000E+00 0. -1.
        -14    1    4    4    0    0  0.25497369303E+02  0.10750748825E+02  0.33196029241E+02  0.43216557002E+02  0.00000000000E+00 0.  1.
        -11    1    3    3    0    0 -0.42779165797E+02 -0.56478153828E+01 -0.16384915010E+02  0.46156476087E+02  0.00000000000E+00 0. -1.
         11    1    3    3    0    0  0.17596017011E+02  0.68166573137E+02 -0.31847752184E+02  0.77269533627E+02  0.00000000000E+00 0.  1.
         21    1    1    2  502  501  0.20908855861E+02 -0.10234457265E+02 -0.13835732681E+02  0.27080470228E+02  0.00000000000E+00 0.  1.
<scales pt_clust_5="13000.00000" pt_clust_6="13000.00000" pt_clust_7="13000.00000" pt_clust_8="13000.00000" pt_clust_9="23.27927"></scales>
<clustering>
<clus scale="   23.279">  2  9  1 -1</clus>
<clus scale="   78.894">  5  6 -1 -1</clus>
<clus scale="   91.459">  7  8 -1 -1</clus>
<clus scale="   95.749">  1  5  2 -1</clus>
<clus scale="   95.749">  1  5  2 -1</clus>
</clustering>
</event>
<event>
 9    1  0.6106093E-005  0.4171504E+03  0.7546771E-02  0.1038160E+00
          1   -1    0    0  502    0  0.00000000000E+00  0.00000000000E+00  0.97962595438E+03  0.97962595438E+03  0.00000000000E+00 0. -1.
         -2   -1    0    0    0  501 -0.00000000000E+00 -0.00000000000E+00 -0.20078083623E+03  0.20078083623E+03  0.00000000000E+00 0.  1.
         23    2    1    2    0    0 -0.40274504032E+03 -0.40096328900E+02  0.30507315272E+03  0.51479801941E+03  0.90200272650E+02 0.  0.
        -24    2    1    2    0    0  0.40247736517E+03  0.77982972563E+02  0.46786016080E+03  0.62726273031E+03  0.80597948386E+02 0.  0.
         13    1    4    4    0    0  0.15801834778E+03  0.17839010204E+02  0.23878634213E+03  0.28689187111E+03  0.00000000000E+00 0. -1.
        -14    1    4    4    0    0  0.24445901739E+03  0.60143962360E+02  0.22907381867E+03  0.34037085920E+03  0.00000000000E+00 0.  1.
        -11    1    3    3    0    0 -0.98865095664E+02  0.23986212102E+02  0.52420881521E+02  0.11444472173E+03  0.00000000000E+00 0.  1.
         11    1    3    3    0    0 -0.30387994466E+03 -0.64082541002E+02  0.25265227120E+03  0.40035329768E+03  0.00000000000E+00 0. -1.
         21    1    1    2  502  501  0.26767514638E+00 -0.37886643663E+02  0.59118046385E+01  0.38346040893E+02  0.00000000000E+00 0.  1.
<scales pt_clust_5="13000.00000" pt_clust_6="13000.00000" pt_clust_7="13000.00000" pt_clust_8="13000.00000" pt_clust_9="37.88759"></scales>
<clustering>
<clus scale="   37.888">  2  9  1 -1</clus>
<clus scale="   80.598">  5  6 -1 -1</clus>
<clus scale="   90.200">  7  8 -1 -1</clus>
<clus scale="  415.180">  1  5  2 -1</clus>
<clus scale="  415.180">  1  5  2 -1</clus>
</clustering>
</event>
<event>
 9    1  0.6106093E-005  0.1117453E+03  0.7546771E-02  0.1261651E+00
         -2   -1    0    0    0  501 -0.00000000000E+00  0.00000000000E+00  0.37547254331E+03  0.37547254331E+03  0.00000000000E+00 0.  1.
          1   -1    0    0  502    0  0.00000000000E+00 -0.00000000000E+00 -0.53686913008E+02  0.53686913008E+02  0.00000000000E+00 0. -1.
        -24    2    1    2    0    0  0.43639147088E+02 -0.38544498697E+02  0.16615151364E+03  0.19355700638E+03  0.80423477285E+02 0.  0.
         23    2    1    2    0    0 -0.65289400085E+02  0.20280353583E+02  0.47509972090E+02  0.12382972029E+03  0.91665717007E+02 0.  0.
         13    1    3    3    0    0  0.23980306562E+02  0.11522801397E+02  0.11928214489E+03  0.12221317500E+03  0.00000000000E+00 0. -1.
        -14    1    3    3    0    0  0.19658840526E+02 -0.50067300094E+02  0.46869368747E+02  0.71343831382E+02  0.00000000000E+00 0.  1.
        -13    1    4    4    0    0  0.22868685566E+02 -0.15264112108E+01  0.14900840261E+02  0.27337552033E+02  0.00000000000E+00 0.  1.
         13    1    4    4    0    0 -0.88158085650E+02  0.21806764793E+02  0.32609131829E+02  0.96492168257E+02  0.00000000000E+00 0. -1.
         21    1    1    2  502  501  0.21650252996E+02  0.18264145114E+02  0.10812414458E+03  0.11177272965E+03  0.00000000000E+00 0.  1.
<scales pt_clust_5="13000.00000" pt_clust_6="13000.00000" pt_clust_7="13000.00000" pt_clust_8="13000.00000" pt_clust_9="28.32512"></scales>
<clustering>
<clus scale="   28.325">  1  9  2 -1</clus>
<clus scale="   80.423">  5  6 -1 -1</clus>
<clus scale="   91.666">  7  8 -1 -1</clus>
<clus scale="  102.725">  1  5  2 -1</clus>
<clus scale="  111.745">  2  5  1 -1</clus>
</clustering>
</event>
<event>
 9    1  0.6106093E-005  0.1204512E+03  0.7546771E-02  0.1244982E+00
          1   -1    0    0  502    0  0.00000000000E+00  0.00000000000E+00  0.22606928976E+03  0.22606928976E+03  0.00000000000E+00 0. -1.
         -2   -1    0    0    0  501 -0.00000000000E+00 -0.00000000000E+00 -0.12301699134E+03  0.12301699134E+03  0.00000000000E+00 0.  1.
        -24    2    1    2    0    0 -0.37787605532E+02 -0.54551430561E+02 -0.58456552687E+02  0.11903041893E+03  0.79670009225E+02 0.  0.
         23    2    1    2    0    0  0.38368189935E+02  0.76420360826E+02  0.16710982619E+03  0.20747361004E+03  0.88359579600E+02 0.  0.
         13    1    3    3    0    0  0.24782150166E+01 -0.31632521177E+02 -0.64911501656E+02  0.72251373640E+02  0.00000000000E+00 0. -1.
        -14    1    3    3    0    0 -0.40265820549E+02 -0.22918909384E+02  0.64549489691E+01  0.46779045287E+02  0.00000000000E+00 0.  1.
        -11    1    4    4    0    0  0.55341121862E+02  0.19688760811E+02  0.11254343347E+03  0.12695003540E+03  0.00000000000E+00 0. -1.
         11    1    4    4    0    0 -0.16972931928E+02  0.56731600015E+02  0.54566392721E+02  0.80523574642E+02  0.00000000000E+00 0.  1.
         21    1    1    2  502  501 -0.58058440272E+00 -0.21868930265E+02 -0.56009750938E+01  0.22582252128E+02  0.00000000000E+00 0. -1.
<scales pt_clust_5="13000.00000" pt_clust_6="13000.00000" pt_clust_7="13000.00000" pt_clust_8="13000.00000" pt_clust_9="21.87664"></scales>
<clustering>
<clus scale="   21.877">  2  9  1 -1</clus>
<clus scale="   79.670">  5  6 -1 -1</clus>
<clus scale="   88.360">  7  8 -1 -1</clus>
<clus scale="  114.229">  2  5  1 -1</clus>
<clus scale="  120.451">  1  5  2 -1</clus>
</clustering>
</event>
<event>
 9    1  0.6106093E-005  0.9273317E+02  0.7546771E-02  0.1303035E+00
         -2   -1    0    0    0  501 -0.00000000000E+00  0.00000000000E+00  0.57276540286E+02  0.57276540286E+02  0.00000000000E+00 0.  1.
          1   -1    0    0  502    0  0.00000000000E+00 -0.00000000000E+00 -0.25091224772E+03  0.25091224772E+03  0.00000000000E+00 0. -1.
         23    2    1    2    0    0  0.14410403919E+02 -0.37954559552E+01 -0.11650267541E+02  0.94330419955E+02  0.92414469474E+02 0.  0.
        -24    2    1    2    0    0  0.11574783352E+02 -0.94027490107E+01 -0.13999553034E+03  0.16274501288E+03  0.81638247196E+02 0.  0.
         11    1    4    4    0    0  0.45778799058E+02 -0.85091025339E+01 -0.61686387709E+02  0.77287215616E+02  0.00000000000E+00 0. -1.
        -12    1    4    4    0    0 -0.34204015706E+02 -0.89364647681E+00 -0.78309142628E+02  0.85457797266E+02  0.00000000000E+00 0.  1.
        -11    1    3    3    0    0  0.17004030283E+02 -0.44713046566E+02 -0.21055246137E+02  0.52265829841E+02  0.00000000000E+00 0. -1.
         11    1    3    3    0    0 -0.25936263641E+01  0.40917590611E+02  0.94049785964E+01  0.42064590115E+02  0.00000000000E+00 0.  1.
         21    1    1    2  502  501 -0.25985187271E+02  0.13198204966E+02 -0.41989909556E+02  0.51113355166E+02  0.00000000000E+00 0.  1.
<scales pt_clust_5="13000.00000" pt_clust_6="13000.00000" pt_clust_7="13000.00000" pt_clust_8="13000.00000" pt_clust_9="29.14485"></scales>
<clustering>
<clus scale="   29.145">  2  9  1 -1</clus>
<clus scale="   81.638">  5  6 -1 -1</clus>
<clus scale="   81.999">  2  5  1 -1</clus>
<clus scale="   92.414">  7  8 -1 -1</clus>
<clus scale="   29.145">  2  5  1 -1</clus>
</clustering>
</event>
<event>
 9    1  0.6106093E-005  0.5488116E+03  0.7546771E-02  0.1001873E+00
         -2   -1    0    0    0  501 -0.00000000000E+00  0.00000000000E+00  0.19439959644E+03  0.19439959644E+03  0.00000000000E+00 0.  1.
          1   -1    0    0  502    0  0.00000000000E+00 -0.00000000000E+00 -0.18117320863E+04  0.18117320863E+04  0.00000000000E+00 0. -1.
        -24    2    1    2    0    0 -0.49881203256E+03  0.21257437935E+03 -0.64604661888E+03  0.84728599006E+03  0.80721772892E+02 0.  0.
         23    2    1    2    0    0  0.50504550570E+03 -0.19220544646E+03 -0.98925546543E+03  0.11309771452E+04  0.92027336511E+02 0.  0.
         13    1    3    3    0    0 -0.31962945305E+03  0.16432057173E+03 -0.46842555524E+03  0.59041234604E+03  0.00000000000E+00 0. -1.
        -14    1    3    3    0    0 -0.17918257951E+03  0.48253807625E+02 -0.17762106363E+03  0.25687364403E+03  0.00000000000E+00 0.  1.
        -13    1    4    4    0    0  0.39039882357E+03 -0.18822209722E+03 -0.78797366071E+03  0.89930044440E+03  0.00000000000E+00 0.  1.
         13    1    4    4    0    0  0.11464668213E+03 -0.39833492452E+01 -0.20128180472E+03  0.23167670082E+03  0.00000000000E+00 0. -1.
         21    1    1    2  502  501 -0.62334731408E+01 -0.20368932889E+02  0.17969594421E+02  0.27868547471E+02  0.00000000000E+00 0.  1.
<scales pt_clust_5="13000.00000" pt_clust_6="13000.00000" pt_clust_7="13000.00000" pt_clust_8="13000.00000" pt_clust_9="21.30140"></scales>
<clustering>
<clus scale="   21.301">  1  9  2 -1</clus>
<clus scale="   80.722">  5  6 -1 -1</clus>
<clus scale="   92.027">  7  8 -1 -1</clus>
<clus scale="  547.029">  1  5  2 -1</clus>
<clus scale="  548.812">  2  5  1 -1</clus>
</clustering>
</event>
<event>
 9    1  0.6106093E-005  0.1049531E+03  0.7546771E-02  0.1274488E+00
         -2   -1    0    0    0  501 -0.00000000000E+00  0.00000000000E+00  0.29315430314E+02  0.29315430314E+02  0.00000000000E+00 0.  1.
          1   -1    0    0  502    0  0.00000000000E+00 -0.00000000000E+00 -0.73863716466E+03  0.73863716466E+03  0.00000000000E+00 0. -1.
         23    2    1    2    0    0 -0.28289521872E+01 -0.47323202408E+02 -0.17144476407E+03  0.19956056681E+03  0.90463386201E+02 0.  0.
        -24    2    1    2    0    0 -0.22123891078E+02  0.51815100538E+02 -0.53369880629E+03  0.54269614152E+03  0.80687142599E+02 0.  0.
         13    1    4    4    0    0  0.19403616975E+02  0.52565270782E+02 -0.27074330676E+03  0.27648064345E+03  0.00000000000E+00 0. -1.
        -14    1    4    4    0    0 -0.41527508052E+02 -0.75017024425E+00 -0.26295549953E+03  0.26621549807E+03  0.00000000000E+00 0.  1.
        -11    1    3    3    0    0  0.26800172958E+02 -0.72132376137E+01 -0.13492855275E+03  0.13775338259E+03  0.00000000000E+00 0. -1.
         11    1    3    3    0    0 -0.29629125145E+02 -0.40109964794E+02 -0.36516211324E+02  0.61807184228E+02  0.00000000000E+00 0.  1.
         21    1    1    2  502  501  0.24952843265E+02 -0.44918981299E+01 -0.41781639766E+01  0.25695886636E+02  0.00000000000E+00 0. -1.
<scales pt_clust_5="13000.00000" pt_clust_6="13000.00000" pt_clust_7="13000.00000" pt_clust_8="13000.00000" pt_clust_9="25.35393"></scales>
<clustering>
<clus scale="   25.354">  1  9  2 -1</clus>
<clus scale="   80.687">  5  6 -1 -1</clus>
<clus scale="   90.463">  7  8 -1 -1</clus>
<clus scale="   96.654">  2  5  1 -1</clus>
<clus scale="   96.654">  2  5  1 -1</clus>
</clustering>
</event>
<event>
 9    1  0.6106093E-005  0.1065249E+03  0.7546771E-02  0.1277225E+00
          1   -1    0    0  502    0  0.00000000000E+00  0.00000000000E+00  0.50258321256E+02  0.50258321256E+02  0.00000000000E+00 0. -1.
         -2   -1    0    0    0  501 -0.00000000000E+00 -0.00000000000E+00 -0.35393730847E+03  0.35393730847E+03  0.00000000000E+00 0.  1.
        -24    2    1    2    0    0  0.24447053531E+02 -0.45615421022E+02 -0.14466560071E+03  0.16891089411E+03  0.70173563835E+02 0.  0.
         23    2    1    2    0    0 -0.61619239181E+02  0.92035175325E+01 -0.68746560139E+02  0.13109405443E+03  0.92617094560E+02 0.  0.
         11    1    3    3    0    0  0.36185152186E+02  0.23845592748E+01 -0.77112727448E+02  0.85213990026E+02  0.00000000000E+00 0. -1.
        -12    1    3    3    0    0 -0.11738098655E+02 -0.47999980296E+02 -0.67552873257E+02  0.83696904087E+02  0.00000000000E+00 0.  1.
        -13    1    4    4    0    0  0.12422580217E+02 -0.21841005919E+02 -0.37072587354E+02  0.44785341038E+02  0.00000000000E+00 0.  1.
         13    1    4    4    0    0 -0.74041819398E+02  0.31044523451E+02 -0.31673972785E+02  0.86308713396E+02  0.00000000000E+00 0. -1.
         21    1    1    2  502  501  0.37172185650E+02  0.36411903489E+02 -0.90266826366E+02  0.10419068118E+03  0.00000000000E+00 0.  1.
<scales pt_clust_5="13000.00000" pt_clust_6="13000.00000" pt_clust_7="13000.00000" pt_clust_8="13000.00000" pt_clust_9="52.03459"></scales>
<clustering>
<clus scale="   52.035">  2  9  1 -1</clus>
<clus scale="   70.174">  5  6 -1 -1</clus>
<clus scale="   87.715">  2  5  1 -1</clus>
<clus scale="   92.617">  7  8 -1 -1</clus>
<clus scale="  106.525">  1  5  2 -1</clus>
</clustering>
</event>
<event>
 9    1  0.6106093E-005  0.9406707E+02  0.7546771E-02  0.1298932E+00
         -2   -1    0    0    0  501 -0.00000000000E+00  0.00000000000E+00  0.24946987888E+02  0.24946987888E+02  0.00000000000E+00 0.  1.
          1   -1    0    0  502    0  0.00000000000E+00 -0.00000000000E+00 -0.81954050027E+03  0.81954050027E+03  0.00000000000E+00 0. -1.
        -24    2    1    2    0    0 -0.44644031041E+01 -0.19715140540E+02 -0.11247868512E+03  0.13965859694E+03  0.80277340707E+02 0.  0.
         23    2    1    2    0    0  0.64253105384E+02  0.29023173671E+02 -0.50022539347E+03  0.51313879099E+03  0.90084229388E+02 0.  0.
         11    1    3    3    0    0 -0.25439941885E+02 -0.29129820238E+02 -0.10991983252E+03  0.11652513313E+03  0.00000000000E+00 0. -1.
        -12    1    3    3    0    0  0.20975538781E+02  0.94146796986E+01 -0.25588525974E+01  0.23133463804E+02  0.00000000000E+00 0.  1.
        -13    1    4    4    0    0 -0.21798241185E+02  0.16475605536E+02 -0.12937622849E+03  0.13223016825E+03  0.00000000000E+00 0.  1.
         13    1    4    4    0    0  0.86051346569E+02  0.12547568135E+02 -0.37084916498E+03  0.38090862274E+03  0.00000000000E+00 0. -1.
         21    1    1    2  502  501 -0.59788702280E+02 -0.93080331315E+01 -0.18188943380E+03  0.19169010023E+03  0.00000000000E+00 0. -1.
<scales pt_clust_5="13000.00000" pt_clust_6="13000.00000" pt_clust_7="13000.00000" pt_clust_8="13000.00000" pt_clust_9="60.50891"></scales>
<clustering>
<clus scale="   60.509">  2  9  1 -1</clus>
<clus scale="   80.277">  5  6 -1 -1</clus>
<clus scale="   84.722">  1  5  2 -1</clus>
<clus scale="   90.084">  7  8 -1 -1</clus>
<clus scale="   60.509">  2  5  1 -1</clus>
</clustering>
</event>
<event>
 9    1  0.6106093E-005  0.9446996E+02  0.7546771E-02  0.1300038E+00
         -2   -1    0    0    0  501 -0.00000000000E+00  0.00000000000E+00  0.23870412683E+03  0.23870412683E+03  0.00000000000E+00 0.  1.
          1   -1    0    0  502    0  0.00000000000E+00 -0.00000000000E+00 -0.12411931932E+03  0.12411931932E+03  0.00000000000E+00 0. -1.
         23    2    1    2    0    0  0.28830248637E+02  0.32855878653E+02  0.17972725668E+03  0.20673022746E+03  0.92329887652E+02 0.  0.
        -24    2    1    2    0    0  0.79613820217E+01 -0.18166436924E+02 -0.79313018021E+02  0.11401936925E+03  0.79476151781E+02 0.  0.
         13    1    4    4    0    0  0.21033109449E+02  0.71358290809E+01 -0.82430046370E+02  0.85369926171E+02  0.00000000000E+00 0. -1.
        -14    1    4    4    0    0 -0.13071727427E+02 -0.25302266005E+02  0.31170283496E+01  0.28649443077E+02  0.00000000000E+00 0.  1.
        -11    1    3    3    0    0 -0.29949879219E+02 -0.68969733544E+01  0.45629077756E+02  0.55014327621E+02  0.00000000000E+00 0. -1.
         11    1    3    3    0    0  0.58780127857E+02  0.39752852008E+02  0.13409817892E+03  0.15171589984E+03  0.00000000000E+00 0.  1.
         21    1    1    2  502  501 -0.36791630659E+02 -0.14689441729E+02  0.14170568852E+02  0.42073849437E+02  0.00000000000E+00 0. -1.
<scales pt_clust_5="13000.00000" pt_clust_6="13000.00000" pt_clust_7="13000.00000" pt_clust_8="13000.00000" pt_clust_9="39.61570"></scales>
<clustering>
<clus scale="   39.616">  1  9  2 -1</clus>
<clus scale="   79.476">  5  6 -1 -1</clus>
<clus scale="   81.953">  2  5  1 -1</clus>
<clus scale="   92.330">  7  8 -1 -1</clus>
<clus scale="   81.953">  2  5  1 -1</clus>
</clustering>
</event>
<event>
 9    1  0.6106093E-005  0.5275881E+03  0.7546771E-02  0.1057111E+00
          1   -1    0    0  502    0  0.00000000000E+00  0.00000000000E+00  0.27254398307E+04  0.27254398307E+04  0.00000000000E+00 0. -1.
         -2   -1    0    0    0  501 -0.00000000000E+00 -0.00000000000E+00 -0.29626764049E+03  0.29626764049E+03  0.00000000000E+00 0.  1.
         23    2    1    2    0    0  0.20098859835E+03  0.42850553317E+03  0.21614196733E+04  0.22147612150E+04  0.97050640778E+02 0.  0.
        -24    2    1    2    0    0 -0.47366053032E+02  0.73162118985E+02  0.25572711293E+03  0.28214636101E+03  0.81326343263E+02 0.  0.
         11    1    4    4    0    0 -0.21731624083E+02  0.79153303954E+02  0.13039293798E+03  0.15407734190E+03  0.00000000000E+00 0. -1.
        -12    1    4    4    0    0 -0.25634428949E+02 -0.59911849696E+01  0.12533417495E+03  0.12806901910E+03  0.00000000000E+00 0.  1.
        -13    1    3    3    0    0  0.32419574844E+02  0.12377341504E+03  0.76160469965E+03  0.77227754444E+03  0.00000000000E+00 0. -1.
         13    1    3    3    0    0  0.16856902351E+03  0.30473211813E+03  0.13998149736E+04  0.14424836706E+04  0.00000000000E+00 0.  1.
         21    1    1    2  502  501 -0.15362254532E+03 -0.50166765216E+03  0.12025404032E+02  0.52479989519E+03  0.00000000000E+00 0.  1.
<scales pt_clust_5="13000.00000" pt_clust_6="13000.00000" pt_clust_7="13000.00000" pt_clust_8="13000.00000" pt_clust_9="518.58495"></scales>
<clustering>
<clus scale="   81.326">  5  6 -1 -1</clus>
<clus scale="   97.051">  7  8 -1 -1</clus>
<clus scale="  119.207">  1  5  2 -1</clus>
<clus scale="  518.585">  2  9  1 -1</clus>
<clus scale="  119.207">  1  5  2 -1</clus>
</clustering>
</event>
<event>
 9    1  0.6106093E-005  0.1172132E+03  0.7546771E-02  0.1251998E+00
         -2   -1    0    0    0  501 -0.00000000000E+00  0.00000000000E+00  0.42629090748E+03  0.42629090748E+03  0.00000000000E+00 0.  1.
          1   -1    0    0  502    0  0.00000000000E+00 -0.00000000000E+00 -0.93236947867E+02  0.93236947867E+02  0.00000000000E+00 0. -1.
        -24    2    1    2    0    0  0.58028678098E+02 -0.10487151157E+03  0.21743783379E+03  0.26076005718E+03  0.79694632437E+02 0.  0.
         23    2    1    2    0    0 -0.23412732445E+02  0.58668105007E+02 -0.18057814819E+02  0.11315962230E+03  0.92135296476E+02 0.  0.
         11    1    3    3    0    0  0.28556161579E+01 -0.70105531813E+02  0.67980235338E+02  0.97694690393E+02  0.00000000000E+00 0. -1.
        -12    1    3    3    0    0  0.55173061940E+02 -0.34765979759E+02  0.14945759845E+03  0.16306536679E+03  0.00000000000E+00 0.  1.
        -11    1    4    4    0    0 -0.15243234967E+02  0.82060705474E+02 -0.25525959470E+02  0.87280525903E+02  0.00000000000E+00 0. -1.
         11    1    4    4    0    0 -0.81694974778E+01 -0.23392600467E+02  0.74681446506E+01  0.25879096394E+02  0.00000000000E+00 0.  1.
         21    1    1    2  502  501 -0.34615945653E+02  0.46203406564E+02  0.13367394065E+03  0.14560817587E+03  0.00000000000E+00 0. -1.
<scales pt_clust_5="13000.00000" pt_clust_6="13000.00000" pt_clust_7="13000.00000" pt_clust_8="13000.00000" pt_clust_9="57.73230"></scales>
<clustering>
<clus scale="   57.732">  1  9  2 -1</clus>
<clus scale="   79.695">  5  6 -1 -1</clus>
<clus scale="   92.135">  7  8 -1 -1</clus>
<clus scale="  107.709">  1  5  2 -1</clus>
<clus scale="  117.213">  2  5  1 -1</clus>
</clustering>
</event>
<event>
 9    1  0.6106093E-005  0.1412070E+03  0.7546771E-02  0.1233730E+00
         -2   -1    0    0    0  501 -0.00000000000E+00  0.00000000000E+00  0.19053427762E+03  0.19053427762E+03  0.00000000000E+00 0.  1.
          1   -1    0    0  502    0  0.00000000000E+00 -0.00000000000E+00 -0.16281235384E+03  0.16281235384E+03  0.00000000000E+00 0. -1.
        -24    2    1    2    0    0 -0.85451290200E+02  0.78319539862E+02  0.10024405321E+02  0.14140676797E+03  0.80371089362E+02 0.  0.
         23    2    1    2    0    0  0.68301353092E+01  0.75232954378E+01 -0.16447608387E+02  0.90629649337E+02  0.88543541802E+02 0.  0.
         11    1    3    3    0    0 -0.74484040776E+02  0.87680614988E+02  0.27958220422E+02  0.11839520541E+03  0.00000000000E+00 0. -1.
        -12    1    3    3    0    0 -0.10967249424E+02 -0.93610751260E+01 -0.17933815101E+02  0.23011562562E+02  0.00000000000E+00 0.  1.
        -13    1    4    4    0    0 -0.60140130582E+01  0.44947439060E+02 -0.22465557152E+02  0.50607725589E+02  0.00000000000E+00 0.  1.
         13    1    4    4    0    0  0.12844148367E+02 -0.37424143623E+02  0.60179487653E+01  0.40021923748E+02  0.00000000000E+00 0. -1.
         21    1    1    2  502  501  0.78621154891E+02 -0.85842835299E+02  0.34145126844E+02  0.12131021414E+03  0.00000000000E+00 0.  1.
<scales pt_clust_5="13000.00000" pt_clust_6="13000.00000" pt_clust_7="13000.00000" pt_clust_8="13000.00000" pt_clust_9="116.10294"></scales>
<clustering>
<clus scale="   80.371">  5  6 -1 -1</clus>
<clus scale="   88.544">  7  8 -1 -1</clus>
<clus scale="   89.125">  2  7  1 -1</clus>
<clus scale="  116.103">  1  9  2 -1</clus>
<clus scale="   89.125">  2  5  1 -1</clus>
</clustering>
</event>
<event>
 9    1  0.6106093E-005  0.2893783E+03  0.7546771E-02  0.1091027E+00
          1   -1    0    0  502    0  0.00000000000E+00  0.00000000000E+00  0.57816216484E+03  0.57816216484E+03  0.00000000000E+00 0. -1.
         -2   -1    0    0    0  501 -0.00000000000E+00 -0.00000000000E+00 -0.44776540952E+03  0.44776540952E+03  0.00000000000E+00 0.  1.
        -24    2    1    2    0    0  0.29787511711E+02 -0.26002626184E+03 -0.15893502096E+03  0.31688248513E+03  0.81567247086E+02 0.  0.
         23    2    1    2    0    0 -0.56369886340E+02  0.27158531458E+03  0.45518814718E+03  0.54067475303E+03  0.90536136747E+02 0.  0.
         11    1    3    3    0    0  0.48814092852E+02 -0.10474551384E+03 -0.87243195548E+02  0.14479576479E+03  0.00000000000E+00 0. -1.
        -12    1    3    3    0    0 -0.19026581142E+02 -0.15528074800E+03 -0.71691825410E+02  0.17208672035E+03  0.00000000000E+00 0.  1.
        -13    1    4    4    0    0 -0.48663230664E+02  0.81241224316E+02  0.10064978369E+03  0.13819777677E+03  0.00000000000E+00 0.  1.
         13    1    4    4    0    0 -0.77066556761E+01  0.19034409026E+03  0.35453836349E+03  0.40247697626E+03  0.00000000000E+00 0. -1.
         21    1    1    2  502  501  0.26582374630E+02 -0.11559052740E+02 -0.16585637090E+03  0.16837033620E+03  0.00000000000E+00 0.  1.
<scales pt_clust_5="13000.00000" pt_clust_6="13000.00000" pt_clust_7="13000.00000" pt_clust_8="13000.00000" pt_clust_9="28.98680"></scales>
<clustering>
<clus scale="   28.987">  2  9  1 -1</clus>
<clus scale="   81.567">  5  6 -1 -1</clus>
<clus scale="   90.536">  7  8 -1 -1</clus>
<clus scale="  286.699">  2  5  1 -1</clus>
<clus scale="  289.378">  1  5  2 -1</clus>
</clustering>
</event>
<event>
 9    1  0.6106093E-005  0.1515080E+03  0.7546771E-02  0.1207470E+00
          1   -1    0    0  502    0  0.00000000000E+00  0.00000000000E+00  0.48253128887E+03  0.48253128887E+03  0.00000000000E+00 0. -1.
         -2   -1    0    0    0  501 -0.00000000000E+00 -0.00000000000E+00 -0.59515586693E+02  0.59515586693E+02  0.00000000000E+00 0.  1.
         23    2    1    2    0    0  0.84078902914E+02  0.37989435673E+02  0.10318647333E+03  0.18055583210E+03  0.11593317510E+03 0.  0.
        -24    2    1    2    0    0 -0.75267082150E+02 -0.66387434318E+02  0.29952611334E+03  0.32548672412E+03  0.78442908642E+02 0.  0.
         11    1    4    4    0    0 -0.87102541196E+02 -0.60637898541E+02  0.29114580036E+03  0.30988656713E+03  0.00000000000E+00 0. -1.
        -12    1    4    4    0    0  0.11835459046E+02 -0.57495357773E+01  0.83803129845E+01  0.15600156993E+02  0.00000000000E+00 0.  1.
        -11    1    3    3    0    0  0.11261396820E+03  0.26799858926E+02  0.69535139817E+02  0.13503804628E+03  0.00000000000E+00 0. -1.
         11    1    3    3    0    0 -0.28535065289E+02  0.11189576747E+02  0.33651333514E+02  0.45517785821E+02  0.00000000000E+00 0.  1.
         21    1    1    2  502  501 -0.88118207641E+01  0.28397998645E+02  0.20303115508E+02  0.36004319346E+02  0.00000000000E+00 0.  1.
<scales pt_clust_5="13000.00000" pt_clust_6="13000.00000" pt_clust_7="13000.00000" pt_clust_8="13000.00000" pt_clust_9="29.73373"></scales>
<clustering>
<clus scale="   29.734">  2  9  1 -1</clus>
<clus scale="   78.443">  5  6 -1 -1</clus>
<clus scale="  115.933">  7  8 -1 -1</clus>
<clus scale="  125.170">  1  5  2 -1</clus>
<clus scale="  125.170">  1  5  2 -1</clus>
</clustering>
</event>
<event>
 9    1  0.6106093E-005  0.1582415E+03  0.7546771E-02  0.1192288E+00
         -2   -1    0    0    0  501 -0.00000000000E+00  0.00000000000E+00  0.18667384216E+03  0.18667384216E+03  0.00000000000E+00 0.  1.
          1   -1    0    0  502    0  0.00000000000E+00 -0.00000000000E+00 -0.33191777620E+03  0.33191777620E+03  0.00000000000E+00 0. -1.
         23    2    1    2    0    0 -0.83559237536E+02 -0.16118869782E+02 -0.23635238555E+02  0.12757110673E+03  0.92053238022E+02 0.  0.
        -24    2    1    2    0    0  0.15730958640E+03 -0.14429963425E+02 -0.20769253026E+03  0.27362046147E+03  0.82325208719E+02 0.  0.
         13    1    4    4    0    0  0.10629844558E+03  0.32759644137E+01 -0.18828181686E+03  0.21624091665E+03  0.00000000000E+00 0. -1.
        -14    1    4    4    0    0  0.51011140821E+02 -0.17705927839E+02 -0.19410713402E+02  0.57379544816E+02  0.00000000000E+00 0.  1.
        -13    1    3    3    0    0 -0.20873645334E+02  0.30161298476E+02 -0.32683587143E+02  0.49128707125E+02  0.00000000000E+00 0.  1.
         13    1    3    3    0    0 -0.62685592202E+02 -0.46280168258E+02  0.90483485872E+01  0.78442399605E+02  0.00000000000E+00 0. -1.
         21    1    1    2  502  501 -0.73750348863E+02  0.30548833207E+02  0.86083834776E+02  0.11740005016E+03  0.00000000000E+00 0.  1.
<scales pt_clust_5="13000.00000" pt_clust_6="13000.00000" pt_clust_7="13000.00000" pt_clust_8="13000.00000" pt_clust_9="79.82697"></scales>
<clustering>
<clus scale="   79.827">  1  9  2 -1</clus>
<clus scale="   82.325">  5  6 -1 -1</clus>
<clus scale="   92.053">  7  8 -1 -1</clus>
<clus scale="  152.787">  2  5  1 -1</clus>
<clus scale="  152.787">  2  5  1 -1</clus>
</clustering>
</event>
<event>
 9    1  0.6106093E-005  0.9814658E+02  0.7546771E-02  0.1287262E+00
          1   -1    0    0  502    0  0.00000000000E+00  0.00000000000E+00  0.13019561867E+03  0.13019561867E+03  0.00000000000E+00 0. -1.
         -2   -1    0    0    0  501 -0.00000000000E+00 -0.00000000000E+00 -0.19267447914E+03  0.19267447914E+03  0.00000000000E+00 0.  1.
        -24    2    1    2    0    0 -0.27471082248E+02 -0.42761883545E+02 -0.11192010350E+03  0.15094579778E+03  0.87608705376E+02 0.  0.
         23    2    1    2    0    0  0.13360753845E+02  0.23366894021E+02  0.84968477528E+02  0.12905879668E+03  0.93338145194E+02 0.  0.
         13    1    3    3    0    0 -0.15444535594E+02 -0.21266544085E+02  0.88164883817E+01  0.27722374437E+02  0.00000000000E+00 0. -1.
        -14    1    3    3    0    0 -0.12026546654E+02 -0.21495339460E+02 -0.12073659188E+03  0.12322342335E+03  0.00000000000E+00 0.  1.
        -11    1    4    4    0    0 -0.26210650267E+02  0.26665442959E+02  0.24348441103E+01  0.37469621047E+02  0.00000000000E+00 0.  1.
         11    1    4    4    0    0  0.39571404112E+02 -0.32985489378E+01  0.82533633418E+02  0.91589175635E+02  0.00000000000E+00 0. -1.
         21    1    1    2  502  501  0.14110328402E+02  0.19394989524E+02 -0.35527234493E+02  0.42865503345E+02  0.00000000000E+00 0. -1.
<scales pt_clust_5="13000.00000" pt_clust_6="13000.00000" pt_clust_7="13000.00000" pt_clust_8="13000.00000" pt_clust_9="23.98472"></scales>
<clustering>
<clus scale="   23.985">  2  9  1 -1</clus>
<clus scale="   87.609">  5  6 -1 -1</clus>
<clus scale="   92.715">  2  5  1 -1</clus>
<clus scale="   93.338">  7  8 -1 -1</clus>
<clus scale="   98.147">  1  5  2 -1</clus>
</clustering>
</event>
<event>
 9    1  0.6106093E-005  0.1179308E+03  0.7546771E-02  0.1249366E+00
         -2   -1    0    0    0  501 -0.00000000000E+00  0.00000000000E+00  0.13147897765E+03  0.13147897765E+03  0.00000000000E+00 0.  1.
          1   -1    0    0  502    0  0.00000000000E+00 -0.00000000000E+00 -0.37344924809E+03  0.37344924809E+03  0.00000000000E+00 0. -1.
         23    2    1    2    0    0  0.42960745275E+02 -0.84955685270E+01  0.41143752144E+02  0.10533275260E+03  0.86512311907E+02 0.  0.
        -24    2    1    2    0    0 -0.84632531979E+02  0.90243074299E+01 -0.32239892303E+03  0.34232313448E+03  0.77459403823E+02 0.  0.
         13    1    4    4    0    0 -0.59402045312E+02 -0.47753352313E+01 -0.30002669822E+03  0.30588793121E+03  0.00000000000E+00 0. -1.
        -14    1    4    4    0    0 -0.25230486667E+02  0.13799642661E+02 -0.22372224808E+02  0.36435203278E+02  0.00000000000E+00 0.  1.
        -11    1    3    3    0    0 -0.55769923298E+01 -0.36834728267E+02  0.29348200752E+01  0.37369950746E+02  0.00000000000E+00 0. -1.
         11    1    3    3    0    0  0.48537737604E+02  0.28339159740E+02  0.38208932069E+02  0.67962801858E+02  0.00000000000E+00 0.  1.
         21    1    1    2  502  501  0.41671786704E+02 -0.52873890285E+00  0.39284900445E+02  0.57272338654E+02  0.00000000000E+00 0.  1.
<scales pt_clust_5="13000.00000" pt_clust_6="13000.00000" pt_clust_7="13000.00000" pt_clust_8="13000.00000" pt_clust_9="41.67514"></scales>
<clustering>
<clus scale="   41.675">  1  9  2 -1</clus>
<clus scale="   77.459">  5  6 -1 -1</clus>
<clus scale="   86.512">  7  8 -1 -1</clus>
<clus scale="  111.460">  2  5  1 -1</clus>
<clus scale="  111.460">  2  5  1 -1</clus>
</clustering>
</event>
<event>
 9    1  0.6106093E-005  0.1056724E+03  0.7546771E-02  0.1274339E+00
         -2   -1    0    0    0  501 -0.00000000000E+00  0.00000000000E+00  0.52249735279E+02  0.52249735279E+02  0.00000000000E+00 0.  1.
          1   -1    0    0  502    0  0.00000000000E+00 -0.00000000000E+00 -0.41525755847E+03  0.41525755847E+03  0.00000000000E+00 0. -1.
        -24    2    1    2    0    0 -0.79790355965E+02 -0.30263843752E+02 -0.12695629317E+03  0.17227954105E+03  0.79246064531E+02 0.  0.
         23    2    1    2    0    0  0.33962528183E+02  0.15111030737E+02 -0.22481893098E+03  0.24567002048E+03  0.91806375959E+02 0.  0.
         11    1    3    3    0    0 -0.51201378224E+02 -0.35134272817E+01 -0.12257156346E+03  0.13288232942E+03  0.00000000000E+00 0. -1.
        -12    1    3    3    0    0 -0.28588977741E+02 -0.26750416471E+02 -0.43847297182E+01  0.39397211631E+02  0.00000000000E+00 0.  1.
        -11    1    4    4    0    0 -0.18653286154E+02 -0.14755114108E+02 -0.13686767273E+03  0.13891874717E+03  0.00000000000E+00 0.  1.
         11    1    4    4    0    0  0.52615814338E+02  0.29866144846E+02 -0.87951258250E+02  0.10675127331E+03  0.00000000000E+00 0. -1.
         21    1    1    2  502  501  0.45827827781E+02  0.15152813015E+02 -0.11232599036E+02  0.49557732217E+02  0.00000000000E+00 0. -1.
<scales pt_clust_5="13000.00000" pt_clust_6="13000.00000" pt_clust_7="13000.00000" pt_clust_8="13000.00000" pt_clust_9="48.26798"></scales>
<clustering>
<clus scale="   48.268">  1  9  2 -1</clus>
<clus scale="   79.246">  5  6 -1 -1</clus>
<clus scale="   91.806">  7  8 -1 -1</clus>
<clus scale="   94.964">  1  5  2 -1</clus>
<clus scale="  105.672">  2  5  1 -1</clus>
</clustering>
</event>
<event>
 9    1  0.6106093E-005  0.9029945E+02  0.7546771E-02  0.1307163E+00
          1   -1    0    0  502    0  0.00000000000E+00  0.00000000000E+00  0.26971942121E+03  0.26971942121E+03  0.00000000000E+00 0. -1.
         -2   -1    0    0    0  501 -0.00000000000E+00 -0.00000000000E+00 -0.96247694415E+02  0.96247694415E+02  0.00000000000E+00 0.  1.
        -24    2    1    2    0    0 -0.40192331973E+02  0.40353358977E+01 -0.35181128550E+02  0.96328330700E+02  0.80060776940E+02 0.  0.
         23    2    1    2    0    0  0.16467355279E+02 -0.11176454145E+01  0.22394703000E+03  0.24126099052E+03  0.88216610570E+02 0.  0.
         13    1    3    3    0    0  0.22612983105E+02  0.10605613621E+01 -0.23022350475E+02  0.32287775035E+02  0.00000000000E+00 0. -1.
        -14    1    3    3    0    0 -0.62805315078E+02  0.29747745356E+01 -0.12158778075E+02  0.64040555665E+02  0.00000000000E+00 0.  1.
        -13    1    4    4    0    0 -0.15456859914E+02  0.15278022483E+02  0.93084337483E+01  0.23642745784E+02  0.00000000000E+00 0.  1.
         13    1    4    4    0    0  0.31924215193E+02 -0.16395667897E+02  0.21463859625E+03  0.21761824474E+03  0.00000000000E+00 0. -1.
         21    1    1    2  502  501  0.23724976694E+02 -0.29176904832E+01 -0.15294174655E+02  0.28377794405E+02  0.00000000000E+00 0. -1.
<scales pt_clust_5="13000.00000" pt_clust_6="13000.00000" pt_clust_7="13000.00000" pt_clust_8="13000.00000" pt_clust_9="23.90371"></scales>
<clustering>
<clus scale="   23.904">  2  9  1 -1</clus>
<clus scale="   80.061">  5  6 -1 -1</clus>
<clus scale="   82.350">  2  5  1 -1</clus>
<clus scale="   88.217">  7  8 -1 -1</clus>
<clus scale="   90.299">  1  5  2 -1</clus>
</clustering>
</event>
<event>
 9    1  0.6106093E-005  0.1644169E+03  0.7546771E-02  0.1188592E+00
         -2   -1    0    0    0  501 -0.00000000000E+00  0.00000000000E+00  0.14709476170E+03  0.14709476170E+03  0.00000000000E+00 0.  1.
          1   -1    0    0  502    0  0.00000000000E+00 -0.00000000000E+00 -0.41639826427E+03  0.41639826427E+03  0.00000000000E+00 0. -1.
        -24    2    1    2    0    0  0.15510534581E+01 -0.12475728013E+03 -0.52856943023E+02  0.15695727308E+03  0.79214546871E+02 0.  0.
         23    2    1    2    0    0  0.13350235617E+03  0.47055627463E+02 -0.17699941421E+03  0.24580912923E+03  0.95164196006E+02 0.  0.
         13    1    3    3    0    0  0.16243754414E+02 -0.70587423256E+02  0.95091688297E+01  0.73053871706E+02  0.00000000000E+00 0. -1.
        -14    1    3    3    0    0 -0.14692700956E+02 -0.54169856874E+02 -0.62366111853E+02  0.83903401377E+02  0.00000000000E+00 0.  1.
        -11    1    4    4    0    0  0.11369926215E+03  0.74832807504E+02 -0.13511615303E+03  0.19179115230E+03  0.00000000000E+00 0.  1.
         11    1    4    4    0    0  0.19803094021E+02 -0.27777180041E+02 -0.41883261180E+02  0.54017976923E+02  0.00000000000E+00 0. -1.
         21    1    1    2  502  501 -0.13505340962E+03  0.77701652667E+02 -0.39447145331E+02  0.16072662366E+03  0.00000000000E+00 0. -1.
<scales pt_clust_5="13000.00000" pt_clust_6="13000.00000" pt_clust_7="13000.00000" pt_clust_8="13000.00000" pt_clust_9="134.07721"></scales>
<clustering>
<clus scale="   79.215">  5  6 -1 -1</clus>
<clus scale="   95.164">  7  8 -1 -1</clus>
<clus scale="  147.789">  1  5  2 -1</clus>
<clus scale="  134.077">  1  9  2 -1</clus>
<clus scale="  164.417">  2  5  1 -1</clus>
</clustering>
</event>
<event>
 9    1  0.6106093E-005  0.9912622E+02  0.7546771E-02  0.1287765E+00
          1   -1    0    0  502    0  0.00000000000E+00  0.00000000000E+00  0.61742435887E+02  0.61742435887E+02  0.00000000000E+00 0. -1.
         -2   -1    0    0    0  501 -0.00000000000E+00 -0.00000000000E+00 -0.20794643475E+03  0.20794643475E+03  0.00000000000E+00 0.  1.
        -24    2    1    2    0    0  0.31848121688E+02  0.43424886545E+02 -0.85482520835E+02  0.12861633098E+03  0.79591931744E+02 0.  0.
         23    2    1    2    0    0 -0.26899854226E+02 -0.18646910960E+02 -0.29228363054E+02  0.10069618872E+03  0.90631759164E+02 0.  0.
         11    1    3    3    0    0 -0.18842179397E+02  0.41186200824E+02 -0.37921814497E+02  0.59071100189E+02  0.00000000000E+00 0. -1.
        -12    1    3    3    0    0  0.50690301085E+02  0.22386857212E+01 -0.47560706338E+02  0.69545230787E+02  0.00000000000E+00 0.  1.
        -13    1    4    4    0    0 -0.58793311956E+02 -0.12980993567E+02 -0.53361259369E+01  0.60445297292E+02  0.00000000000E+00 0. -1.
         13    1    4    4    0    0  0.31893457730E+02 -0.56659173930E+01 -0.23892237117E+02  0.40250891423E+02  0.00000000000E+00 0.  1.
         21    1    1    2  502  501 -0.49482674619E+01 -0.24777975586E+02 -0.31493114974E+02  0.40376350946E+02  0.00000000000E+00 0. -1.
<scales pt_clust_5="13000.00000" pt_clust_6="13000.00000" pt_clust_7="13000.00000" pt_clust_8="13000.00000" pt_clust_9="25.26724"></scales>
<clustering>
<clus scale="   25.267">  2  9  1 -1</clus>
<clus scale="   79.592">  5  6 -1 -1</clus>
<clus scale="   89.145">  2  5  1 -1</clus>
<clus scale="   90.632">  7  8 -1 -1</clus>
<clus scale="   99.126">  1  5  2 -1</clus>
</clustering>
</event>
<event>
 9    1  0.6106093E-005  0.2571319E+03  0.7546771E-02  0.1108879E+00
         -4   -1    0    0    0  501 -0.00000000000E+00  0.00000000000E+00  0.27381098698E+03  0.27381098698E+03  0.00000000000E+00 0.  1.
          3   -1    0    0  502    0  0.00000000000E+00 -0.00000000000E+00 -0.63008709301E+03  0.63008709301E+03  0.00000000000E+00 0. -1.
        -24    2    1    2    0    0 -0.28618824739E+02  0.94027052097E+02 -0.49835351640E+03  0.51398459972E+03  0.78509985269E+02 0.  0.
         23    2    1    2    0    0  0.27646439655E+01  0.79972687206E+01 -0.93818035571E+02  0.13160346863E+03  0.91902391658E+02 0.  0.
         11    1    3    3    0    0 -0.41106185534E+02  0.52282647309E+02 -0.16663844841E+03  0.17942008301E+03  0.00000000000E+00 0. -1.
        -12    1    3    3    0    0  0.12487360795E+02  0.41744404788E+02 -0.33171506799E+03  0.33456451671E+03  0.00000000000E+00 0.  1.
        -13    1    4    4    0    0 -0.29669927582E+02 -0.22131277968E+02 -0.12593407814E+02  0.39098490861E+02  0.00000000000E+00 0.  1.
         13    1    4    4    0    0  0.32434571547E+02  0.30128546689E+02 -0.81224627757E+02  0.92504977765E+02  0.00000000000E+00 0. -1.
         21    1    1    2  502  501  0.25854180774E+02 -0.10202432082E+03  0.23589544594E+03  0.25831001165E+03  0.00000000000E+00 0.  1.
<scales pt_clust_5="13000.00000" pt_clust_6="13000.00000" pt_clust_7="13000.00000" pt_clust_8="13000.00000" pt_clust_9="105.24923"></scales>
<clustering>
<clus scale="   78.510">  5  6 -1 -1</clus>
<clus scale="   91.902">  7  8 -1 -1</clus>
<clus scale="   92.144">  5  7 -1 -1</clus>
<clus scale="  105.249">  1  9  2 -1</clus>
<clus scale="  257.132">  2  5  1 -1</clus>
</clustering>
</event>
<event>
 9    1  0.6106093E-005  0.9357388E+02  0.7546771E-02  0.1301617E+00
         -4   -1    0    0    0  501 -0.00000000000E+00  0.00000000000E+00  0.25945948674E+02  0.25945948674E+02  0.00000000000E+00 0.  1.
          3   -1    0    0  502    0  0.00000000000E+00 -0.00000000000E+00 -0.63594673181E+03  0.63594673181E+03  0.00000000000E+00 0. -1.
         23    2    1    2    0    0  0.32937589021E+01  0.79182238249E+01 -0.10799104714E+03  0.14233444169E+03  0.92322694463E+02 0.  0.
        -24    2    1    2    0    0  0.29757826683E+02 -0.33213361693E+02 -0.36029539368E+03  0.37185852272E+03  0.80481889698E+02 0.  0.
         11    1    4    4    0    0  0.40242349610E+02 -0.53400303407E+02 -0.30128170709E+03  0.30861255019E+03  0.00000000000E+00 0. -1.
        -12    1    4    4    0    0 -0.10484522927E+02  0.20186941714E+02 -0.59013686590E+02  0.63245972534E+02  0.00000000000E+00 0.  1.
        -13    1    3    3    0    0 -0.17206850308E+02  0.45258350521E+02 -0.43770593755E+02  0.65270658546E+02  0.00000000000E+00 0.  1.
         13    1    3    3    0    0  0.20500609210E+02 -0.37340126696E+02 -0.64220453384E+02  0.77063783144E+02  0.00000000000E+00 0. -1.
         21    1    1    2  502  501 -0.33051585585E+02  0.25295137868E+02 -0.14171434232E+03  0.14769971607E+03  0.00000000000E+00 0. -1.
<scales pt_clust_5="13000.00000" pt_clust_6="13000.00000" pt_clust_7="13000.00000" pt_clust_8="13000.00000" pt_clust_9="41.62032"></scales>
<clustering>
<clus scale="   41.620">  2  9  1 -1</clus>
<clus scale="   80.482">  5  6 -1 -1</clus>
<clus scale="   81.914">  2  5  1 -1</clus>
<clus scale="   92.323">  7  8 -1 -1</clus>
<clus scale="   41.620">  2  5  1 -1</clus>
</clustering>
</event>
<event>
 9    1  0.6106093E-005  0.1331381E+03  0.7546771E-02  0.1224242E+00
         -4   -1    0    0    0  501 -0.00000000000E+00  0.00000000000E+00  0.31175217253E+03  0.31175217253E+03  0.00000000000E+00 0.  1.
          3   -1    0    0  502    0  0.00000000000E+00 -0.00000000000E+00 -0.10030035074E+03  0.10030035074E+03  0.00000000000E+00 0. -1.
        -24    2    1    2    0    0  0.12527213565E+02 -0.13119251610E+03  0.15183403161E+03  0.21656045670E+03  0.80476399588E+02 0.  0.
         23    2    1    2    0    0 -0.53378539388E+00  0.90769095209E+02  0.35677080148E+01  0.12535286936E+03  0.86378815368E+02 0.  0.
         13    1    3    3    0    0  0.46498837821E+02 -0.64775629724E+02  0.74961789319E+02  0.10944082411E+03  0.00000000000E+00 0. -1.
        -14    1    3    3    0    0 -0.33971624256E+02 -0.66416886377E+02  0.76872242294E+02  0.10711963259E+03  0.00000000000E+00 0.  1.
        -11    1    4    4    0    0  0.40870432468E+01  0.43405181159E+02  0.44708243893E+02  0.62446302900E+02  0.00000000000E+00 0.  1.
         11    1    4    4    0    0 -0.46208286407E+01  0.47363914050E+02 -0.41140535878E+02  0.62906566460E+02  0.00000000000E+00 0. -1.
         21    1    1    2  502  501 -0.11993428171E+02  0.40423420892E+02  0.56050082162E+02  0.70139197217E+02  0.00000000000E+00 0. -1.
<scales pt_clust_5="13000.00000" pt_clust_6="13000.00000" pt_clust_7="13000.00000" pt_clust_8="13000.00000" pt_clust_9="42.16510"></scales>
<clustering>
<clus scale="   42.165">  1  9  2 -1</clus>
<clus scale="   80.476">  5  6 -1 -1</clus>
<clus scale="   86.379">  7  8 -1 -1</clus>
<clus scale="  129.387">  1  5  2 -1</clus>
<clus scale="  133.138">  2  5  1 -1</clus>
</clustering>
</event>
<event>
 9    1  0.6106093E-005  0.1003143E+03  0.7546771E-02  0.1285674E+00
         -4   -1    0    0    0  501 -0.00000000000E+00  0.00000000000E+00  0.16124111128E+03  0.16124111128E+03  0.00000000000E+00 0.  1.
          3   -1    0    0  502    0  0.00000000000E+00 -0.00000000000E+00 -0.16751862706E+03  0.16751862706E+03  0.00000000000E+00 0. -1.
        -24    2    1    2    0    0  0.43914676295E+02  0.39198653211E+02  0.37599883051E+02  0.10764956388E+03  0.81912417808E+02 0.  0.
         23    2    1    2    0    0 -0.30562119881E+02 -0.68467670542E+01 -0.10906654315E+03  0.14711990592E+03  0.93636715516E+02 0.  0.
         13    1    3    3    0    0  0.27228739989E+02  0.31149042824E+02 -0.20853418257E+02  0.46330683173E+02  0.00000000000E+00 0. -1.
        -14    1    3    3    0    0  0.16685936305E+02  0.80496103863E+01  0.58453301308E+02  0.61318880710E+02  0.00000000000E+00 0.  1.
        -11    1    4    4    0    0 -0.60621484226E+02  0.13812650743E+02 -0.71684223942E+02  0.94891420226E+02  0.00000000000E+00 0. -1.
         11    1    4    4    0    0  0.30059364345E+02 -0.20659417797E+02 -0.37382319208E+02  0.52228485694E+02  0.00000000000E+00 0.  1.
         21    1    1    2  502  501 -0.13352556414E+02 -0.32351886156E+02  0.65189144321E+02  0.73990268536E+02  0.00000000000E+00 0. -1.
<scales pt_clust_5="13000.00000" pt_clust_6="13000.00000" pt_clust_7="13000.00000" pt_clust_8="13000.00000" pt_clust_9="34.99908"></scales>
<clustering>
<clus scale="   34.999">  1  9  2 -1</clus>
<clus scale="   81.912">  5  6 -1 -1</clus>
<clus scale="   89.469">  1  5  2 -1</clus>
<clus scale="   93.637">  7  8 -1 -1</clus>
<clus scale="  100.314">  2  5  1 -1</clus>
</clustering>
</event>
<event>
 9    1  0.6106093E-005  0.1940753E+03  0.7546771E-02  0.1181467E+00
         -2   -1    0    0    0  501 -0.00000000000E+00  0.00000000000E+00  0.57327438947E+03  0.57327438947E+03  0.00000000000E+00 0.  1.
          1   -1    0    0  502    0  0.00000000000E+00 -0.00000000000E+00 -0.25324146155E+03  0.25324146155E+03  0.00000000000E+00 0. -1.
         23    2    1    2    0    0  0.32540531780E+02  0.27653449547E+02  0.29422650848E+03  0.31250992952E+03  0.96278856860E+02 0.  0.
        -24    2    1    2    0    0  0.11324481140E+03  0.12371312331E+03 -0.14978659466E+03  0.24014808928E+03  0.84295650280E+02 0.  0.
         13    1    4    4    0    0  0.70667551387E+02  0.12229841103E+03 -0.13405762298E+03  0.19473636137E+03  0.00000000000E+00 0. -1.
        -14    1    4    4    0    0  0.42577260018E+02  0.14147122728E+01 -0.15728971675E+02  0.45411727906E+02  0.00000000000E+00 0.  1.
        -11    1    3    3    0    0  0.28240536398E+02  0.60471724529E+02  0.14449803103E+03  0.15916669983E+03  0.00000000000E+00 0. -1.
         11    1    3    3    0    0  0.42999953820E+01 -0.32818274982E+02  0.14972847745E+03  0.15334322969E+03  0.00000000000E+00 0.  1.
         21    1    1    2  502  501 -0.14578534318E+03 -0.15136657285E+03  0.17559301410E+03  0.27385783222E+03  0.00000000000E+00 0.  1.
<scales pt_clust_5="13000.00000" pt_clust_6="13000.00000" pt_clust_7="13000.00000" pt_clust_8="13000.00000" pt_clust_9="174.81269"></scales>
<clustering>
<clus scale="   84.296">  5  6 -1 -1</clus>
<clus scale="   96.279">  7  8 -1 -1</clus>
<clus scale="  105.324">  1  7  2 -1</clus>
<clus scale="  174.813">  1  9  2 -1</clus>
<clus scale="  194.075">  2  5  1 -1</clus>
</clustering>
</event>
<event>
 9    1  0.6106093E-005  0.9367485E+02  0.7546771E-02  0.1300477E+00
          3   -1    0    0  502    0  0.00000000000E+00  0.00000000000E+00  0.42172429673E+03  0.42172429673E+03  0.00000000000E+00 0. -1.
         -4   -1    0    0    0  501 -0.00000000000E+00 -0.00000000000E+00 -0.50748335681E+02  0.50748335681E+02  0.00000000000E+00 0.  1.
         23    2    1    2    0    0  0.23747239078E+02  0.15518311208E+02  0.51376384643E+02  0.11048224817E+03  0.93605795310E+02 0.  0.
        -24    2    1    2    0    0  0.36951841584E+00  0.44243654763E+01  0.31999878719E+03  0.33069361580E+03  0.83302654055E+02 0.  0.
         11    1    4    4    0    0  0.34269083855E+02 -0.15187674545E+02  0.22228877455E+03  0.22542700561E+03  0.00000000000E+00 0. -1.
        -12    1    4    4    0    0 -0.33899565439E+02  0.19612040021E+02  0.97710012637E+02  0.10526661019E+03  0.00000000000E+00 0.  1.
        -13    1    3    3    0    0  0.36171461879E+02 -0.28383701443E+02  0.45137701906E+02  0.64431524081E+02  0.00000000000E+00 0.  1.
         13    1    3    3    0    0 -0.12424222802E+02  0.43902012650E+02  0.62386827368E+01  0.46050724091E+02  0.00000000000E+00 0. -1.
         21    1    1    2  502  501 -0.24116757493E+02 -0.19942676684E+02 -0.39921078800E+00  0.31296768437E+02  0.00000000000E+00 0.  1.
<scales pt_clust_5="13000.00000" pt_clust_6="13000.00000" pt_clust_7="13000.00000" pt_clust_8="13000.00000" pt_clust_9="31.29422"></scales>
<clustering>
<clus scale="   31.294">  2  9  1 -1</clus>
<clus scale="   83.303">  5  6 -1 -1</clus>
<clus scale="   83.380">  1  5  2 -1</clus>
<clus scale="   93.606">  7  8 -1 -1</clus>
<clus scale="   83.380">  1  5  2 -1</clus>
</clustering>
</event>
<event>
 9    1  0.6106093E-005  0.1020684E+03  0.7546771E-02  0.1281479E+00
          1   -1    0    0  502    0  0.00000000000E+00  0.00000000000E+00  0.33228623660E+02  0.33228623660E+02  0.00000000000E+00 0. -1.
         -2   -1    0    0    0  501 -0.00000000000E+00 -0.00000000000E+00 -0.69450331992E+03  0.69450331992E+03  0.00000000000E+00 0.  1.
         23    2    1    2    0    0  0.16193827355E+02 -0.67315286653E+02 -0.51013283729E+03  0.52292231537E+03  0.91753192701E+02 0.  0.
        -24    2    1    2    0    0 -0.17907224359E+02  0.36835726789E+02 -0.59068888577E+02  0.10780771495E+03  0.80348182013E+02 0.  0.
         13    1    4    4    0    0 -0.14366227874E+02  0.21699138452E+02  0.16396067421E+02  0.30758285709E+02  0.00000000000E+00 0. -1.
        -14    1    4    4    0    0 -0.35409964850E+01  0.15136588336E+02 -0.75464955998E+02  0.77049429241E+02  0.00000000000E+00 0.  1.
        -13    1    3    3    0    0 -0.25366048927E+02  0.99184003258E+01 -0.12241534170E+03  0.12540864000E+03  0.00000000000E+00 0.  1.
         13    1    3    3    0    0  0.41559876282E+02 -0.77233686979E+02 -0.38771749559E+03  0.39751367537E+03  0.00000000000E+00 0. -1.
         21    1    1    2  502  501  0.17133970035E+01  0.30479559864E+02 -0.92072970389E+02  0.97001913255E+02  0.00000000000E+00 0. -1.
<scales pt_clust_5="13000.00000" pt_clust_6="13000.00000" pt_clust_7="13000.00000" pt_clust_8="13000.00000" pt_clust_9="30.52768"></scales>
<clustering>
<clus scale="   30.528">  2  9  1 -1</clus>
<clus scale="   80.348">  5  6 -1 -1</clus>
<clus scale="   91.753">  7  8 -1 -1</clus>
<clus scale="   91.952">  1  5  2 -1</clus>
<clus scale="   91.952">  1  5  2 -1</clus>
</clustering>
</event>
<event>
 9    1  0.6106093E-005  0.1123272E+03  0.7546771E-02  0.1259771E+00
         -2   -1    0    0    0  501 -0.00000000000E+00  0.00000000000E+00  0.11999870373E+04  0.11999870373E+04  0.00000000000E+00 0.  1.
          1   -1    0    0  502    0  0.00000000000E+00 -0.00000000000E+00 -0.12994487519E+03  0.12994487519E+03  0.00000000000E+00 0. -1.
        -24    2    1    2    0    0 -0.10110390695E+02 -0.92713289367E+02  0.42696019788E+03  0.44429578818E+03  0.80036009381E+02 0.  0.
         23    2    1    2    0    0 -0.62405778357E+02  0.31411555824E+02 -0.90955205706E+02  0.14548271849E+03  0.89505334602E+02 0.  0.
         13    1    3    3    0    0 -0.32909905105E+02 -0.10139873502E+02  0.83682790907E+02  0.90491371868E+02  0.00000000000E+00 0. -1.
        -14    1    3    3    0    0  0.22799514411E+02 -0.82573415866E+02  0.34327740698E+03  0.35380441632E+03  0.00000000000E+00 0.  1.
        -13    1    4    4    0    0 -0.26037321606E+02 -0.31072169533E+02 -0.40625387517E+02  0.57392019888E+02  0.00000000000E+00 0.  1.
         13    1    4    4    0    0 -0.36368456750E+02  0.62483725358E+02 -0.50329818189E+02  0.88090698600E+02  0.00000000000E+00 0. -1.
         21    1    1    2  502  501  0.72516169051E+02  0.61301733543E+02  0.73403716995E+03  0.74015340584E+03  0.00000000000E+00 0.  1.
<scales pt_clust_5="13000.00000" pt_clust_6="13000.00000" pt_clust_7="13000.00000" pt_clust_8="13000.00000" pt_clust_9="94.95524"></scales>
<clustering>
<clus scale="   80.036">  5  6 -1 -1</clus>
<clus scale="   89.505">  7  8 -1 -1</clus>
<clus scale="   94.955">  1  9  2 -1</clus>
<clus scale="  104.938">  1  5  2 -1</clus>
<clus scale="  112.327">  2  5  1 -1</clus>
</clustering>
</event>
<event>
 9    1  0.6106093E-005  0.1211984E+03  0.7546771E-02  0.1244349E+00
          3   -1    0    0  502    0  0.00000000000E+00  0.00000000000E+00  0.44947630759E+03  0.44947630759E+03  0.00000000000E+00 0. -1.
         -4   -1    0    0    0  501 -0.00000000000E+00 -0.00000000000E+00 -0.59104099455E+02  0.59104099455E+02  0.00000000000E+00 0.  1.
         23    2    1    2    0    0 -0.58104014730E+02 -0.48804590724E+01  0.27041057306E+02  0.11207973392E+03  0.91819129641E+02 0.  0.
        -24    2    1    2    0    0  0.81241024804E+02  0.21679304727E+02  0.34000156904E+03  0.35959820929E+03  0.81484408369E+02 0.  0.
         11    1    4    4    0    0  0.96901532325E+02  0.24322599602E+02  0.27203963758E+03  0.28980521085E+03  0.00000000000E+00 0. -1.
        -12    1    4    4    0    0 -0.15660507521E+02 -0.26432948750E+01  0.67961931455E+02  0.69792998436E+02  0.00000000000E+00 0.  1.
        -11    1    3    3    0    0  0.73431664085E+01 -0.35562213191E+02  0.60641857862E+01  0.36815315416E+02  0.00000000000E+00 0. -1.
         11    1    3    3    0    0 -0.65447181138E+02  0.30681754118E+02  0.20976871520E+02  0.75264418509E+02  0.00000000000E+00 0.  1.
         21    1    1    2  502  501 -0.23137010075E+02 -0.16798845654E+02  0.23329581789E+02  0.36902463833E+02  0.00000000000E+00 0. -1.
<scales pt_clust_5="13000.00000" pt_clust_6="13000.00000" pt_clust_7="13000.00000" pt_clust_8="13000.00000" pt_clust_9="28.59235"></scales>
<clustering>
<clus scale="   28.592">  2  9  1 -1</clus>
<clus scale="   81.484">  5  6 -1 -1</clus>
<clus scale="   91.819">  7  8 -1 -1</clus>
<clus scale="  113.569">  1  5  2 -1</clus>
<clus scale="  113.569">  1  5  2 -1</clus>
</clustering>
</event>
<event>
 9    1  0.6106093E-005  0.1227655E+03  0.7546771E-02  0.1241580E+00
         -2   -1    0    0    0  501 -0.00000000000E+00  0.00000000000E+00  0.10622734751E+03  0.10622734751E+03  0.00000000000E+00 0.  1.
          1   -1    0    0  502    0  0.00000000000E+00 -0.00000000000E+00 -0.23931861524E+03  0.23931861524E+03  0.00000000000E+00 0. -1.
        -24    2    1    2    0    0  0.22602041748E+02  0.88568936517E+02 -0.53780072607E+02  0.13328533204E+03  0.80730259017E+02 0.  0.
         23    2    1    2    0    0 -0.72924632211E+02 -0.46754701710E+02 -0.76159144699E+02  0.14675697611E+03  0.90738032820E+02 0.  0.
         11    1    3    3    0    0  0.19762410753E+02  0.47314176166E+02  0.14653234075E+02  0.53328242179E+02  0.00000000000E+00 0. -1.
        -12    1    3    3    0    0  0.28396309945E+01  0.41254760351E+02 -0.68433306682E+02  0.79957089863E+02  0.00000000000E+00 0.  1.
        -11    1    4    4    0    0 -0.64660656853E+02 -0.12770435849E+02 -0.33635240801E+01  0.65995438257E+02  0.00000000000E+00 0.  1.
         11    1    4    4    0    0 -0.82639753572E+01 -0.33984265861E+02 -0.72795620619E+02  0.80761537851E+02  0.00000000000E+00 0. -1.
         21    1    1    2  502  501  0.50322590463E+02 -0.41814234807E+02 -0.31520504234E+01  0.65503654594E+02  0.00000000000E+00 0. -1.
<scales pt_clust_5="13000.00000" pt_clust_6="13000.00000" pt_clust_7="13000.00000" pt_clust_8="13000.00000" pt_clust_9="65.42777"></scales>
<clustering>
<clus scale="   65.428">  1  9  2 -1</clus>
<clus scale="   80.730">  5  6 -1 -1</clus>
<clus scale="   90.738">  7  8 -1 -1</clus>
<clus scale="  115.565">  1  5  2 -1</clus>
<clus scale="  122.765">  2  5  1 -1</clus>
</clustering>
</event>
<event>
 9    1  0.6106093E-005  0.9515393E+02  0.7546771E-02  0.1293817E+00
          1   -1    0    0  502    0  0.00000000000E+00  0.00000000000E+00  0.17377375424E+03  0.17377375424E+03  0.00000000000E+00 0. -1.
         -2   -1    0    0    0  501 -0.00000000000E+00 -0.00000000000E+00 -0.47281259174E+03  0.47281259174E+03  0.00000000000E+00 0.  1.
         23    2    1    2    0    0 -0.15463412850E+02  0.21246172477E+02 -0.15637057090E+03  0.18070147349E+03  0.86664583848E+02 0.  0.
        -24    2    1    2    0    0 -0.22626424334E+02 -0.34834433004E+02  0.14728263130E+03  0.17312729410E+03  0.80966003225E+02 0.  0.
         13    1    4    4    0    0 -0.29321661878E+02 -0.33572196125E+02  0.15589706678E+03  0.16214421864E+03  0.00000000000E+00 0. -1.
        -14    1    4    4    0    0  0.66952375439E+01 -0.12622368793E+01 -0.86144354844E+01  0.10983075454E+02  0.00000000000E+00 0.  1.
        -13    1    3    3    0    0 -0.18114258846E+02  0.52180530294E+02 -0.12452516345E+03  0.13622573342E+03  0.00000000000E+00 0.  1.
         13    1    3    3    0    0  0.26508459966E+01 -0.30934357817E+02 -0.31845407457E+02  0.44475740063E+02  0.00000000000E+00 0. -1.
         21    1    1    2  502  501  0.38089837183E+02  0.13588260527E+02 -0.28995089790E+03  0.29275757840E+03  0.00000000000E+00 0.  1.
<scales pt_clust_5="13000.00000" pt_clust_6="13000.00000" pt_clust_7="13000.00000" pt_clust_8="13000.00000" pt_clust_9="40.44103"></scales>
<clustering>
<clus scale="   40.441">  2  9  1 -1</clus>
<clus scale="   80.966">  5  6 -1 -1</clus>
<clus scale="   86.665">  7  8 -1 -1</clus>
<clus scale="   89.995">  1  5  2 -1</clus>
<clus scale="   89.995">  1  5  2 -1</clus>
</clustering>
</event>
<event>
 9    1  0.6106093E-005  0.2126965E+03  0.7546771E-02  0.1171392E+00
          1   -1    0    0  502    0  0.00000000000E+00  0.00000000000E+00  0.25406978505E+03  0.25406978505E+03  0.00000000000E+00 0. -1.
         -2   -1    0    0    0  501 -0.00000000000E+00 -0.00000000000E+00 -0.55485738026E+03  0.55485738026E+03  0.00000000000E+00 0.  1.
        -24    2    1    2    0    0  0.55944827011E+02 -0.19142458559E+03 -0.48059880769E+02  0.22009007605E+03  0.79728876805E+02 0.  0.
         23    2    1    2    0    0  0.34915707443E+02  0.16203700102E+02  0.12635732433E+03  0.16144562696E+03  0.92826992459E+02 0.  0.
         11    1    3    3    0    0  0.75491734479E+02 -0.16605302015E+03 -0.36390462767E+02  0.18600234745E+03  0.00000000000E+00 0. -1.
        -12    1    3    3    0    0 -0.19546907469E+02 -0.25371565443E+02 -0.11669418002E+02  0.34087728600E+02  0.00000000000E+00 0.  1.
        -13    1    4    4    0    0  0.56971889875E+02 -0.10102311316E+01  0.37316831278E+02  0.68112867357E+02  0.00000000000E+00 0. -1.
         13    1    4    4    0    0 -0.22056182433E+02  0.17213931233E+02  0.89040493050E+02  0.93332759600E+02  0.00000000000E+00 0.  1.
         21    1    1    2  502  501 -0.90860534454E+02  0.17522088549E+03 -0.37908503877E+03  0.42739146231E+03  0.00000000000E+00 0.  1.
<scales pt_clust_5="13000.00000" pt_clust_6="13000.00000" pt_clust_7="13000.00000" pt_clust_8="13000.00000" pt_clust_9="197.18797"></scales>
<clustering>
<clus scale="   79.729">  5  6 -1 -1</clus>
<clus scale="   92.827">  7  8 -1 -1</clus>
<clus scale="  100.491">  1  7  2 -1</clus>
<clus scale="  197.188">  2  9  1 -1</clus>
<clus scale="  100.491">  1  5  2 -1</clus>
</clustering>
</event>
<event>
 9    1  0.6106093E-005  0.1491439E+03  0.7546771E-02  0.1205521E+00
         -2   -1    0    0    0  501 -0.00000000000E+00  0.00000000000E+00  0.39556177396E+03  0.39556177396E+03  0.00000000000E+00 0.  1.
          1   -1    0    0  502    0  0.00000000000E+00 -0.00000000000E+00 -0.76706753538E+02  0.76706753538E+02  0.00000000000E+00 0. -1.
        -24    2    1    2    0    0  0.23458168354E+02  0.12143162948E+03  0.24690097445E+03  0.28518189459E+03  0.71222858067E+02 0.  0.
         23    2    1    2    0    0 -0.40058242303E+02 -0.10744080893E+03  0.48736648014E+02  0.15530058121E+03  0.92708249173E+02 0.  0.
         13    1    3    3    0    0  0.48199935882E+02  0.72349661596E+02  0.16580470491E+03  0.18721353456E+03  0.00000000000E+00 0. -1.
        -14    1    3    3    0    0 -0.24741767528E+02  0.49081967889E+02  0.81096269547E+02  0.97968360028E+02  0.00000000000E+00 0.  1.
        -11    1    4    4    0    0 -0.40436909699E+02 -0.75612106829E+02  0.75089051650E+02  0.11397675220E+03  0.00000000000E+00 0.  1.
         11    1    4    4    0    0  0.37866739538E+00 -0.31828702102E+02 -0.26352403636E+02  0.41323829008E+02  0.00000000000E+00 0. -1.
         21    1    1    2  502  501  0.16600073949E+02 -0.13990820554E+02  0.23217397950E+02  0.31786051697E+02  0.00000000000E+00 0. -1.
<scales pt_clust_5="13000.00000" pt_clust_6="13000.00000" pt_clust_7="13000.00000" pt_clust_8="13000.00000" pt_clust_9="21.70957"></scales>
<clustering>
<clus scale="   21.710">  1  9  2 -1</clus>
<clus scale="   71.223">  5  6 -1 -1</clus>
<clus scale="   92.708">  7  8 -1 -1</clus>
<clus scale="  136.828">  1  5  2 -1</clus>
<clus scale="  149.144">  2  5  1 -1</clus>
</clustering>
</event>
<event>
 9    1  0.6106093E-005  0.9575277E+02  0.7546771E-02  0.1294558E+00
          1   -1    0    0  502    0  0.00000000000E+00  0.00000000000E+00  0.27855763174E+03  0.27855763174E+03  0.00000000000E+00 0. -1.
         -2   -1    0    0    0  501 -0.00000000000E+00 -0.00000000000E+00 -0.12191993657E+03  0.12191993657E+03  0.00000000000E+00 0.  1.
        -24    2    1    2    0    0 -0.34826029305E+01  0.29564301218E+01 -0.85536626598E+02  0.11855084620E+03  0.81956815712E+02 0.  0.
         23    2    1    2    0    0  0.10973401981E+02 -0.29962377363E+02  0.23338403677E+03  0.25255492668E+03  0.91091836957E+02 0.  0.
         13    1    3    3    0    0  0.36015398028E+02 -0.14295285309E+02 -0.44974255368E+02  0.59364532534E+02  0.00000000000E+00 0. -1.
        -14    1    3    3    0    0 -0.39498000958E+02  0.17251715431E+02 -0.40562371230E+02  0.59186313661E+02  0.00000000000E+00 0.  1.
        -13    1    4    4    0    0 -0.36028720162E+02 -0.35691440728E+01  0.14119087209E+03  0.14575894424E+03  0.00000000000E+00 0. -1.
         13    1    4    4    0    0  0.47002122143E+02 -0.26393233290E+02  0.92193164687E+02  0.10679598244E+03  0.00000000000E+00 0.  1.
         21    1    1    2  502  501 -0.74907990509E+01  0.27005947241E+02  0.87902849975E+01  0.29371795436E+02  0.00000000000E+00 0.  1.
<scales pt_clust_5="13000.00000" pt_clust_6="13000.00000" pt_clust_7="13000.00000" pt_clust_8="13000.00000" pt_clust_9="28.02558"></scales>
<clustering>
<clus scale="   28.026">  2  9  1 -1</clus>
<clus scale="   81.957">  5  6 -1 -1</clus>
<clus scale="   87.108">  2  5  1 -1</clus>
<clus scale="   91.092">  7  8 -1 -1</clus>
<clus scale="   95.753">  1  5  2 -1</clus>
</clustering>
</event>
<event>
 9    1  0.6106093E-005  0.9137691E+02  0.7546771E-02  0.1305022E+00
         -2   -1    0    0    0  501 -0.00000000000E+00  0.00000000000E+00  0.91762253118E+02  0.91762253118E+02  0.00000000000E+00 0.  1.
          1   -1    0    0  502    0  0.00000000000E+00 -0.00000000000E+00 -0.41415731737E+03  0.41415731737E+03  0.00000000000E+00 0. -1.
         23    2    1    2    0    0  0.62792704181E+01  0.11513075028E+01 -0.75010402758E+01  0.90225862895E+02  0.89686598687E+02 0.  0.
        -24    2    1    2    0    0  0.18621108961E+02  0.79420769319E+01 -0.35664602887E+03  0.36623717672E+03  0.80767923180E+02 0.  0.
         13    1    4    4    0    0  0.17242410274E+02  0.42812597005E+02 -0.16022516263E+03  0.16674028282E+03  0.00000000000E+00 0. -1.
        -14    1    4    4    0    0  0.13786986872E+01 -0.34870520074E+02 -0.19642086624E+03  0.19949689390E+03  0.00000000000E+00 0.  1.
        -13    1    3    3    0    0  0.74489973438E+01 -0.22887865954E+02 -0.41853696330E+02  0.48281195778E+02  0.00000000000E+00 0. -1.
         13    1    3    3    0    0 -0.11697269257E+01  0.24039173457E+02  0.34352656054E+02  0.41944667116E+02  0.00000000000E+00 0.  1.
         21    1    1    2  502  501 -0.24900379379E+02 -0.90933844346E+01  0.41752004894E+02  0.49456530877E+02  0.00000000000E+00 0. -1.
<scales pt_clust_5="13000.00000" pt_clust_6="13000.00000" pt_clust_7="13000.00000" pt_clust_8="13000.00000" pt_clust_9="26.50884"></scales>
<clustering>
<clus scale="   26.509">  1  9  2 -1</clus>
<clus scale="   80.768">  5  6 -1 -1</clus>
<clus scale="   82.641">  2  5  1 -1</clus>
<clus scale="   89.687">  7  8 -1 -1</clus>
<clus scale="   82.641">  2  5  1 -1</clus>
</clustering>
</event>
<event>
 9    1  0.6106093E-005  0.2588850E+03  0.7546771E-02  0.1108542E+00
         -4   -1    0    0    0  501 -0.00000000000E+00  0.00000000000E+00  0.45583903532E+02  0.45583903532E+02  0.00000000000E+00 0.  1.
          3   -1    0    0  502    0  0.00000000000E+00 -0.00000000000E+00 -0.21050953029E+04  0.21050953029E+04  0.00000000000E+00 0. -1.
         23    2    1    2    0    0 -0.22452234787E+03 -0.13007521177E+03 -0.56305105372E+03  0.62673651190E+03  0.91882102931E+02 0.  0.
        -24    2    1    2    0    0  0.21503338096E+03  0.98036810040E+02 -0.13985126908E+04  0.14204523918E+04  0.77438232546E+02 0.  0.
         13    1    4    4    0    0  0.54652278556E+02  0.62674968949E+02 -0.40388809181E+03  0.41235981132E+03  0.00000000000E+00 0. -1.
        -14    1    4    4    0    0  0.16038110240E+03  0.35361841091E+02 -0.99462459901E+03  0.10080925805E+04  0.00000000000E+00 0.  1.
        -13    1    3    3    0    0 -0.96390352745E+02 -0.80329529494E+02 -0.17713065251E+03  0.21706957748E+03  0.00000000000E+00 0.  1.
         13    1    3    3    0    0 -0.12813199513E+03 -0.49745682279E+02 -0.38592040121E+03  0.40966693442E+03  0.00000000000E+00 0. -1.
         21    1    1    2  502  501  0.94889669144E+01  0.32038401732E+02 -0.97947654794E+02  0.10349030273E+03  0.00000000000E+00 0. -1.
<scales pt_clust_5="13000.00000" pt_clust_6="13000.00000" pt_clust_7="13000.00000" pt_clust_8="13000.00000" pt_clust_9="33.41406"></scales>
<clustering>
<clus scale="   33.414">  1  9  2 -1</clus>
<clus scale="   77.438">  5  6 -1 -1</clus>
<clus scale="   91.882">  7  8 -1 -1</clus>
<clus scale="  254.118">  2  5  1 -1</clus>
<clus scale="  254.118">  2  5  1 -1</clus>
</clustering>
</event>
<event>
 9    1  0.6106093E-005  0.1361321E+03  0.7546771E-02  0.1221301E+00
         -2   -1    0    0    0  501 -0.00000000000E+00  0.00000000000E+00  0.18772617534E+03  0.18772617534E+03  0.00000000000E+00 0.  1.
          1   -1    0    0  502    0  0.00000000000E+00 -0.00000000000E+00 -0.14449569364E+03  0.14449569364E+03  0.00000000000E+00 0. -1.
        -24    2    1    2    0    0  0.16218428468E+01  0.10661196985E+03  0.92586686668E+02  0.16269992139E+03  0.80809822315E+02 0.  0.
         23    2    1    2    0    0  0.17267653360E+02 -0.96897517380E+02 -0.57735563366E+02  0.14668782180E+03  0.92177117874E+02 0.  0.
         11    1    3    3    0    0 -0.25651962498E+02  0.22931034371E+01  0.21515898897E+02  0.33559133015E+02  0.00000000000E+00 0. -1.
        -12    1    3    3    0    0  0.27273805345E+02  0.10431886642E+03  0.71070787771E+02  0.12914078838E+03  0.00000000000E+00 0.  1.
        -11    1    4    4    0    0 -0.32205308431E+02 -0.66868316560E+02 -0.17655143554E+02  0.76290613739E+02  0.00000000000E+00 0.  1.
         11    1    4    4    0    0  0.49472961791E+02 -0.30029200820E+02 -0.40080419812E+02  0.70397208059E+02  0.00000000000E+00 0. -1.
         21    1    1    2  502  501 -0.18889496207E+02 -0.97144524723E+01  0.83793583978E+01  0.22834125798E+02  0.00000000000E+00 0.  1.
<scales pt_clust_5="13000.00000" pt_clust_6="13000.00000" pt_clust_7="13000.00000" pt_clust_8="13000.00000" pt_clust_9="21.24108"></scales>
<clustering>
<clus scale="   21.241">  1  9  2 -1</clus>
<clus scale="   80.810">  5  6 -1 -1</clus>
<clus scale="   92.177">  7  8 -1 -1</clus>
<clus scale="  128.707">  1  5  2 -1</clus>
<clus scale="  136.132">  2  5  1 -1</clus>
</clustering>
</event>
<event>
 9    1  0.6106093E-005  0.9687621E+02  0.7546771E-02  0.1293031E+00
          1   -1    0    0  502    0  0.00000000000E+00  0.00000000000E+00  0.19109843988E+03  0.19109843988E+03  0.00000000000E+00 0. -1.
         -2   -1    0    0    0  501 -0.00000000000E+00 -0.00000000000E+00 -0.10957691868E+03  0.10957691868E+03  0.00000000000E+00 0.  1.
         23    2    1    2    0    0 -0.31573181897E+02  0.58213934040E+02  0.83319969451E+00  0.11220294080E+03  0.90570843932E+02 0.  0.
        -24    2    1    2    0    0 -0.23483027633E+01 -0.27728492683E+02  0.10676123473E+03  0.13593837109E+03  0.79415966025E+02 0.  0.
         11    1    4    4    0    0  0.15354576082E+01 -0.55748613757E+02  0.67781687655E+02  0.87775980469E+02  0.00000000000E+00 0. -1.
        -12    1    4    4    0    0 -0.38837603715E+01  0.28020121074E+02  0.38979547079E+02  0.48162390619E+02  0.00000000000E+00 0.  1.
        -13    1    3    3    0    0 -0.54416205290E+02  0.49933125519E+02 -0.23808307444E+02  0.77596880902E+02  0.00000000000E+00 0.  1.
         13    1    3    3    0    0  0.22843023393E+02  0.82808085211E+01  0.24641507139E+02  0.34606059897E+02  0.00000000000E+00 0. -1.
         21    1    1    2  502  501  0.33921484660E+02 -0.30485441358E+02 -0.26072913222E+02  0.52534046676E+02  0.00000000000E+00 0. -1.
<scales pt_clust_5="13000.00000" pt_clust_6="13000.00000" pt_clust_7="13000.00000" pt_clust_8="13000.00000" pt_clust_9="45.60734"></scales>
<clustering>
<clus scale="   45.607">  2  9  1 -1</clus>
<clus scale="   79.416">  5  6 -1 -1</clus>
<clus scale="   86.538">  1  5  2 -1</clus>
<clus scale="   90.571">  7  8 -1 -1</clus>
<clus scale="   86.538">  1  5  2 -1</clus>
</clustering>
</event>
<event>
 9    1  0.6106093E-005  0.1174952E+03  0.7546771E-02  0.1251256E+00
          1   -1    0    0  502    0  0.00000000000E+00  0.00000000000E+00  0.20102750726E+03  0.20102750726E+03  0.00000000000E+00 0. -1.
         -2   -1    0    0    0  501 -0.00000000000E+00 -0.00000000000E+00 -0.12211533717E+03  0.12211533717E+03  0.00000000000E+00 0.  1.
        -24    2    1    2    0    0  0.56126553151E+02 -0.57529823963E+02 -0.22006458500E+02  0.11560203244E+03  0.80122874858E+02 0.  0.
         23    2    1    2    0    0 -0.60650782663E+02  0.37721992490E+02  0.12843926753E+03  0.17333256141E+03  0.91902476821E+02 0.  0.
         11    1    3    3    0    0  0.62905739898E+02 -0.21597384456E+02  0.96876226715E+01  0.67211823070E+02  0.00000000000E+00 0. -1.
        -12    1    3    3    0    0 -0.67791867470E+01 -0.35932439506E+02 -0.31694081172E+02  0.48390209373E+02  0.00000000000E+00 0.  1.
        -11    1    4    4    0    0  0.14594195148E+02  0.33750890585E+02  0.65667706373E+02  0.75261947939E+02  0.00000000000E+00 0.  1.
         11    1    4    4    0    0 -0.75244977811E+02  0.39711019051E+01  0.62771561155E+02  0.98070613468E+02  0.00000000000E+00 0. -1.
         21    1    1    2  502  501  0.45242295123E+01  0.19807831473E+02 -0.27520638934E+02  0.34208250579E+02  0.00000000000E+00 0.  1.
<scales pt_clust_5="13000.00000" pt_clust_6="13000.00000" pt_clust_7="13000.00000" pt_clust_8="13000.00000" pt_clust_9="20.31794"></scales>
<clustering>
<clus scale="   20.318">  2  9  1 -1</clus>
<clus scale="   80.123">  5  6 -1 -1</clus>
<clus scale="   91.902">  7  8 -1 -1</clus>
<clus scale="  108.530">  2  5  1 -1</clus>
<clus scale="  117.495">  1  5  2 -1</clus>
</clustering>
</event>
<event>
 9    1  0.6106093E-005  0.1043192E+03  0.7546771E-02  0.1277191E+00
          1   -1    0    0  502    0  0.00000000000E+00  0.00000000000E+00  0.36656164291E+03  0.36656164291E+03  0.00000000000E+00 0. -1.
         -2   -1    0    0    0  501 -0.00000000000E+00 -0.00000000000E+00 -0.35397919658E+03  0.35397919658E+03  0.00000000000E+00 0.  1.
        -24    2    1    2    0    0  0.31165344519E+02  0.49039211075E+02 -0.17594101756E+03  0.20198862385E+03  0.80424123131E+02 0.  0.
         23    2    1    2    0    0 -0.43480266220E+02 -0.19267974600E+02  0.34415977117E+03  0.35961624124E+03  0.92822973885E+02 0.  0.
         11    1    3    3    0    0 -0.19991300958E+02 -0.89074743363E+01 -0.36638485637E+02  0.42677556664E+02  0.00000000000E+00 0. -1.
        -12    1    3    3    0    0  0.51156645477E+02  0.57946685411E+02 -0.13930253192E+03  0.15931106718E+03  0.00000000000E+00 0.  1.
        -11    1    4    4    0    0 -0.27968716112E+02  0.36618676995E+02  0.16404400825E+03  0.17039252691E+03  0.00000000000E+00 0.  1.
         11    1    4    4    0    0 -0.15511550108E+02 -0.55886651595E+02  0.18011576292E+03  0.18922371433E+03  0.00000000000E+00 0. -1.
         21    1    1    2  502  501  0.12314921701E+02 -0.29771236475E+02 -0.15563630727E+03  0.15893597440E+03  0.00000000000E+00 0. -1.
<scales pt_clust_5="13000.00000" pt_clust_6="13000.00000" pt_clust_7="13000.00000" pt_clust_8="13000.00000" pt_clust_9="32.21776"></scales>
<clustering>
<clus scale="   32.218">  2  9  1 -1</clus>
<clus scale="   80.424">  5  6 -1 -1</clus>
<clus scale="   92.823">  7  8 -1 -1</clus>
<clus scale="   93.458">  2  5  1 -1</clus>
<clus scale="  104.319">  1  5  2 -1</clus>
</clustering>
</event>
<event>
 9    1  0.6106093E-005  0.9017679E+02  0.7546771E-02  0.1308377E+00
         -2   -1    0    0    0  501 -0.00000000000E+00  0.00000000000E+00  0.85577356389E+02  0.85577356389E+02  0.00000000000E+00 0.  1.
          1   -1    0    0  502    0  0.00000000000E+00 -0.00000000000E+00 -0.26029896427E+03  0.26029896427E+03  0.00000000000E+00 0. -1.
        -24    2    1    2    0    0 -0.13864646960E+02 -0.95303322643E+01  0.14615998631E+02  0.83685830209E+02  0.80663716090E+02 0.  0.
         23    2    1    2    0    0 -0.45860890925E+01 -0.85468510423E+01 -0.21028465492E+03  0.22893401658E+03  0.89983703947E+02 0.  0.
         13    1    3    3    0    0  0.11560213851E+02 -0.32246863279E+02  0.30688741096E+02  0.45992364211E+02  0.00000000000E+00 0. -1.
        -14    1    3    3    0    0 -0.25424860811E+02  0.22716531015E+02 -0.16072742466E+02  0.37693465999E+02  0.00000000000E+00 0.  1.
        -13    1    4    4    0    0  0.31415926280E+02  0.24367831935E+02 -0.11849978845E+03  0.12499180581E+03  0.00000000000E+00 0.  1.
         13    1    4    4    0    0 -0.36002015372E+02 -0.32914682977E+02 -0.91784866471E+02  0.10394221077E+03  0.00000000000E+00 0. -1.
         21    1    1    2  502  501  0.18450736053E+02  0.18077183307E+02  0.20947048410E+02  0.33256473870E+02  0.00000000000E+00 0.  1.
<scales pt_clust_5="13000.00000" pt_clust_6="13000.00000" pt_clust_7="13000.00000" pt_clust_8="13000.00000" pt_clust_9="25.83049"></scales>
<clustering>
<clus scale="   25.830">  1  9  2 -1</clus>
<clus scale="   80.664">  5  6 -1 -1</clus>
<clus scale="   80.879">  1  5  2 -1</clus>
<clus scale="   89.984">  7  8 -1 -1</clus>
<clus scale="   90.177">  2  5  1 -1</clus>
</clustering>
</event>
<event>
 9    1  0.6106093E-005  0.1424286E+03  0.7546771E-02  0.1221136E+00
          3   -1    0    0  502    0  0.00000000000E+00  0.00000000000E+00  0.74386797184E+03  0.74386797184E+03  0.00000000000E+00 0. -1.
         -4   -1    0    0    0  501 -0.00000000000E+00 -0.00000000000E+00 -0.39189930138E+03  0.39189930138E+03  0.00000000000E+00 0.  1.
         23    2    1    2    0    0 -0.66835213968E+02  0.93626754250E+02 -0.22246100712E+03  0.27726212745E+03  0.11896416558E+03 0.  0.
        -24    2    1    2    0    0  0.43269470693E+02 -0.64498510657E+02  0.70949941100E+03  0.71833513571E+03  0.81139682080E+02 0.  0.
         13    1    4    4    0    0  0.27219301954E+02 -0.63370527038E+02  0.27427867629E+03  0.28281708994E+03  0.00000000000E+00 0. -1.
        -14    1    4    4    0    0  0.16050168738E+02 -0.11279836190E+01  0.43522073471E+03  0.43551804576E+03  0.00000000000E+00 0.  1.
        -11    1    3    3    0    0 -0.40872362863E+02  0.37858749793E+02 -0.10678173728E+02  0.56726170116E+02  0.00000000000E+00 0. -1.
         11    1    3    3    0    0 -0.25962851105E+02  0.55768004457E+02 -0.21178283339E+03  0.22053595734E+03  0.00000000000E+00 0.  1.
         21    1    1    2  502  501  0.23565743275E+02 -0.29128243593E+02 -0.13506973343E+03  0.14017001005E+03  0.00000000000E+00 0.  1.
<scales pt_clust_5="13000.00000" pt_clust_6="13000.00000" pt_clust_7="13000.00000" pt_clust_8="13000.00000" pt_clust_9="37.46730"></scales>
<clustering>
<clus scale="   37.467">  2  9  1 -1</clus>
<clus scale="   81.140">  5  6 -1 -1</clus>
<clus scale="  112.770">  1  5  2 -1</clus>
<clus scale="  118.964">  7  8 -1 -1</clus>
<clus scale="  112.770">  1  5  2 -1</clus>
</clustering>
</event>
<event>
 9    1  0.6106093E-005  0.1041919E+03  0.7546771E-02  0.1276374E+00
          1   -1    0    0  502    0  0.00000000000E+00  0.00000000000E+00  0.43644685523E+02  0.43644685523E+02  0.00000000000E+00 0. -1.
         -2   -1    0    0    0  501 -0.00000000000E+00 -0.00000000000E+00 -0.49558423748E+03  0.49558423748E+03  0.00000000000E+00 0.  1.
        -24    2    1    2    0    0  0.98587458999E+01 -0.67794591661E+02 -0.16302383181E+03  0.19459306399E+03  0.81218158593E+02 0.  0.
         23    2    1    2    0    0  0.46303976904E+02  0.27268243042E+02 -0.11029279770E+03  0.15305615031E+03  0.91509936984E+02 0.  0.
         13    1    3    3    0    0  0.33385198949E+02 -0.34989830689E+01 -0.30161402370E+02  0.45127869264E+02  0.00000000000E+00 0. -1.
        -14    1    3    3    0    0 -0.23526453049E+02 -0.64295608592E+02 -0.13286242944E+03  0.14946519473E+03  0.00000000000E+00 0.  1.
        -13    1    4    4    0    0  0.69338299594E+01  0.40387508592E+02 -0.10309172891E+03  0.11093752034E+03  0.00000000000E+00 0.  1.
         13    1    4    4    0    0  0.39370146945E+02 -0.13119265550E+02 -0.72010687885E+01  0.42118629972E+02  0.00000000000E+00 0. -1.
         21    1    1    2  502  501 -0.56162722804E+02  0.40526348619E+02 -0.17862292244E+03  0.19157970870E+03  0.00000000000E+00 0.  1.
<scales pt_clust_5="13000.00000" pt_clust_6="13000.00000" pt_clust_7="13000.00000" pt_clust_8="13000.00000" pt_clust_9="69.25775"></scales>
<clustering>
<clus scale="   69.258">  2  9  1 -1</clus>
<clus scale="   81.218">  5  6 -1 -1</clus>
<clus scale="   91.510">  7  8 -1 -1</clus>
<clus scale="   95.280">  2  5  1 -1</clus>
<clus scale="  104.192">  1  5  2 -1</clus>
</clustering>
</event>
<event>
 9    1  0.6106093E-005  0.1165453E+03  0.7546771E-02  0.1252374E+00
         -2   -1    0    0    0  501 -0.00000000000E+00  0.00000000000E+00  0.13514542740E+03  0.13514542740E+03  0.00000000000E+00 0.  1.
          1   -1    0    0  502    0  0.00000000000E+00 -0.00000000000E+00 -0.30180266747E+03  0.30180266747E+03  0.00000000000E+00 0. -1.
         23    2    1    2    0    0  0.37917492216E+02 -0.44959922180E+02  0.69810208325E+02  0.12940720726E+03  0.91725837621E+02 0.  0.
        -24    2    1    2    0    0 -0.60903859769E+02  0.41349524749E+02 -0.25507835641E+03  0.27774535169E+03  0.81599320732E+02 0.  0.
         13    1    4    4    0    0 -0.60807498394E+02  0.41161656813E+02 -0.10760315817E+03  0.13027000231E+03  0.00000000000E+00 0. -1.
        -14    1    4    4    0    0 -0.96361375797E-01  0.18786793619E+00 -0.14747519824E+03  0.14747534938E+03  0.00000000000E+00 0.  1.
        -11    1    3    3    0    0  0.14920277200E+02 -0.67359006222E+02  0.23153947827E+02  0.72773317163E+02  0.00000000000E+00 0. -1.
         11    1    3    3    0    0  0.22997215016E+02  0.22399084041E+02  0.46656260499E+02  0.56633890102E+02  0.00000000000E+00 0.  1.
         21    1    1    2  502  501  0.22986367553E+02  0.36103974307E+01  0.18610908022E+02  0.29795535913E+02  0.00000000000E+00 0.  1.
<scales pt_clust_5="13000.00000" pt_clust_6="13000.00000" pt_clust_7="13000.00000" pt_clust_8="13000.00000" pt_clust_9="23.26818"></scales>
<clustering>
<clus scale="   23.268">  1  9  2 -1</clus>
<clus scale="   81.599">  5  6 -1 -1</clus>
<clus scale="   91.726">  7  8 -1 -1</clus>
<clus scale="  108.755">  2  5  1 -1</clus>
<clus scale="  108.755">  2  5  1 -1</clus>
</clustering>
</event>
<event>
 9    1  0.6106093E-005  0.1070920E+03  0.7546771E-02  0.1271012E+00
          1   -1    0    0  502    0  0.00000000000E+00  0.00000000000E+00  0.29999407180E+03  0.29999407180E+03  0.00000000000E+00 0. -1.
         -2   -1    0    0    0  501 -0.00000000000E+00 -0.00000000000E+00 -0.12402261051E+03  0.12402261051E+03  0.00000000000E+00 0.  1.
         23    2    1    2    0    0  0.23349521247E+02  0.28178971328E+02  0.67480156132E+02  0.11942682094E+03  0.91487373557E+02 0.  0.
        -24    2    1    2    0    0 -0.61952621569E+02 -0.26130146609E+02  0.18866111176E+03  0.21558651915E+03  0.79772302617E+02 0.  0.
         13    1    4    4    0    0 -0.57096711644E+02  0.17238033570E+02  0.12371182532E+03  0.13733826855E+03  0.00000000000E+00 0. -1.
        -14    1    4    4    0    0 -0.48559099247E+01 -0.43368180178E+02  0.64949286439E+02  0.78248250601E+02  0.00000000000E+00 0.  1.
        -11    1    3    3    0    0  0.40340932612E+02 -0.21716332681E+02  0.32285919775E+02  0.56047930959E+02  0.00000000000E+00 0.  1.
         11    1    3    3    0    0 -0.16991411365E+02  0.49895304009E+02  0.35194236357E+02  0.63378889980E+02  0.00000000000E+00 0. -1.
         21    1    1    2  502  501  0.38603100322E+02 -0.20488247196E+01 -0.80169806601E+02  0.89003342228E+02  0.00000000000E+00 0.  1.
<scales pt_clust_5="13000.00000" pt_clust_6="13000.00000" pt_clust_7="13000.00000" pt_clust_8="13000.00000" pt_clust_9="38.65743"></scales>
<clustering>
<clus scale="   38.657">  2  9  1 -1</clus>
<clus scale="   79.772">  5  6 -1 -1</clus>
<clus scale="   91.487">  7  8 -1 -1</clus>
<clus scale="   97.275">  1  5  2 -1</clus>
<clus scale="   97.275">  1  5  2 -1</clus>
</clustering>
</event>
<event>
 9    1  0.6106093E-005  0.1092743E+03  0.7546771E-02  0.1276940E+00
          3   -1    0    0  502    0  0.00000000000E+00  0.00000000000E+00  0.20328023625E+03  0.20328023625E+03  0.00000000000E+00 0. -1.
         -4   -1    0    0    0  501 -0.00000000000E+00 -0.00000000000E+00 -0.95566909172E+02  0.95566909172E+02  0.00000000000E+00 0.  1.
        -24    2    1    2    0    0 -0.30082975842E+02  0.35952098789E+02 -0.22313635958E+02  0.93243781639E+02  0.77452989754E+02 0.  0.
         23    2    1    2    0    0  0.12329097987E+02 -0.14929246611E+02  0.13963543967E+03  0.17645746671E+03  0.10613337122E+03 0.  0.
         13    1    3    3    0    0 -0.36863152787E+02  0.25750406608E+02  0.19984802965E+02  0.49207396023E+02  0.00000000000E+00 0. -1.
        -14    1    3    3    0    0  0.67801769449E+01  0.10201692181E+02 -0.42298438923E+02  0.44036385615E+02  0.00000000000E+00 0.  1.
        -11    1    4    4    0    0 -0.10453796960E+02  0.36658997482E+02  0.17530080126E+02  0.41957927457E+02  0.00000000000E+00 0.  1.
         11    1    4    4    0    0  0.22782894947E+02 -0.51588244093E+02  0.12210535954E+03  0.13449953926E+03  0.00000000000E+00 0. -1.
         21    1    1    2  502  501  0.17753877855E+02 -0.21022852177E+02 -0.96084766364E+01  0.29145897067E+02  0.00000000000E+00 0. -1.
<scales pt_clust_5="13000.00000" pt_clust_6="13000.00000" pt_clust_7="13000.00000" pt_clust_8="13000.00000" pt_clust_9="27.51655"></scales>
<clustering>
<clus scale="   27.517">  2  9  1 -1</clus>
<clus scale="   77.453">  5  6 -1 -1</clus>
<clus scale="   81.704">  2  5  1 -1</clus>
<clus scale="  106.133">  7  8 -1 -1</clus>
<clus scale="  109.274">  1  5  2 -1</clus>
</clustering>
</event>
<event>
 9    1  0.6106093E-005  0.1153168E+03  0.7546771E-02  0.1253208E+00
         -2   -1    0    0    0  501 -0.00000000000E+00  0.00000000000E+00  0.66935774658E+02  0.66935774658E+02  0.00000000000E+00 0.  1.
          1   -1    0    0  502    0  0.00000000000E+00 -0.00000000000E+00 -0.37465336744E+03  0.37465336744E+03  0.00000000000E+00 0. -1.
         23    2    1    2    0    0 -0.31509682436E+01  0.81877390235E+02 -0.14290485525E+02  0.11893162709E+03  0.85009871852E+02 0.  0.
        -24    2    1    2    0    0  0.19484009445E+02 -0.60314618149E+02 -0.26466965742E+03  0.28317698442E+03  0.78241275286E+02 0.  0.
         11    1    4    4    0    0 -0.19550091522E+02 -0.51413392625E+02 -0.10465168598E+03  0.11822655538E+03  0.00000000000E+00 0. -1.
        -12    1    4    4    0    0  0.39034100967E+02 -0.89012255240E+01 -0.16001797145E+03  0.16495042904E+03  0.00000000000E+00 0.  1.
        -11    1    3    3    0    0  0.30139769522E+02  0.79116780340E+02 -0.10532387789E+02  0.85315894362E+02  0.00000000000E+00 0. -1.
         11    1    3    3    0    0 -0.33290737766E+02  0.27606098950E+01 -0.37580977361E+01  0.33615732724E+02  0.00000000000E+00 0.  1.
         21    1    1    2  502  501 -0.16333041201E+02 -0.21562772087E+02 -0.28757449839E+02  0.39480530596E+02  0.00000000000E+00 0.  1.
<scales pt_clust_5="13000.00000" pt_clust_6="13000.00000" pt_clust_7="13000.00000" pt_clust_8="13000.00000" pt_clust_9="27.05035"></scales>
<clustering>
<clus scale="   27.050">  2  9  1 -1</clus>
<clus scale="   78.241">  5  6 -1 -1</clus>
<clus scale="   85.010">  7  8 -1 -1</clus>
<clus scale="  110.422">  2  5  1 -1</clus>
<clus scale="   27.050">  2  5  1 -1</clus>
</clustering>
</event>
<event>
 9    1  0.6106093E-005  0.1359510E+03  0.7546771E-02  0.1221041E+00
          1   -1    0    0  502    0  0.00000000000E+00  0.00000000000E+00  0.22364761570E+03  0.22364761570E+03  0.00000000000E+00 0. -1.
         -2   -1    0    0    0  501 -0.00000000000E+00 -0.00000000000E+00 -0.28969105001E+03  0.28969105001E+03  0.00000000000E+00 0.  1.
         23    2    1    2    0    0 -0.41607671612E+02 -0.62923481571E+02 -0.56343399585E+02  0.13025202025E+03  0.90002484589E+02 0.  0.
        -24    2    1    2    0    0  0.68937120818E+02  0.84466327648E+02  0.16007274070E+03  0.20978405376E+03  0.80617490436E+02 0.  0.
         13    1    4    4    0    0  0.58428696320E+02  0.13730755419E+02  0.98849665473E+02  0.11564472561E+03  0.00000000000E+00 0. -1.
        -14    1    4    4    0    0  0.10508424498E+02  0.70735572229E+02  0.61223075230E+02  0.94139328150E+02  0.00000000000E+00 0.  1.
        -11    1    3    3    0    0 -0.25572498978E+02 -0.82187113052E+02 -0.60000366849E+02  0.10492243934E+03  0.00000000000E+00 0.  1.
         11    1    3    3    0    0 -0.16035172634E+02  0.19263631482E+02  0.36569672643E+01  0.25329580905E+02  0.00000000000E+00 0. -1.
         21    1    1    2  502  501 -0.27329449205E+02 -0.21542846077E+02 -0.16977277543E+03  0.17330259170E+03  0.00000000000E+00 0.  1.
<scales pt_clust_5="13000.00000" pt_clust_6="13000.00000" pt_clust_7="13000.00000" pt_clust_8="13000.00000" pt_clust_9="34.79932"></scales>
<clustering>
<clus scale="   34.799">  2  9  1 -1</clus>
<clus scale="   80.617">  5  6 -1 -1</clus>
<clus scale="   90.002">  7  8 -1 -1</clus>
<clus scale="  129.928">  1  5  2 -1</clus>
<clus scale="  129.928">  1  5  2 -1</clus>
</clustering>
</event>
<event>
 9    1  0.6106093E-005  0.1135818E+03  0.7546771E-02  0.1256323E+00
         -2   -1    0    0    0  501 -0.00000000000E+00  0.00000000000E+00  0.28771532027E+03  0.28771532027E+03  0.00000000000E+00 0.  1.
          1   -1    0    0  502    0  0.00000000000E+00 -0.00000000000E+00 -0.11042205097E+03  0.11042205097E+03  0.00000000000E+00 0. -1.
         23    2    1    2    0    0 -0.67048326384E+02 -0.24540466040E+02  0.16042554493E+03  0.19793794939E+03  0.91352962716E+02 0.  0.
        -24    2    1    2    0    0  0.57135804189E+02 -0.53741477052E+01 -0.52152108690E+02  0.12432531845E+03  0.97177985075E+02 0.  0.
         11    1    4    4    0    0  0.64713238207E+02  0.90813020613E+01 -0.72916957957E+02  0.97914023531E+02  0.00000000000E+00 0. -1.
        -12    1    4    4    0    0 -0.75774340181E+01 -0.14455449766E+02  0.20764849267E+02  0.26411294920E+02  0.00000000000E+00 0.  1.
        -13    1    3    3    0    0 -0.45617613598E+02  0.30353482878E+02  0.58135551083E+02  0.79887689245E+02  0.00000000000E+00 0. -1.
         13    1    3    3    0    0 -0.21430712786E+02 -0.54893948918E+02  0.10228999385E+03  0.11805026014E+03  0.00000000000E+00 0.  1.
         21    1    1    2  502  501  0.99125221952E+01  0.29914613745E+02  0.69019833061E+02  0.75874103405E+02  0.00000000000E+00 0. -1.
<scales pt_clust_5="13000.00000" pt_clust_6="13000.00000" pt_clust_7="13000.00000" pt_clust_8="13000.00000" pt_clust_9="31.51416"></scales>
<clustering>
<clus scale="   31.514">  1  9  2 -1</clus>
<clus scale="   91.353">  7  8 -1 -1</clus>
<clus scale="   97.178">  5  6 -1 -1</clus>
<clus scale="  108.640">  1  7  2 -1</clus>
<clus scale="  113.582">  2  5  1 -1</clus>
</clustering>
</event>
<event>
 9    1  0.6106093E-005  0.1528790E+03  0.7546771E-02  0.1199892E+00
          1   -1    0    0  502    0  0.00000000000E+00  0.00000000000E+00  0.44778919879E+03  0.44778919879E+03  0.00000000000E+00 0. -1.
         -2   -1    0    0    0  501 -0.00000000000E+00 -0.00000000000E+00 -0.21427075929E+03  0.21427075929E+03  0.00000000000E+00 0.  1.
         23    2    1    2    0    0  0.12778725948E+03 -0.81173489419E+02  0.91812165191E+01  0.17918989476E+03  0.95425387490E+02 0.  0.
        -24    2    1    2    0    0 -0.11545058066E+03  0.12898488149E+02  0.32868519334E+03  0.35756177006E+03  0.79506323766E+02 0.  0.
         11    1    4    4    0    0 -0.81271740119E+02  0.26251908882E+01  0.30265552679E+03  0.31338850532E+03  0.00000000000E+00 0. -1.
        -12    1    4    4    0    0 -0.34178840540E+02  0.10273297261E+02  0.26029666543E+02  0.44173264738E+02  0.00000000000E+00 0.  1.
        -13    1    3    3    0    0  0.12112993946E+03 -0.50368583541E+02 -0.24071479338E+02  0.13337500725E+03  0.00000000000E+00 0.  1.
         13    1    3    3    0    0  0.66573200232E+01 -0.30804905878E+02  0.33252695857E+02  0.45814887513E+02  0.00000000000E+00 0. -1.
         21    1    1    2  502  501 -0.12336678822E+02  0.68275001270E+02 -0.10434797035E+03  0.12530829326E+03  0.00000000000E+00 0.  1.
<scales pt_clust_5="13000.00000" pt_clust_6="13000.00000" pt_clust_7="13000.00000" pt_clust_8="13000.00000" pt_clust_9="69.38061"></scales>
<clustering>
<clus scale="   69.381">  2  9  1 -1</clus>
<clus scale="   79.506">  5  6 -1 -1</clus>
<clus scale="   95.425">  7  8 -1 -1</clus>
<clus scale="  143.483">  1  5  2 -1</clus>
<clus scale="  143.483">  1  5  2 -1</clus>
</clustering>
</event>
<event>
 9    1  0.6106093E-005  0.1490665E+03  0.7546771E-02  0.1203936E+00
         -2   -1    0    0    0  501 -0.00000000000E+00  0.00000000000E+00  0.50350514161E+02  0.50350514161E+02  0.00000000000E+00 0.  1.
          1   -1    0    0  502    0  0.00000000000E+00 -0.00000000000E+00 -0.87067305868E+03  0.87067305868E+03  0.00000000000E+00 0. -1.
        -24    2    1    2    0    0  0.26172722073E+01  0.66380944852E+02 -0.15258197219E+03  0.19524668860E+03  0.10211136675E+03 0.  0.
         23    2    1    2    0    0  0.77309420948E+02 -0.11465297696E+03 -0.55606045186E+03  0.58020588894E+03  0.91178921611E+02 0.  0.
         13    1    3    3    0    0 -0.22143765159E+02 -0.60192934021E+01 -0.99519914912E+02  0.10213124739E+03  0.00000000000E+00 0. -1.
        -14    1    3    3    0    0  0.24761037366E+02  0.72400238254E+02 -0.53062057276E+02  0.93115441217E+02  0.00000000000E+00 0.  1.
        -11    1    4    4    0    0  0.93576155856E+02 -0.75234924332E+02 -0.35772173399E+03  0.37733490397E+03  0.00000000000E+00 0. -1.
         11    1    4    4    0    0 -0.16266734908E+02 -0.39418052632E+02 -0.19833871787E+03  0.20287098497E+03  0.00000000000E+00 0.  1.
         21    1    1    2  502  501 -0.79926693156E+02  0.48272032113E+02 -0.11168012047E+03  0.14557099530E+03  0.00000000000E+00 0.  1.
<scales pt_clust_5="13000.00000" pt_clust_6="13000.00000" pt_clust_7="13000.00000" pt_clust_8="13000.00000" pt_clust_9="93.37272"></scales>
<clustering>
<clus scale="   91.179">  7  8 -1 -1</clus>
<clus scale="   93.373">  1  9  2 -1</clus>
<clus scale="  102.111">  5  6 -1 -1</clus>
<clus scale="  141.802">  2  7  1 -1</clus>
<clus scale="  141.802">  2  5  1 -1</clus>
</clustering>
</event>
<event>
 9    1  0.6106093E-005  0.1766055E+03  0.7546771E-02  0.1172651E+00
          1   -1    0    0  502    0  0.00000000000E+00  0.00000000000E+00  0.63225319482E+02  0.63225319482E+02  0.00000000000E+00 0. -1.
         -2   -1    0    0    0  501 -0.00000000000E+00 -0.00000000000E+00 -0.73262002433E+03  0.73262002433E+03  0.00000000000E+00 0.  1.
         23    2    1    2    0    0  0.10890274166E+03 -0.12520740777E+03 -0.29585881942E+03  0.35189784247E+03  0.93610621206E+02 0.  0.
        -24    2    1    2    0    0 -0.49227698881E+02  0.13403520623E+03 -0.19296516057E+03  0.25356675801E+03  0.81680748823E+02 0.  0.
         11    1    4    4    0    0 -0.66822032692E+02  0.72930679207E+02 -0.13619758916E+03  0.16832662093E+03  0.00000000000E+00 0. -1.
        -12    1    4    4    0    0  0.17594333811E+02  0.61104527020E+02 -0.56767571413E+02  0.85240137076E+02  0.00000000000E+00 0.  1.
        -13    1    3    3    0    0  0.55614007991E+02 -0.77310024034E+02 -0.79737316098E+02  0.12420868440E+03  0.00000000000E+00 0.  1.
         13    1    3    3    0    0  0.53288733672E+02 -0.47897383739E+02 -0.21612150332E+03  0.22768915807E+03  0.00000000000E+00 0. -1.
         21    1    1    2  502  501 -0.59675042782E+02 -0.88277984537E+01 -0.18057072486E+03  0.19038074333E+03  0.00000000000E+00 0. -1.
<scales pt_clust_5="13000.00000" pt_clust_6="13000.00000" pt_clust_7="13000.00000" pt_clust_8="13000.00000" pt_clust_9="60.32446"></scales>
<clustering>
<clus scale="   60.324">  2  9  1 -1</clus>
<clus scale="   81.681">  5  6 -1 -1</clus>
<clus scale="   93.611">  7  8 -1 -1</clus>
<clus scale="  170.582">  1  5  2 -1</clus>
<clus scale="  170.582">  1  5  2 -1</clus>
</clustering>
</event>
<event>
 9    1  0.6106093E-005  0.8173252E+02  0.7546771E-02  0.1324504E+00
          1   -1    0    0  502    0  0.00000000000E+00  0.00000000000E+00  0.35261856447E+03  0.35261856447E+03  0.00000000000E+00 0. -1.
         -2   -1    0    0    0  501 -0.00000000000E+00 -0.00000000000E+00 -0.32601310790E+02  0.32601310790E+02  0.00000000000E+00 0.  1.
        -24    2    1    2    0    0  0.21687543564E+01 -0.12789536996E+02  0.84663150052E+02  0.11679772333E+03  0.79407703944E+02 0.  0.
         23    2    1    2    0    0  0.18133809246E+02  0.12736256517E+02  0.23380996651E+03  0.24806088265E+03  0.79850195951E+02 0.  0.
         13    1    3    3    0    0  0.27535178885E+02 -0.81283150534E+00 -0.64355794612E-01  0.27547248736E+02  0.00000000000E+00 0. -1.
        -14    1    3    3    0    0 -0.25366424528E+02 -0.11976705491E+02  0.84727505847E+02  0.89250474591E+02  0.00000000000E+00 0.  1.
        -13    1    4    4    0    0 -0.31694225951E+02  0.82195011448E+01  0.98284734803E+02  0.10359523760E+03  0.00000000000E+00 0.  1.
         13    1    4    4    0    0  0.49828035198E+02  0.45167553725E+01  0.13552523170E+03  0.14446564505E+03  0.00000000000E+00 0. -1.
         21    1    1    2  502  501 -0.20302563603E+02  0.53280478955E-01  0.15441371246E+01  0.20361269290E+02  0.00000000000E+00 0.  1.
<scales pt_clust_5="13000.00000" pt_clust_6="13000.00000" pt_clust_7="13000.00000" pt_clust_8="13000.00000" pt_clust_9="20.30263"></scales>
<clustering>
<clus scale="   20.303">  2  9  1 -1</clus>
<clus scale="   79.408">  5  6 -1 -1</clus>
<clus scale="   79.850">  7  8 -1 -1</clus>
<clus scale="   81.300">  2  5  1 -1</clus>
<clus scale="   81.733">  1  5  2 -1</clus>
</clustering>
</event>
<event>
 9    1  0.6106093E-005  0.9924629E+02  0.7546771E-02  0.1286345E+00
          1   -1    0    0  502    0  0.00000000000E+00  0.00000000000E+00  0.28749350908E+03  0.28749350908E+03  0.00000000000E+00 0. -1.
         -2   -1    0    0    0  501 -0.00000000000E+00 -0.00000000000E+00 -0.69402510474E+02  0.69402510474E+02  0.00000000000E+00 0.  1.
        -24    2    1    2    0    0 -0.80799153640E+01 -0.11027412722E+02  0.18538127383E+01  0.81979589102E+02  0.80810442049E+02 0.  0.
         23    2    1    2    0    0 -0.26302995833E+02  0.47597683414E+02  0.19280873685E+03  0.21952273493E+03  0.89764330822E+02 0.  0.
         11    1    3    3    0    0 -0.19465468027E+02 -0.20558349057E+02  0.35379537035E+02  0.45312931954E+02  0.00000000000E+00 0. -1.
        -12    1    3    3    0    0  0.11385552663E+02  0.95309363352E+01 -0.33525724296E+02  0.36666657149E+02  0.00000000000E+00 0.  1.
        -13    1    4    4    0    0 -0.49549010979E+02  0.10631964380E+01  0.12182110156E+03  0.13151659842E+03  0.00000000000E+00 0. -1.
         13    1    4    4    0    0  0.23246015145E+02  0.46534486976E+02  0.70987635293E+02  0.88006136506E+02  0.00000000000E+00 0.  1.
         21    1    1    2  502  501  0.34382911197E+02 -0.36570270692E+02  0.23428449023E+02  0.55393695530E+02  0.00000000000E+00 0. -1.
<scales pt_clust_5="13000.00000" pt_clust_6="13000.00000" pt_clust_7="13000.00000" pt_clust_8="13000.00000" pt_clust_9="50.19531"></scales>
<clustering>
<clus scale="   50.195">  2  9  1 -1</clus>
<clus scale="   80.810">  5  6 -1 -1</clus>
<clus scale="   89.764">  7  8 -1 -1</clus>
<clus scale="   91.228">  2  5  1 -1</clus>
<clus scale="   99.246">  1  5  2 -1</clus>
</clustering>
</event>
<event>
 9    1  0.6106093E-005  0.2818052E+03  0.7546771E-02  0.1095094E+00
         -2   -1    0    0    0  501 -0.00000000000E+00  0.00000000000E+00  0.66641571090E+02  0.66641571090E+02  0.00000000000E+00 0.  1.
          1   -1    0    0  502    0  0.00000000000E+00 -0.00000000000E+00 -0.16633818235E+04  0.16633818235E+04  0.00000000000E+00 0. -1.
         23    2    1    2    0    0 -0.26883853297E+03  0.39435522759E+02 -0.39347536990E+03  0.48681011311E+03  0.91279254177E+02 0.  0.
        -24    2    1    2    0    0  0.25852136259E+03 -0.58476710950E+02 -0.11765316874E+04  0.12088087095E+04  0.82090584645E+02 0.  0.
         11    1    4    4    0    0  0.18892268848E+03 -0.42242441625E+02 -0.99613286759E+03  0.10147693807E+04  0.00000000000E+00 0. -1.
        -12    1    4    4    0    0  0.69598674113E+02 -0.16234269326E+02 -0.18039881981E+03  0.19403932882E+03  0.00000000000E+00 0.  1.
        -11    1    3    3    0    0 -0.22261334628E+03  0.12672164653E+02 -0.25694334487E+03  0.34020165810E+03  0.00000000000E+00 0.  1.
         11    1    3    3    0    0 -0.46225186685E+02  0.26763358107E+02 -0.13653202503E+03  0.14660845501E+03  0.00000000000E+00 0. -1.
         21    1    1    2  502  501  0.10317170375E+02  0.19041188191E+02 -0.26733195142E+02  0.34404572004E+02  0.00000000000E+00 0. -1.
<scales pt_clust_5="13000.00000" pt_clust_6="13000.00000" pt_clust_7="13000.00000" pt_clust_8="13000.00000" pt_clust_9="21.65666"></scales>
<clustering>
<clus scale="   21.657">  1  9  2 -1</clus>
<clus scale="   82.091">  5  6 -1 -1</clus>
<clus scale="   91.279">  7  8 -1 -1</clus>
<clus scale="  278.964">  2  5  1 -1</clus>
<clus scale="  278.964">  2  5  1 -1</clus>
</clustering>
</event>
<event>
 9    1  0.6106093E-005  0.1025577E+03  0.7546771E-02  0.1278454E+00
          3   -1    0    0  502    0  0.00000000000E+00  0.00000000000E+00  0.13847322759E+02  0.13847322759E+02  0.00000000000E+00 0. -1.
         -4   -1    0    0    0  501 -0.00000000000E+00 -0.00000000000E+00 -0.11451327949E+04  0.11451327949E+04  0.00000000000E+00 0.  1.
        -24    2    1    2    0    0 -0.31952864064E+01  0.58918500343E+02 -0.66422661757E+03  0.67163837289E+03  0.80121813009E+02 0.  0.
         23    2    1    2    0    0  0.33799657949E+02 -0.36060476774E+02 -0.34789680441E+03  0.36220697343E+03  0.87857442585E+02 0.  0.
         11    1    3    3    0    0 -0.25796877306E+02  0.25089760595E+02 -0.10621226573E+03  0.11214285692E+03  0.00000000000E+00 0. -1.
        -12    1    3    3    0    0  0.22601590900E+02  0.33828739748E+02 -0.55801435183E+03  0.55949551597E+03  0.00000000000E+00 0.  1.
        -11    1    4    4    0    0 -0.19021884293E+02  0.13909343772E+02 -0.13980722614E+03  0.14177927354E+03  0.00000000000E+00 0.  1.
         11    1    4    4    0    0  0.52821542241E+02 -0.49969820546E+02 -0.20808957827E+03  0.22042769988E+03  0.00000000000E+00 0. -1.
         21    1    1    2  502  501 -0.30604371542E+02 -0.22858023568E+02 -0.11916205017E+03  0.12513477134E+03  0.00000000000E+00 0.  1.
<scales pt_clust_5="13000.00000" pt_clust_6="13000.00000" pt_clust_7="13000.00000" pt_clust_8="13000.00000" pt_clust_9="38.19839"></scales>
<clustering>
<clus scale="   38.198">  1  9  2 -1</clus>
<clus scale="   80.122">  5  6 -1 -1</clus>
<clus scale="   87.857">  7  8 -1 -1</clus>
<clus scale="   96.014">  2  5  1 -1</clus>
<clus scale="   38.198">  1  5  2 -1</clus>
</clustering>
</event>
<event>
 9    1  0.6106093E-005  0.8988275E+02  0.7546771E-02  0.1313348E+00
         -2   -1    0    0    0  501 -0.00000000000E+00  0.00000000000E+00  0.33839832376E+02  0.33839832376E+02  0.00000000000E+00 0.  1.
          1   -1    0    0  502    0  0.00000000000E+00 -0.00000000000E+00 -0.42452481466E+03  0.42452481466E+03  0.00000000000E+00 0. -1.
        -24    2    1    2    0    0 -0.13275593042E+02 -0.11080603617E+02 -0.56490197778E+02  0.94414568783E+02  0.73647452138E+02 0.  0.
         23    2    1    2    0    0  0.23290761838E+01 -0.18537730413E+02 -0.31290022883E+03  0.32586425355E+03  0.89061139068E+02 0.  0.
         13    1    3    3    0    0 -0.11678180338E+02 -0.32645028146E+02 -0.62933105904E+02  0.71851608036E+02  0.00000000000E+00 0. -1.
        -14    1    3    3    0    0 -0.15974127044E+01  0.21564424528E+02  0.64429081255E+01  0.22562960748E+02  0.00000000000E+00 0.  1.
        -11    1    4    4    0    0  0.35686289212E+02 -0.34497009700E+02 -0.22665356684E+03  0.23202455533E+03  0.00000000000E+00 0. -1.
         11    1    4    4    0    0 -0.33357213028E+02  0.15959279287E+02 -0.86246661995E+02  0.93839698218E+02  0.00000000000E+00 0.  1.
         21    1    1    2  502  501  0.10946516858E+02  0.29618334030E+02 -0.21294555671E+02  0.38085824703E+02  0.00000000000E+00 0.  1.
<scales pt_clust_5="13000.00000" pt_clust_6="13000.00000" pt_clust_7="13000.00000" pt_clust_8="13000.00000" pt_clust_9="31.57645"></scales>
<clustering>
<clus scale="   31.576">  1  9  2 -1</clus>
<clus scale="   73.647">  5  6 -1 -1</clus>
<clus scale="   74.639">  1  5  2 -1</clus>
<clus scale="   89.061">  7  8 -1 -1</clus>
<clus scale="   89.883">  2  5  1 -1</clus>
</clustering>
</event>
<event>
 9    1  0.6106093E-005  0.1143021E+03  0.7546771E-02  0.1254384E+00
          1   -1    0    0  502    0  0.00000000000E+00  0.00000000000E+00  0.31657355146E+03  0.31657355146E+03  0.00000000000E+00 0. -1.
         -2   -1    0    0    0  501 -0.00000000000E+00 -0.00000000000E+00 -0.21281831883E+03  0.21281831883E+03  0.00000000000E+00 0.  1.
        -24    2    1    2    0    0  0.46274095772E+02 -0.45601850097E+02 -0.63381759575E+02  0.12175528731E+03  0.81155910874E+02 0.  0.
         23    2    1    2    0    0  0.22728713812E+02  0.77921884684E+02  0.26113310381E+03  0.28663558561E+03  0.85913016998E+02 0.  0.
         11    1    3    3    0    0  0.26053772845E+02 -0.21208987495E+01  0.14800195161E+02  0.30039025746E+02  0.00000000000E+00 0. -1.
        -12    1    3    3    0    0  0.20220322927E+02 -0.43480951348E+02 -0.78181954736E+02  0.91716261567E+02  0.00000000000E+00 0.  1.
        -13    1    4    4    0    0  0.11161565546E+02 -0.16849378632E+02  0.26547872365E+02  0.33365725421E+02  0.00000000000E+00 0.  1.
         13    1    4    4    0    0  0.11567148266E+02  0.94771263316E+02  0.23458523144E+03  0.25326986019E+03  0.00000000000E+00 0. -1.
         21    1    1    2  502  501 -0.69002809584E+02 -0.32320034587E+02 -0.93996111609E+02  0.12100099737E+03  0.00000000000E+00 0.  1.
<scales pt_clust_5="13000.00000" pt_clust_6="13000.00000" pt_clust_7="13000.00000" pt_clust_8="13000.00000" pt_clust_9="76.19693"></scales>
<clustering>
<clus scale="   76.197">  2  9  1 -1</clus>
<clus scale="   81.156">  5  6 -1 -1</clus>
<clus scale="   85.913">  7  8 -1 -1</clus>
<clus scale="  110.771">  2  5  1 -1</clus>
<clus scale="  114.302">  1  5  2 -1</clus>
</clustering>
</event>
<event>
 9    1  0.6106093E-005  0.1010552E+03  0.7546771E-02  0.1283957E+00
          1   -1    0    0  502    0  0.00000000000E+00  0.00000000000E+00  0.49841207325E+03  0.49841207325E+03  0.00000000000E+00 0. -1.
         -2   -1    0    0    0  501 -0.00000000000E+00 -0.00000000000E+00 -0.29660135009E+02  0.29660135009E+02  0.00000000000E+00 0.  1.
        -24    2    1    2    0    0 -0.60176685695E+02  0.72110322955E+00  0.15642765993E+03  0.18611951068E+03  0.80926546772E+02 0.  0.
         23    2    1    2    0    0  0.28734197988E+02  0.80436550244E+01  0.27813451404E+03  0.29468335232E+03  0.92677482238E+02 0.  0.
         11    1    3    3    0    0 -0.37740292282E+02  0.21068822726E+02  0.22342862988E+02  0.48656227547E+02  0.00000000000E+00 0. -1.
        -12    1    3    3    0    0 -0.22436393413E+02 -0.20347719496E+02  0.13408479694E+03  0.13746328313E+03  0.00000000000E+00 0.  1.
        -13    1    4    4    0    0  0.15365544010E+02 -0.40846746504E+02  0.92907130310E+02  0.10264643932E+03  0.00000000000E+00 0.  1.
         13    1    4    4    0    0  0.13368653978E+02  0.48890401529E+02  0.18522738373E+03  0.19203691300E+03  0.00000000000E+00 0. -1.
         21    1    1    2  502  501  0.31442487708E+02 -0.87647582540E+01  0.34189764266E+02  0.47269345257E+02  0.00000000000E+00 0.  1.
<scales pt_clust_5="13000.00000" pt_clust_6="13000.00000" pt_clust_7="13000.00000" pt_clust_8="13000.00000" pt_clust_9="32.64125"></scales>
<clustering>
<clus scale="   32.641">  2  9  1 -1</clus>
<clus scale="   80.927">  5  6 -1 -1</clus>
<clus scale="   90.400">  2  5  1 -1</clus>
<clus scale="   92.677">  7  8 -1 -1</clus>
<clus scale="  101.055">  1  5  2 -1</clus>
</clustering>
</event>
<event>
 9    1  0.6106093E-005  0.1000070E+03  0.7546771E-02  0.1285881E+00
         -2   -1    0    0    0  501 -0.00000000000E+00  0.00000000000E+00  0.84210553272E+02  0.84210553272E+02  0.00000000000E+00 0.  1.
          1   -1    0    0  502    0  0.00000000000E+00 -0.00000000000E+00 -0.48249041589E+03  0.48249041589E+03  0.00000000000E+00 0. -1.
        -24    2    1    2    0    0  0.20428392388E+01  0.77524430940E+01 -0.90422862160E+02  0.12140774100E+03  0.80618062544E+02 0.  0.
         23    2    1    2    0    0 -0.58559799410E+02  0.20215087978E+02 -0.35156141705E+03  0.36857018331E+03  0.91709597011E+02 0.  0.
         13    1    3    3    0    0 -0.14577247379E+02  0.39134604065E+02 -0.66721489647E+02  0.78713217170E+02  0.00000000000E+00 0. -1.
        -14    1    3    3    0    0  0.16620086618E+02 -0.31382160971E+02 -0.23701372514E+02  0.42694523834E+02  0.00000000000E+00 0.  1.
        -11    1    4    4    0    0 -0.58991679970E+02  0.47404580333E+02 -0.30845735577E+03  0.31760534137E+03  0.00000000000E+00 0.  1.
         11    1    4    4    0    0  0.43188055953E+00 -0.27189492354E+02 -0.43104061279E+02  0.50964841941E+02  0.00000000000E+00 0. -1.
         21    1    1    2  502  501  0.56516960171E+02 -0.27967531072E+02  0.43704416587E+02  0.76723044846E+02  0.00000000000E+00 0. -1.
<scales pt_clust_5="13000.00000" pt_clust_6="13000.00000" pt_clust_7="13000.00000" pt_clust_8="13000.00000" pt_clust_9="63.05830"></scales>
<clustering>
<clus scale="   63.058">  1  9  2 -1</clus>
<clus scale="   80.618">  5  6 -1 -1</clus>
<clus scale="   89.945">  1  5  2 -1</clus>
<clus scale="   91.710">  7  8 -1 -1</clus>
<clus scale="  100.007">  2  5  1 -1</clus>
</clustering>
</event>
<event>
 9    1  0.6106093E-005  0.1789260E+03  0.7546771E-02  0.1171095E+00
         -4   -1    0    0    0  501 -0.00000000000E+00  0.00000000000E+00  0.69696442507E+03  0.69696442507E+03  0.00000000000E+00 0.  1.
          3   -1    0    0  502    0  0.00000000000E+00 -0.00000000000E+00 -0.92686291770E+02  0.92686291770E+02  0.00000000000E+00 0. -1.
         23    2    1    2    0    0  0.15724721489E+03  0.50625482969E+02  0.47938461753E+03  0.51512517370E+03  0.90855417785E+02 0.  0.
        -24    2    1    2    0    0 -0.13642275492E+03 -0.11714100407E+02  0.15674728898E+03  0.22009745577E+03  0.71587633172E+02 0.  0.
         11    1    4    4    0    0 -0.24670387665E+02 -0.21028384513E+02  0.72525902392E+01  0.33217782104E+02  0.00000000000E+00 0. -1.
        -12    1    4    4    0    0 -0.11175236726E+03  0.93142841062E+01  0.14949469875E+03  0.18687967366E+03  0.00000000000E+00 0.  1.
        -11    1    3    3    0    0  0.89753985220E+02  0.34938038623E+02  0.39169412396E+03  0.40336178692E+03  0.00000000000E+00 0.  1.
         11    1    3    3    0    0  0.67493229675E+02  0.15687444346E+02  0.87690493573E+02  0.11176338678E+03  0.00000000000E+00 0. -1.
         21    1    1    2  502  501 -0.20824459975E+02 -0.38911382562E+02 -0.31853773218E+02  0.54428087366E+02  0.00000000000E+00 0. -1.
<scales pt_clust_5="13000.00000" pt_clust_6="13000.00000" pt_clust_7="13000.00000" pt_clust_8="13000.00000" pt_clust_9="44.13336"></scales>
<clustering>
<clus scale="   44.133">  2  9  1 -1</clus>
<clus scale="   71.588">  5  6 -1 -1</clus>
<clus scale="   90.855">  7  8 -1 -1</clus>
<clus scale="  169.955">  2  5  1 -1</clus>
<clus scale="   44.133">  2  5  1 -1</clus>
</clustering>
</event>
<event>
 9    1  0.6106093E-005  0.9594755E+02  0.7546771E-02  0.1296425E+00
         -4   -1    0    0    0  501 -0.00000000000E+00  0.00000000000E+00  0.39815729783E+03  0.39815729783E+03  0.00000000000E+00 0.  1.
          3   -1    0    0  502    0  0.00000000000E+00 -0.00000000000E+00 -0.13373524669E+03  0.13373524669E+03  0.00000000000E+00 0. -1.
         23    2    1    2    0    0  0.15489573809E+00  0.15711387740E+02  0.21144361233E+03  0.23079939468E+03  0.91176135548E+02 0.  0.
        -24    2    1    2    0    0 -0.27771827973E+02  0.16667850341E+02 -0.10652728878E+03  0.13600775636E+03  0.78108609463E+02 0.  0.
         11    1    4    4    0    0 -0.29051245300E+02  0.34315688540E+02 -0.10921761864E+03  0.11811024323E+03  0.00000000000E+00 0. -1.
        -12    1    4    4    0    0  0.12794173274E+01 -0.17647838199E+02  0.26903298591E+01  0.17897513139E+02  0.00000000000E+00 0.  1.
        -13    1    3    3    0    0 -0.43531944591E+02  0.50733349865E+01  0.72040801440E+02  0.84324646455E+02  0.00000000000E+00 0. -1.
         13    1    3    3    0    0  0.43686840329E+02  0.10638052753E+02  0.13940281089E+03  0.14647474823E+03  0.00000000000E+00 0.  1.
         21    1    1    2  502  501  0.27616932235E+02 -0.32379238081E+02  0.15950572759E+03  0.16508539347E+03  0.00000000000E+00 0.  1.
<scales pt_clust_5="13000.00000" pt_clust_6="13000.00000" pt_clust_7="13000.00000" pt_clust_8="13000.00000" pt_clust_9="42.55714"></scales>
<clustering>
<clus scale="   42.557">  1  9  2 -1</clus>
<clus scale="   78.109">  5  6 -1 -1</clus>
<clus scale="   83.629">  2  5  1 -1</clus>
<clus scale="   91.176">  7  8 -1 -1</clus>
<clus scale="   83.629">  2  5  1 -1</clus>
</clustering>
</event>
<event>
 9    1  0.6106093E-005  0.8499400E+02  0.7546771E-02  0.1316286E+00
          1   -1    0    0  502    0  0.00000000000E+00  0.00000000000E+00  0.12958982064E+03  0.12958982064E+03  0.00000000000E+00 0. -1.
         -2   -1    0    0    0  501 -0.00000000000E+00 -0.00000000000E+00 -0.16857227095E+03  0.16857227095E+03  0.00000000000E+00 0.  1.
        -24    2    1    2    0    0 -0.17307069136E+02  0.34255879689E+02 -0.28285156331E+02  0.94318710545E+02  0.81381626642E+02 0.  0.
         23    2    1    2    0    0  0.71142227590E+01 -0.12072809207E+02  0.76363149711E+02  0.11342488964E+03  0.82689237921E+02 0.  0.
         13    1    3    3    0    0  0.11803995560E+02  0.42462811634E+02  0.10330975668E+02  0.45267579362E+02  0.00000000000E+00 0. -1.
        -14    1    3    3    0    0 -0.29111064696E+02 -0.82069319455E+01 -0.38616131999E+02  0.49051131183E+02  0.00000000000E+00 0.  1.
        -11    1    4    4    0    0 -0.37688114520E+02 -0.94243929154E+01  0.32184003220E+02  0.50448223171E+02  0.00000000000E+00 0.  1.
         11    1    4    4    0    0  0.44802337279E+02 -0.26484162916E+01  0.44179146491E+02  0.62976666466E+02  0.00000000000E+00 0. -1.
         21    1    1    2  502  501  0.10192846377E+02 -0.22183070482E+02 -0.87060443687E+02  0.90418491407E+02  0.00000000000E+00 0.  1.
<scales pt_clust_5="13000.00000" pt_clust_6="13000.00000" pt_clust_7="13000.00000" pt_clust_8="13000.00000" pt_clust_9="24.41276"></scales>
<clustering>
<clus scale="   24.413">  2  9  1 -1</clus>
<clus scale="   81.382">  5  6 -1 -1</clus>
<clus scale="   82.689">  7  8 -1 -1</clus>
<clus scale="   83.722">  2  5  1 -1</clus>
<clus scale="   84.994">  1  5  2 -1</clus>
</clustering>
</event>
<event>
 9    1  0.6106093E-005  0.1095374E+03  0.7546771E-02  0.1267116E+00
          1   -1    0    0  502    0  0.00000000000E+00  0.00000000000E+00  0.19155465922E+03  0.19155465922E+03  0.00000000000E+00 0. -1.
         -2   -1    0    0    0  501 -0.00000000000E+00 -0.00000000000E+00 -0.10729847295E+03  0.10729847295E+03  0.00000000000E+00 0.  1.
        -24    2    1    2    0    0  0.42624369976E+02  0.68036979990E+02 -0.19575278840E+02  0.11478162702E+03  0.79660296251E+02 0.  0.
         23    2    1    2    0    0 -0.16633726990E+02 -0.47181736932E+02  0.10697234519E+03  0.15060032630E+03  0.93458966780E+02 0.  0.
         13    1    3    3    0    0 -0.34436856185E+01  0.63399598871E+02  0.23829365257E+01  0.63537756445E+02  0.00000000000E+00 0. -1.
        -14    1    3    3    0    0  0.46068055594E+02  0.46373811191E+01 -0.21958215366E+02  0.51243870579E+02  0.00000000000E+00 0.  1.
        -13    1    4    4    0    0 -0.54749241074E+02 -0.33009284968E+02  0.77015038554E+02  0.10009199996E+03  0.00000000000E+00 0. -1.
         13    1    4    4    0    0  0.38115514084E+02 -0.14172451964E+02  0.29957306639E+02  0.50508326340E+02  0.00000000000E+00 0.  1.
         21    1    1    2  502  501 -0.25990642986E+02 -0.20855243057E+02 -0.31408800839E+01  0.33471178849E+02  0.00000000000E+00 0. -1.
<scales pt_clust_5="13000.00000" pt_clust_6="13000.00000" pt_clust_7="13000.00000" pt_clust_8="13000.00000" pt_clust_9="33.32349"></scales>
<clustering>
<clus scale="   33.323">  2  9  1 -1</clus>
<clus scale="   79.660">  5  6 -1 -1</clus>
<clus scale="   93.459">  7  8 -1 -1</clus>
<clus scale="   98.029">  2  5  1 -1</clus>
<clus scale="  109.537">  1  5  2 -1</clus>
</clustering>
</event>
<event>
 9    1  0.6106093E-005  0.9446848E+02  0.7546771E-02  0.1299182E+00
         -2   -1    0    0    0  501 -0.00000000000E+00  0.00000000000E+00  0.23164076710E+03  0.23164076710E+03  0.00000000000E+00 0.  1.
          1   -1    0    0  502    0  0.00000000000E+00 -0.00000000000E+00 -0.81303347973E+02  0.81303347973E+02  0.00000000000E+00 0. -1.
         23    2    1    2    0    0 -0.83522864580E+01 -0.24345522801E+02  0.16908763712E+03  0.19428786366E+03  0.92166587061E+02 0.  0.
        -24    2    1    2    0    0  0.66870127385E+01 -0.53251581893E+01 -0.30585746127E+02  0.86668719879E+02  0.80640595795E+02 0.  0.
         13    1    4    4    0    0 -0.15020585863E+02  0.16385963745E+02 -0.46900392095E+02  0.51901489248E+02  0.00000000000E+00 0. -1.
        -14    1    4    4    0    0  0.21707598602E+02 -0.21711121935E+02  0.16314645967E+02  0.34767230631E+02  0.00000000000E+00 0.  1.
        -11    1    3    3    0    0  0.35584717099E+02  0.11620259701E+01  0.31204632400E+02  0.47342913710E+02  0.00000000000E+00 0.  1.
         11    1    3    3    0    0 -0.43937003557E+02 -0.25507548771E+02  0.13788300472E+03  0.14694494995E+03  0.00000000000E+00 0. -1.
         21    1    1    2  502  501  0.16652737195E+01  0.29670680991E+02  0.11835528129E+02  0.31987531526E+02  0.00000000000E+00 0.  1.
<scales pt_clust_5="13000.00000" pt_clust_6="13000.00000" pt_clust_7="13000.00000" pt_clust_8="13000.00000" pt_clust_9="29.71738"></scales>
<clustering>
<clus scale="   29.717">  2  9  1 -1</clus>
<clus scale="   80.641">  5  6 -1 -1</clus>
<clus scale="   83.262">  2  5  1 -1</clus>
<clus scale="   92.167">  7  8 -1 -1</clus>
<clus scale="   29.717">  2  5  1 -1</clus>
</clustering>
</event>
<event>
 9    1  0.6106093E-005  0.1462645E+03  0.7546771E-02  0.1207301E+00
          1   -1    0    0  502    0  0.00000000000E+00  0.00000000000E+00  0.27284418722E+03  0.27284418722E+03  0.00000000000E+00 0. -1.
         -2   -1    0    0    0  501 -0.00000000000E+00 -0.00000000000E+00 -0.96727627679E+02  0.96727627679E+02  0.00000000000E+00 0.  1.
         23    2    1    2    0    0 -0.60047291066E+01  0.12254981637E+03  0.52793849604E+02  0.16233781813E+03  0.92259754906E+02 0.  0.
        -24    2    1    2    0    0 -0.13387855812E+02 -0.10820586384E+03  0.12257207263E+03  0.18310134708E+03  0.81329248502E+02 0.  0.
         13    1    4    4    0    0 -0.37569998764E+02 -0.42693524162E+02  0.22693438173E+02  0.61230988466E+02  0.00000000000E+00 0. -1.
        -14    1    4    4    0    0  0.24182142952E+02 -0.65512339673E+02  0.99878634461E+02  0.12187035862E+03  0.00000000000E+00 0.  1.
        -11    1    3    3    0    0  0.27330230246E+02  0.10798418451E+03  0.19617829967E+02  0.11310342542E+03  0.00000000000E+00 0.  1.
         11    1    3    3    0    0 -0.33334959353E+02  0.14565631864E+02  0.33176019637E+02  0.49234392711E+02  0.00000000000E+00 0. -1.
         21    1    1    2  502  501  0.19392584918E+02 -0.14343952539E+02  0.75063730032E+00  0.24132649681E+02  0.00000000000E+00 0.  1.
<scales pt_clust_5="13000.00000" pt_clust_6="13000.00000" pt_clust_7="13000.00000" pt_clust_8="13000.00000" pt_clust_9="24.12097"></scales>
<clustering>
<clus scale="   24.121">  2  9  1 -1</clus>
<clus scale="   81.329">  5  6 -1 -1</clus>
<clus scale="   92.260">  7  8 -1 -1</clus>
<clus scale="  139.628">  1  5  2 -1</clus>
<clus scale="  139.628">  1  5  2 -1</clus>
</clustering>
</event>
<event>
 9    1  0.6106093E-005  0.9968991E+02  0.7546771E-02  0.1287680E+00
         -2   -1    0    0    0  501 -0.00000000000E+00  0.00000000000E+00  0.40388424649E+03  0.40388424649E+03  0.00000000000E+00 0.  1.
          1   -1    0    0  502    0  0.00000000000E+00 -0.00000000000E+00 -0.92547235846E+02  0.92547235846E+02  0.00000000000E+00 0. -1.
        -24    2    1    2    0    0 -0.16409830850E+02  0.99307255722E+00  0.24174959895E+03  0.25407380558E+03  0.76422256859E+02 0.  0.
         23    2    1    2    0    0  0.46136049372E+02 -0.54302244667E+01 -0.54352205684E+02  0.11482585665E+03  0.89848721217E+02 0.  0.
         11    1    3    3    0    0  0.25054003214E+02 -0.18926931276E+02  0.81041963742E+02  0.86912206805E+02  0.00000000000E+00 0. -1.
        -12    1    3    3    0    0 -0.41463834064E+02  0.19920003833E+02  0.16070763521E+03  0.16716159877E+03  0.00000000000E+00 0.  1.
        -11    1    4    4    0    0 -0.34592481416E+00 -0.35199646985E+02 -0.47621220059E+02  0.59219214886E+02  0.00000000000E+00 0. -1.
         11    1    4    4    0    0  0.46481974186E+02  0.29769422518E+02 -0.67309856251E+01  0.55606641769E+02  0.00000000000E+00 0.  1.
         21    1    1    2  502  501 -0.29726218522E+02  0.44371519095E+01  0.12393961737E+03  0.12753182010E+03  0.00000000000E+00 0.  1.
<scales pt_clust_5="13000.00000" pt_clust_6="13000.00000" pt_clust_7="13000.00000" pt_clust_8="13000.00000" pt_clust_9="30.05555"></scales>
<clustering>
<clus scale="   30.056">  1  9  2 -1</clus>
<clus scale="   76.422">  5  6 -1 -1</clus>
<clus scale="   87.782">  1  5  2 -1</clus>
<clus scale="   89.849">  7  8 -1 -1</clus>
<clus scale="   99.690">  2  5  1 -1</clus>
</clustering>
</event>
<event>
 9    1  0.6106093E-005  0.9938380E+02  0.7546771E-02  0.1282455E+00
          1   -1    0    0  502    0  0.00000000000E+00  0.00000000000E+00  0.11815094927E+03  0.11815094927E+03  0.00000000000E+00 0. -1.
         -2   -1    0    0    0  501 -0.00000000000E+00 -0.00000000000E+00 -0.39592521913E+03  0.39592521913E+03  0.00000000000E+00 0.  1.
        -24    2    1    2    0    0  0.31817540720E+02  0.22344957052E+02 -0.20511831049E+03  0.22394670243E+03  0.81036727659E+02 0.  0.
         23    2    1    2    0    0 -0.58028797868E+02  0.19716592371E+02  0.80977005952E+02  0.12870055908E+03  0.79059933083E+02 0.  0.
         13    1    3    3    0    0 -0.23979632390E+02  0.23510853702E+02 -0.66030555726E+02  0.74079803596E+02  0.00000000000E+00 0. -1.
        -14    1    3    3    0    0  0.55797173110E+02 -0.11658966498E+01 -0.13908775476E+03  0.14986689884E+03  0.00000000000E+00 0.  1.
        -13    1    4    4    0    0 -0.12375383805E+02  0.26967638373E+02 -0.59357732159E+01  0.30259495162E+02  0.00000000000E+00 0.  1.
         13    1    4    4    0    0 -0.45653414063E+02 -0.72510460023E+01  0.86912779167E+02  0.98441063923E+02  0.00000000000E+00 0. -1.
         21    1    1    2  502  501  0.26211257148E+02 -0.42061549423E+02 -0.15363296533E+03  0.16142890688E+03  0.00000000000E+00 0.  1.
<scales pt_clust_5="13000.00000" pt_clust_6="13000.00000" pt_clust_7="13000.00000" pt_clust_8="13000.00000" pt_clust_9="49.56010"></scales>
<clustering>
<clus scale="   49.560">  2  9  1 -1</clus>
<clus scale="   79.060">  7  8 -1 -1</clus>
<clus scale="   81.037">  5  6 -1 -1</clus>
<clus scale="   97.779">  1  7  2 -1</clus>
<clus scale="   97.779">  1  5  2 -1</clus>
</clustering>
</event>
<event>
 9    1  0.6106093E-005  0.9376414E+02  0.7546771E-02  0.1302677E+00
          1   -1    0    0  502    0  0.00000000000E+00  0.00000000000E+00  0.16461235200E+03  0.16461235200E+03  0.00000000000E+00 0. -1.
         -2   -1    0    0    0  501 -0.00000000000E+00 -0.00000000000E+00 -0.14724337646E+03  0.14724337646E+03  0.00000000000E+00 0.  1.
         23    2    1    2    0    0  0.65597246317E+00 -0.18716948865E+02 -0.88888437239E+02  0.12898096924E+03  0.91565177199E+02 0.  0.
        -24    2    1    2    0    0 -0.19448776327E+02  0.88366977490E+01  0.12893005108E+03  0.15181292788E+03  0.77251957079E+02 0.  0.
         13    1    4    4    0    0 -0.23007209324E+02 -0.11061519994E+01  0.13674750977E+03  0.13867385002E+03  0.00000000000E+00 0. -1.
        -14    1    4    4    0    0  0.35584329978E+01  0.99428497484E+01 -0.78174586888E+01  0.13139077855E+02  0.00000000000E+00 0.  1.
        -11    1    3    3    0    0  0.17325133323E+01 -0.55400273185E+02 -0.42584450599E+02  0.69897262495E+02  0.00000000000E+00 0. -1.
         11    1    3    3    0    0 -0.10765408691E+01  0.36683324320E+02 -0.46303986640E+02  0.59083706741E+02  0.00000000000E+00 0.  1.
         21    1    1    2  502  501  0.18792803863E+02  0.98802511159E+01 -0.22672638295E+02  0.31061831344E+02  0.00000000000E+00 0.  1.
<scales pt_clust_5="13000.00000" pt_clust_6="13000.00000" pt_clust_7="13000.00000" pt_clust_8="13000.00000" pt_clust_9="21.23179"></scales>
<clustering>
<clus scale="   21.232">  2  9  1 -1</clus>
<clus scale="   77.252">  5  6 -1 -1</clus>
<clus scale="   79.846">  1  5  2 -1</clus>
<clus scale="   91.565">  7  8 -1 -1</clus>
<clus scale="   79.846">  1  5  2 -1</clus>
</clustering>
</event>
<event>
 9    1  0.6106093E-005  0.1025347E+03  0.7546771E-02  0.1280016E+00
          1   -1    0    0  502    0  0.00000000000E+00  0.00000000000E+00  0.16292620718E+03  0.16292620718E+03  0.00000000000E+00 0. -1.
         -2   -1    0    0    0  501 -0.00000000000E+00 -0.00000000000E+00 -0.89972381146E+02  0.89972381146E+02  0.00000000000E+00 0.  1.
         23    2    1    2    0    0 -0.66540766879E+02  0.17181339543E+02  0.23734149712E+02  0.11571251637E+03  0.90017801000E+02 0.  0.
        -24    2    1    2    0    0  0.31141431468E+02 -0.24391805027E+02  0.48575595957E+02  0.10105411104E+03  0.79294362533E+02 0.  0.
         11    1    4    4    0    0  0.46640816344E+02 -0.31313782313E+02  0.58731571477E+02  0.81273096410E+02  0.00000000000E+00 0. -1.
        -12    1    4    4    0    0 -0.15499384876E+02  0.69219772862E+01 -0.10155975520E+02  0.19781014631E+02  0.00000000000E+00 0.  1.
        -11    1    3    3    0    0 -0.17242698474E+02  0.12163166042E+02  0.53773636867E+02  0.57765537137E+02  0.00000000000E+00 0. -1.
         11    1    3    3    0    0 -0.49298068405E+02  0.50181735014E+01 -0.30039487155E+02  0.57946979233E+02  0.00000000000E+00 0.  1.
         21    1    1    2  502  501  0.35399335411E+02  0.72104654833E+01  0.64408036472E+00  0.36131960915E+02  0.00000000000E+00 0. -1.
<scales pt_clust_5="13000.00000" pt_clust_6="13000.00000" pt_clust_7="13000.00000" pt_clust_8="13000.00000" pt_clust_9="36.12622"></scales>
<clustering>
<clus scale="   36.126">  2  9  1 -1</clus>
<clus scale="   79.294">  5  6 -1 -1</clus>
<clus scale="   90.018">  7  8 -1 -1</clus>
<clus scale="   93.262">  1  5  2 -1</clus>
<clus scale="   93.262">  1  5  2 -1</clus>
</clustering>
</event>
<event>
 9    1  0.6106093E-005  0.9724589E+02  0.7546771E-02  0.1293694E+00
         -2   -1    0    0    0  501 -0.00000000000E+00  0.00000000000E+00  0.20771069051E+03  0.20771069051E+03  0.00000000000E+00 0.  1.
          1   -1    0    0  502    0  0.00000000000E+00 -0.00000000000E+00 -0.90244733809E+02  0.90244733809E+02  0.00000000000E+00 0. -1.
         23    2    1    2    0    0  0.13353920919E+02  0.49500909269E+01  0.81510924613E+02  0.12363769434E+03  0.91866305178E+02 0.  0.
        -24    2    1    2    0    0 -0.18830242171E+01 -0.39259774446E+02 -0.35290652142E+02  0.94413516222E+02  0.78253474345E+02 0.  0.
         11    1    4    4    0    0  0.32118523453E+02 -0.42611064348E+02 -0.20060306016E+02  0.57006299925E+02  0.00000000000E+00 0. -1.
        -12    1    4    4    0    0 -0.34001547670E+02  0.33512899019E+01 -0.15230346126E+02  0.37407216297E+02  0.00000000000E+00 0.  1.
        -13    1    3    3    0    0  0.30706126857E+02  0.16350612628E+02  0.93430726427E+02  0.99697088225E+02  0.00000000000E+00 0.  1.
         13    1    3    3    0    0 -0.17352205938E+02 -0.11400521701E+02 -0.11919801815E+02  0.23940606117E+02  0.00000000000E+00 0. -1.
         21    1    1    2  502  501 -0.11470896702E+02  0.34309683519E+02  0.71245684234E+02  0.79904213759E+02  0.00000000000E+00 0.  1.
<scales pt_clust_5="13000.00000" pt_clust_6="13000.00000" pt_clust_7="13000.00000" pt_clust_8="13000.00000" pt_clust_9="36.17645"></scales>
<clustering>
<clus scale="   36.176">  1  9  2 -1</clus>
<clus scale="   78.253">  5  6 -1 -1</clus>
<clus scale="   84.504">  2  5  1 -1</clus>
<clus scale="   91.866">  7  8 -1 -1</clus>
<clus scale="   84.504">  2  5  1 -1</clus>
</clustering>
</event>
<event>
 9    1  0.6106093E-005  0.9388591E+02  0.7546771E-02  0.1298155E+00
         -4   -1    0    0    0  501 -0.00000000000E+00  0.00000000000E+00  0.16657810693E+03  0.16657810693E+03  0.00000000000E+00 0.  1.
          3   -1    0    0  502    0  0.00000000000E+00 -0.00000000000E+00 -0.13531618480E+03  0.13531618480E+03  0.00000000000E+00 0. -1.
        -24    2    1    2    0    0 -0.47930053948E+02  0.18320377436E+02  0.11978982332E+02  0.97322874917E+02  0.81824933019E+02 0.  0.
         23    2    1    2    0    0  0.18465958875E+02 -0.13661490163E+00 -0.65790204236E+02  0.11272250852E+03  0.89649331586E+02 0.  0.
         13    1    3    3    0    0 -0.21707348641E+02  0.29471995780E+02 -0.29491545415E+02  0.47005944000E+02  0.00000000000E+00 0. -1.
        -14    1    3    3    0    0 -0.26222705307E+02 -0.11151618344E+02  0.41470527747E+02  0.50316930917E+02  0.00000000000E+00 0.  1.
        -13    1    4    4    0    0  0.38077552343E+02  0.17829955044E+02 -0.30971656914E+00  0.42046441153E+02  0.00000000000E+00 0.  1.
         13    1    4    4    0    0 -0.19611593468E+02 -0.17966569946E+02 -0.65480487667E+02  0.70676067371E+02  0.00000000000E+00 0. -1.
         21    1    1    2  502  501  0.29464095073E+02 -0.18183762535E+02  0.85073144028E+02  0.91848908285E+02  0.00000000000E+00 0.  1.
<scales pt_clust_5="13000.00000" pt_clust_6="13000.00000" pt_clust_7="13000.00000" pt_clust_8="13000.00000" pt_clust_9="34.62343"></scales>
<clustering>
<clus scale="   34.623">  1  9  2 -1</clus>
<clus scale="   81.825">  5  6 -1 -1</clus>
<clus scale="   86.446">  1  5  2 -1</clus>
<clus scale="   89.649">  7  8 -1 -1</clus>
<clus scale="   93.886">  2  5  1 -1</clus>
</clustering>
</event>
<event>
 9    1  0.6106093E-005  0.1914039E+03  0.7546771E-02  0.1158480E+00
          1   -1    0    0  502    0  0.00000000000E+00  0.00000000000E+00  0.47405932036E+03  0.47405932036E+03  0.00000000000E+00 0. -1.
         -2   -1    0    0    0  501 -0.00000000000E+00 -0.00000000000E+00 -0.11055067269E+03  0.11055067269E+03  0.00000000000E+00 0.  1.
         23    2    1    2    0    0 -0.17116701714E+03 -0.83509155881E+02  0.16515396134E+03  0.26816676121E+03  0.91463949170E+02 0.  0.
        -24    2    1    2    0    0  0.15313309569E+03  0.29088758958E+02  0.19061499587E+03  0.25859252111E+03  0.78994394909E+02 0.  0.
         13    1    4    4    0    0  0.15529619273E+02 -0.21241305764E+02  0.16613421629E+02  0.31118610566E+02  0.00000000000E+00 0. -1.
        -14    1    4    4    0    0  0.13760347642E+03  0.50330064722E+02  0.17400157424E+03  0.22747391054E+03  0.00000000000E+00 0.  1.
        -11    1    3    3    0    0 -0.71483631068E+02 -0.29590086974E+02  0.12676723155E+03  0.14851065199E+03  0.00000000000E+00 0. -1.
         11    1    3    3    0    0 -0.99683386073E+02 -0.53919068906E+02  0.38386729792E+02  0.11965610923E+03  0.00000000000E+00 0.  1.
         21    1    1    2  502  501  0.18033921449E+02  0.54420396923E+02  0.77396904454E+01  0.57850710732E+02  0.00000000000E+00 0.  1.
<scales pt_clust_5="13000.00000" pt_clust_6="13000.00000" pt_clust_7="13000.00000" pt_clust_8="13000.00000" pt_clust_9="57.33064"></scales>
<clustering>
<clus scale="   57.331">  2  9  1 -1</clus>
<clus scale="   78.994">  5  6 -1 -1</clus>
<clus scale="   91.464">  7  8 -1 -1</clus>
<clus scale="  185.768">  1  5  2 -1</clus>
<clus scale="  185.768">  1  5  2 -1</clus>
</clustering>
</event>
<event>
 9    1  0.6106093E-005  0.9592902E+02  0.7546771E-02  0.1295728E+00
         -2   -1    0    0    0  501 -0.00000000000E+00  0.00000000000E+00  0.11331957015E+03  0.11331957015E+03  0.00000000000E+00 0.  1.
          1   -1    0    0  502    0  0.00000000000E+00 -0.00000000000E+00 -0.61815494320E+03  0.61815494320E+03  0.00000000000E+00 0. -1.
        -24    2    1    2    0    0  0.89477553508E+02  0.91790976512E+00  0.24856954403E+02  0.12239973555E+03  0.79729241437E+02 0.  0.
         23    2    1    2    0    0 -0.13464628125E+02  0.24088480358E+02 -0.51971959031E+03  0.52843521023E+03  0.91508293381E+02 0.  0.
         13    1    3    3    0    0  0.39852290801E+02  0.24639844101E+02 -0.20465576308E+02  0.51128923449E+02  0.00000000000E+00 0. -1.
        -14    1    3    3    0    0  0.49625262707E+02 -0.23721934336E+02  0.45322530711E+02  0.71270812100E+02  0.00000000000E+00 0.  1.
        -11    1    4    4    0    0  0.28147622900E+01  0.57901714279E+02 -0.30478416386E+03  0.31024815542E+03  0.00000000000E+00 0. -1.
         11    1    4    4    0    0 -0.16279390415E+02 -0.33813233920E+02 -0.21493542645E+03  0.21818705480E+03  0.00000000000E+00 0.  1.
         21    1    1    2  502  501 -0.76012925383E+02 -0.25006390123E+02 -0.99727371489E+01  0.80639567574E+02  0.00000000000E+00 0.  1.
<scales pt_clust_5="13000.00000" pt_clust_6="13000.00000" pt_clust_7="13000.00000" pt_clust_8="13000.00000" pt_clust_9="80.02052"></scales>
<clustering>
<clus scale="   79.729">  5  6 -1 -1</clus>
<clus scale="   80.021">  1  9  2 -1</clus>
<clus scale="   84.767">  1  5  2 -1</clus>
<clus scale="   91.508">  7  8 -1 -1</clus>
<clus scale="   95.929">  2  5  1 -1</clus>
</clustering>
</event>
<event>
 9    1  0.6106093E-005  0.1126659E+03  0.7546771E-02  0.1265927E+00
          1   -1    0    0  502    0  0.00000000000E+00  0.00000000000E+00  0.73598659124E+02  0.73598659124E+02  0.00000000000E+00 0. -1.
         -2   -1    0    0    0  501 -0.00000000000E+00 -0.00000000000E+00 -0.34779512411E+03  0.34779512411E+03  0.00000000000E+00 0.  1.
         23    2    1    2    0    0  0.92626250630E+01  0.93978043957E+01 -0.19831552845E+03  0.21975708334E+03  0.93755063339E+02 0.  0.
        -24    2    1    2    0    0 -0.51882911887E+02 -0.52269338856E+02  0.55091149296E+01  0.10025229383E+03  0.67795661667E+02 0.  0.
         13    1    4    4    0    0 -0.44562319735E+02 -0.68828880066E+02  0.45633404243E+01  0.82122099018E+02  0.00000000000E+00 0. -1.
        -14    1    4    4    0    0 -0.73205921521E+01  0.16559541210E+02  0.94577450529E+00  0.18130194813E+02  0.00000000000E+00 0.  1.
        -11    1    3    3    0    0  0.49478500377E+02  0.18682160305E+02 -0.12263947941E+03  0.13355742968E+03  0.00000000000E+00 0.  1.
         11    1    3    3    0    0 -0.40215875314E+02 -0.92843559093E+01 -0.75676049041E+02  0.86199653656E+02  0.00000000000E+00 0. -1.
         21    1    1    2  502  501  0.42620286824E+02  0.42871534461E+02 -0.81390051464E+02  0.10138440607E+03  0.00000000000E+00 0.  1.
<scales pt_clust_5="13000.00000" pt_clust_6="13000.00000" pt_clust_7="13000.00000" pt_clust_8="13000.00000" pt_clust_9="60.45211"></scales>
<clustering>
<clus scale="   60.452">  2  9  1 -1</clus>
<clus scale="   67.796">  5  6 -1 -1</clus>
<clus scale="   92.195">  1  5  2 -1</clus>
<clus scale="   93.755">  7  8 -1 -1</clus>
<clus scale="   92.195">  1  5  2 -1</clus>
</clustering>
</event>
<event>
 9    1  0.6106093E-005  0.1268092E+03  0.7546771E-02  0.1235032E+00
         -2   -1    0    0    0  501 -0.00000000000E+00  0.00000000000E+00  0.11050205490E+03  0.11050205490E+03  0.00000000000E+00 0.  1.
          1   -1    0    0  502    0  0.00000000000E+00 -0.00000000000E+00 -0.48563199871E+03  0.48563199871E+03  0.00000000000E+00 0. -1.
         23    2    1    2    0    0  0.80222113162E+02 -0.79479876360E+02  0.27201857792E+02  0.14817360706E+03  0.91993687699E+02 0.  0.
        -24    2    1    2    0    0 -0.52615999113E+02  0.66576751206E+02 -0.40038010013E+03  0.41742526503E+03  0.82089707897E+02 0.  0.
         11    1    4    4    0    0 -0.37176848077E+02  0.54100764969E+02 -0.38909162479E+03  0.39459004458E+03  0.00000000000E+00 0. -1.
        -12    1    4    4    0    0 -0.15439151036E+02  0.12475986237E+02 -0.11288475337E+02  0.22835220444E+02  0.00000000000E+00 0.  1.
        -13    1    3    3    0    0  0.40345847024E+02  0.11626764649E+02 -0.78710978226E+01  0.42719119949E+02  0.00000000000E+00 0. -1.
         13    1    3    3    0    0  0.39876266137E+02 -0.91106641009E+02  0.35072955614E+02  0.10545448711E+03  0.00000000000E+00 0.  1.
         21    1    1    2  502  501 -0.27606114049E+02  0.12903125153E+02 -0.19517014748E+01  0.30535181516E+02  0.00000000000E+00 0.  1.
<scales pt_clust_5="13000.00000" pt_clust_6="13000.00000" pt_clust_7="13000.00000" pt_clust_8="13000.00000" pt_clust_9="30.47274"></scales>
<clustering>
<clus scale="   30.473">  1  9  2 -1</clus>
<clus scale="   82.090">  5  6 -1 -1</clus>
<clus scale="   91.994">  7  8 -1 -1</clus>
<clus scale="  119.818">  2  5  1 -1</clus>
<clus scale="  119.818">  2  5  1 -1</clus>
</clustering>
</event>
<event>
 9    1  0.6106093E-005  0.1029369E+03  0.7546771E-02  0.1276906E+00
         -2   -1    0    0    0  501 -0.00000000000E+00  0.00000000000E+00  0.10550142290E+03  0.10550142290E+03  0.00000000000E+00 0.  1.
          1   -1    0    0  502    0  0.00000000000E+00 -0.00000000000E+00 -0.31345225625E+03  0.31345225625E+03  0.00000000000E+00 0. -1.
         23    2    1    2    0    0  0.16852685828E+02  0.59158477018E+02  0.10728540910E+02  0.10723574144E+03  0.87181788402E+02 0.  0.
        -24    2    1    2    0    0  0.52811501166E+02 -0.31163986558E+02 -0.21350176368E+03  0.23646105698E+03  0.81059112157E+02 0.  0.
         11    1    4    4    0    0  0.46370710620E+02 -0.45637029445E+02 -0.21051610105E+03  0.22034066820E+03  0.00000000000E+00 0. -1.
        -12    1    4    4    0    0  0.64407905456E+01  0.14473042887E+02 -0.29856626223E+01  0.16120388784E+02  0.00000000000E+00 0.  1.
        -13    1    3    3    0    0 -0.29403743878E+02  0.44935394723E+02  0.21179425069E+02  0.57726405563E+02  0.00000000000E+00 0.  1.
         13    1    3    3    0    0  0.46256429706E+02  0.14223082295E+02 -0.10450884159E+02  0.49509335875E+02  0.00000000000E+00 0. -1.
         21    1    1    2  502  501 -0.69664186994E+02 -0.27994490460E+02 -0.51776105859E+01  0.75256880729E+02  0.00000000000E+00 0.  1.
<scales pt_clust_5="13000.00000" pt_clust_6="13000.00000" pt_clust_7="13000.00000" pt_clust_8="13000.00000" pt_clust_9="75.07856"></scales>
<clustering>
<clus scale="   75.079">  1  9  2 -1</clus>
<clus scale="   81.059">  5  6 -1 -1</clus>
<clus scale="   87.182">  7  8 -1 -1</clus>
<clus scale="   97.806">  2  5  1 -1</clus>
<clus scale="   97.806">  2  5  1 -1</clus>
</clustering>
</event>
<event>
 9    1  0.6106093E-005  0.1042659E+03  0.7546771E-02  0.1276832E+00
          1   -1    0    0  502    0  0.00000000000E+00  0.00000000000E+00  0.29810149146E+03  0.29810149146E+03  0.00000000000E+00 0. -1.
         -2   -1    0    0    0  501 -0.00000000000E+00 -0.00000000000E+00 -0.11630957190E+03  0.11630957190E+03  0.00000000000E+00 0.  1.
        -24    2    1    2    0    0  0.53100512678E+02  0.36336326537E+02 -0.41661726197E+02  0.11158662811E+03  0.81091818758E+02 0.  0.
         23    2    1    2    0    0 -0.45047810638E+02 -0.10701868266E+02  0.24655402342E+03  0.26739000412E+03  0.92545624494E+02 0.  0.
         11    1    3    3    0    0  0.34892252987E+02 -0.22055687175E+02 -0.24736780042E+02  0.48123081178E+02  0.00000000000E+00 0. -1.
        -12    1    3    3    0    0  0.18208259691E+02  0.58392013712E+02 -0.16924946156E+02  0.63463546928E+02  0.00000000000E+00 0.  1.
        -13    1    4    4    0    0 -0.65395125399E+02  0.13090492165E+01  0.10376820742E+03  0.12266245108E+03  0.00000000000E+00 0.  1.
         13    1    4    4    0    0  0.20347314761E+02 -0.12010917483E+02  0.14278581600E+03  0.14472755304E+03  0.00000000000E+00 0. -1.
         21    1    1    2  502  501 -0.80527020399E+01 -0.25634458271E+02 -0.23100377665E+02  0.35434431126E+02  0.00000000000E+00 0. -1.
<scales pt_clust_5="13000.00000" pt_clust_6="13000.00000" pt_clust_7="13000.00000" pt_clust_8="13000.00000" pt_clust_9="26.86953"></scales>
<clustering>
<clus scale="   26.870">  2  9  1 -1</clus>
<clus scale="   81.092">  5  6 -1 -1</clus>
<clus scale="   92.546">  7  8 -1 -1</clus>
<clus scale="   94.247">  2  5  1 -1</clus>
<clus scale="  104.266">  1  5  2 -1</clus>
</clustering>
</event>
<event>
 9    1  0.6106093E-005  0.1186308E+03  0.7546771E-02  0.1249105E+00
          3   -1    0    0  502    0  0.00000000000E+00  0.00000000000E+00  0.45454091827E+03  0.45454091827E+03  0.00000000000E+00 0. -1.
         -4   -1    0    0    0  501 -0.00000000000E+00 -0.00000000000E+00 -0.10569159133E+03  0.10569159133E+03  0.00000000000E+00 0.  1.
         23    2    1    2    0    0 -0.42453709760E+02 -0.79494668093E+02  0.12715794171E+03  0.18091587966E+03  0.91867805263E+02 0.  0.
        -24    2    1    2    0    0  0.36219182267E+02  0.59633891746E+02  0.28944955645E+03  0.30843299617E+03  0.80509857719E+02 0.  0.
         13    1    4    4    0    0  0.56513365900E+02  0.45704549140E+02  0.26042080108E+03  0.27037318649E+03  0.00000000000E+00 0. -1.
        -14    1    4    4    0    0 -0.20294183632E+02  0.13929342607E+02  0.29028755368E+02  0.38059809681E+02  0.00000000000E+00 0.  1.
        -11    1    3    3    0    0 -0.48005516402E+02 -0.39774604959E+02  0.18403283675E+02  0.65001766551E+02  0.00000000000E+00 0.  1.
         11    1    3    3    0    0  0.55518066424E+01 -0.39720063134E+02  0.10875465804E+03  0.11591411310E+03  0.00000000000E+00 0. -1.
         21    1    1    2  502  501  0.62345274925E+01  0.19860776347E+02 -0.67758171216E+02  0.70883633772E+02  0.00000000000E+00 0.  1.
<scales pt_clust_5="13000.00000" pt_clust_6="13000.00000" pt_clust_7="13000.00000" pt_clust_8="13000.00000" pt_clust_9="20.81633"></scales>
<clustering>
<clus scale="   20.816">  2  9  1 -1</clus>
<clus scale="   80.510">  5  6 -1 -1</clus>
<clus scale="   91.868">  7  8 -1 -1</clus>
<clus scale="  110.070">  1  5  2 -1</clus>
<clus scale="  110.070">  1  5  2 -1</clus>
</clustering>
</event>
<event>
 9    1  0.6106093E-005  0.1154783E+03  0.7546771E-02  0.1257244E+00
          1   -1    0    0  502    0  0.00000000000E+00  0.00000000000E+00  0.18648728153E+03  0.18648728153E+03  0.00000000000E+00 0. -1.
         -2   -1    0    0    0  501 -0.00000000000E+00 -0.00000000000E+00 -0.23935054478E+03  0.23935054478E+03  0.00000000000E+00 0.  1.
        -24    2    1    2    0    0 -0.10111091327E+02  0.44068202081E+02 -0.30442618895E+02  0.95681748865E+02  0.78638434739E+02 0.  0.
         23    2    1    2    0    0  0.59686831551E+02 -0.45462085081E+02  0.12503706259E+03  0.17458142571E+03  0.95995250616E+02 0.  0.
         11    1    3    3    0    0  0.33576382904E+02  0.11044299248E+02 -0.17345116972E+02  0.39372618881E+02  0.00000000000E+00 0. -1.
        -12    1    3    3    0    0 -0.43687474230E+02  0.33023902833E+02 -0.13097501924E+02  0.56309129984E+02  0.00000000000E+00 0.  1.
        -11    1    4    4    0    0  0.39531534166E+01 -0.29573048926E+02 -0.67712791636E+01  0.30594817637E+02  0.00000000000E+00 0.  1.
         11    1    4    4    0    0  0.55733678135E+02 -0.15889036154E+02  0.13180834175E+03  0.14398660807E+03  0.00000000000E+00 0. -1.
         21    1    1    2  502  501 -0.49575740225E+02  0.13938829996E+01 -0.14745770694E+03  0.15557465174E+03  0.00000000000E+00 0.  1.
<scales pt_clust_5="13000.00000" pt_clust_6="13000.00000" pt_clust_7="13000.00000" pt_clust_8="13000.00000" pt_clust_9="49.59533"></scales>
<clustering>
<clus scale="   49.595">  2  9  1 -1</clus>
<clus scale="   78.638">  5  6 -1 -1</clus>
<clus scale="   95.995">  7  8 -1 -1</clus>
<clus scale="  101.509">  2  5  1 -1</clus>
<clus scale="  115.478">  1  5  2 -1</clus>
</clustering>
</event>
<event>
 9    1  0.6106093E-005  0.1012604E+03  0.7546771E-02  0.1281637E+00
         -2   -1    0    0    0  501 -0.00000000000E+00  0.00000000000E+00  0.11800344542E+03  0.11800344542E+03  0.00000000000E+00 0.  1.
          1   -1    0    0  502    0  0.00000000000E+00 -0.00000000000E+00 -0.14361817027E+03  0.14361817027E+03  0.00000000000E+00 0. -1.
        -24    2    1    2    0    0  0.37420773353E+02  0.31450175422E+01 -0.25509118987E+02  0.96403880337E+02  0.85045796950E+02 0.  0.
         23    2    1    2    0    0 -0.36369032545E+02 -0.25962591655E+02 -0.46678326904E+02  0.11334513958E+03  0.93120844983E+02 0.  0.
         13    1    3    3    0    0 -0.16018113565E+02 -0.22411124688E+02 -0.24949182884E+02  0.37165847206E+02  0.00000000000E+00 0. -1.
        -14    1    3    3    0    0  0.53438886918E+02  0.25556142231E+02 -0.55993610295E+00  0.59238033131E+02  0.00000000000E+00 0.  1.
        -11    1    4    4    0    0  0.30840673081E+02  0.32803236970E+00 -0.17820163081E+02  0.35620400525E+02  0.00000000000E+00 0.  1.
         11    1    4    4    0    0 -0.67209705626E+02 -0.26290624025E+02 -0.28858163823E+02  0.77724739056E+02  0.00000000000E+00 0. -1.
         21    1    1    2  502  501 -0.10517408080E+01  0.22817574113E+02  0.46572721038E+02  0.51872595771E+02  0.00000000000E+00 0. -1.
<scales pt_clust_5="13000.00000" pt_clust_6="13000.00000" pt_clust_7="13000.00000" pt_clust_8="13000.00000" pt_clust_9="22.84180"></scales>
<clustering>
<clus scale="   22.842">  1  9  2 -1</clus>
<clus scale="   85.046">  5  6 -1 -1</clus>
<clus scale="   93.121">  7  8 -1 -1</clus>
<clus scale="   93.888">  1  5  2 -1</clus>
<clus scale="  101.260">  2  5  1 -1</clus>
</clustering>
</event>
<event>
 9    1  0.6106093E-005  0.8207541E+02  0.7546771E-02  0.1323277E+00
          1   -1    0    0  502    0  0.00000000000E+00  0.00000000000E+00  0.28766810929E+02  0.28766810929E+02  0.00000000000E+00 0. -1.
         -2   -1    0    0    0  501 -0.00000000000E+00 -0.00000000000E+00 -0.33522481062E+03  0.33522481062E+03  0.00000000000E+00 0.  1.
         23    2    1    2    0    0  0.29603647788E+02  0.19259970565E+01 -0.17370018119E+03  0.19340433269E+03  0.79708202393E+02 0.  0.
        -24    2    1    2    0    0 -0.11006943070E+02 -0.12115376743E+02 -0.81805419854E+02  0.11539845111E+03  0.79729170647E+02 0.  0.
         11    1    4    4    0    0 -0.35280669103E+02  0.10074792040E+02 -0.72441469679E+02  0.81203408649E+02  0.00000000000E+00 0. -1.
        -12    1    4    4    0    0  0.24273726032E+02 -0.22190168783E+02 -0.93639501743E+01  0.34195042462E+02  0.00000000000E+00 0.  1.
        -13    1    3    3    0    0  0.24181149005E+01 -0.36165402109E+02 -0.97048049297E+02  0.10359588535E+03  0.00000000000E+00 0.  1.
         13    1    3    3    0    0  0.27185532887E+02  0.38091399165E+02 -0.76652131897E+02  0.89808447337E+02  0.00000000000E+00 0. -1.
         21    1    1    2  502  501 -0.18596704718E+02  0.10189379686E+02 -0.50952398645E+02  0.55188837752E+02  0.00000000000E+00 0. -1.
<scales pt_clust_5="13000.00000" pt_clust_6="13000.00000" pt_clust_7="13000.00000" pt_clust_8="13000.00000" pt_clust_9="21.20521"></scales>
<clustering>
<clus scale="   21.205">  2  9  1 -1</clus>
<clus scale="   79.708">  7  8 -1 -1</clus>
<clus scale="   79.729">  5  6 -1 -1</clus>
<clus scale="   82.055">  2  7  1 -1</clus>
<clus scale="   82.075">  1  5  2 -1</clus>
</clustering>
</event>
<event>
 9    1  0.6106093E-005  0.1280141E+03  0.7546771E-02  0.1233873E+00
         -2   -1    0    0    0  501 -0.00000000000E+00  0.00000000000E+00  0.19973547127E+03  0.19973547127E+03  0.00000000000E+00 0.  1.
          1   -1    0    0  502    0  0.00000000000E+00 -0.00000000000E+00 -0.16620854361E+03  0.16620854361E+03  0.00000000000E+00 0. -1.
        -24    2    1    2    0    0 -0.48504148598E+02 -0.80251814505E+02  0.57575132354E+02  0.13554597568E+03  0.79150549559E+02 0.  0.
         23    2    1    2    0    0  0.11543004995E+02  0.88926527067E+02 -0.88293749940E+02  0.15577319844E+03  0.91805963270E+02 0.  0.
         13    1    3    3    0    0 -0.21544196581E+02  0.89351293598E+01 -0.42763579718E+01  0.23712363453E+02  0.00000000000E+00 0. -1.
        -14    1    3    3    0    0 -0.26959952017E+02 -0.89186943865E+02  0.61851490326E+02  0.11183361223E+03  0.00000000000E+00 0.  1.
        -13    1    4    4    0    0  0.13234722325E+02  0.15875798034E+02  0.17578719585E+02  0.27133194070E+02  0.00000000000E+00 0.  1.
         13    1    4    4    0    0 -0.16917173298E+01  0.73050729034E+02 -0.10587246952E+03  0.12864000437E+03  0.00000000000E+00 0. -1.
         21    1    1    2  502  501  0.36961143603E+02 -0.86747125625E+01  0.64245545251E+02  0.74624840764E+02  0.00000000000E+00 0.  1.
<scales pt_clust_5="13000.00000" pt_clust_6="13000.00000" pt_clust_7="13000.00000" pt_clust_8="13000.00000" pt_clust_9="37.96547"></scales>
<clustering>
<clus scale="   37.965">  1  9  2 -1</clus>
<clus scale="   79.151">  5  6 -1 -1</clus>
<clus scale="   91.806">  7  8 -1 -1</clus>
<clus scale="  119.265">  1  5  2 -1</clus>
<clus scale="  128.014">  2  5  1 -1</clus>
</clustering>
</event>
<event>
 9    1  0.6106093E-005  0.1285623E+03  0.7546771E-02  0.1246454E+00
          1   -1    0    0  502    0  0.00000000000E+00  0.00000000000E+00  0.18776600223E+03  0.18776600223E+03  0.00000000000E+00 0. -1.
         -2   -1    0    0    0  501 -0.00000000000E+00 -0.00000000000E+00 -0.27814317900E+03  0.27814317900E+03  0.00000000000E+00 0.  1.
         23    2    1    2    0    0 -0.57613891329E+02 -0.29589508507E+02 -0.11082457802E+03  0.15916614266E+03  0.94110968489E+02 0.  0.
        -24    2    1    2    0    0 -0.43057086253E+02 -0.14418760251E+02  0.12522798457E+03  0.15491964088E+03  0.79096356973E+02 0.  0.
         11    1    4    4    0    0 -0.34661756398E+02 -0.13898021860E+02  0.13612458529E+03  0.14115415363E+03  0.00000000000E+00 0. -1.
        -12    1    4    4    0    0 -0.83953298552E+01 -0.52073839055E+00 -0.10896600718E+02  0.13765487244E+02  0.00000000000E+00 0.  1.
        -11    1    3    3    0    0 -0.81304480982E+02 -0.37016288533E+02 -0.84180492262E+02  0.12274762532E+03  0.00000000000E+00 0. -1.
         11    1    3    3    0    0  0.23690589653E+02  0.74267800258E+01 -0.26644085756E+02  0.36418517343E+02  0.00000000000E+00 0.  1.
         21    1    1    2  502  501  0.10067097758E+03  0.44008268758E+02 -0.10478058332E+03  0.15182339769E+03  0.00000000000E+00 0.  1.
<scales pt_clust_5="13000.00000" pt_clust_6="13000.00000" pt_clust_7="13000.00000" pt_clust_8="13000.00000" pt_clust_9="87.58654"></scales>
<clustering>
<clus scale="   79.096">  5  6 -1 -1</clus>
<clus scale="   91.203">  1  5  2 -1</clus>
<clus scale="   87.587">  1  9  2 -1</clus>
<clus scale="   94.111">  7  8 -1 -1</clus>
<clus scale="   91.203">  1  5  2 -1</clus>
</clustering>
</event>
<event>
 9    1  0.6106093E-005  0.1071432E+03  0.7546771E-02  0.1270107E+00
          1   -1    0    0  502    0  0.00000000000E+00  0.00000000000E+00  0.17125326981E+03  0.17125326981E+03  0.00000000000E+00 0. -1.
         -2   -1    0    0    0  501 -0.00000000000E+00 -0.00000000000E+00 -0.17832764333E+03  0.17832764333E+03  0.00000000000E+00 0.  1.
        -24    2    1    2    0    0 -0.75098918378E+01  0.38465166182E+02 -0.87188353303E+02  0.12481155308E+03  0.80250528629E+02 0.  0.
         23    2    1    2    0    0  0.11365107597E+02 -0.60108924264E+02  0.13034169554E+03  0.16994109744E+03  0.90270540914E+02 0.  0.
         13    1    3    3    0    0 -0.43445974894E+02  0.27236990415E+02 -0.44519814050E+02  0.67907438653E+02  0.00000000000E+00 0. -1.
        -14    1    3    3    0    0  0.35936083056E+02  0.11228175767E+02 -0.42668539253E+02  0.56904114425E+02  0.00000000000E+00 0.  1.
        -13    1    4    4    0    0 -0.11094899437E+02 -0.64104382002E+02  0.39127060400E+02  0.75917029979E+02  0.00000000000E+00 0. -1.
         13    1    4    4    0    0  0.22460007034E+02  0.39954577382E+01  0.91214635140E+02  0.94024067463E+02  0.00000000000E+00 0.  1.
         21    1    1    2  502  501 -0.38552157592E+01  0.21643758082E+02 -0.50227715757E+02  0.54828262626E+02  0.00000000000E+00 0. -1.
<scales pt_clust_5="13000.00000" pt_clust_6="13000.00000" pt_clust_7="13000.00000" pt_clust_8="13000.00000" pt_clust_9="21.98443"></scales>
<clustering>
<clus scale="   21.984">  2  9  1 -1</clus>
<clus scale="   80.251">  5  6 -1 -1</clus>
<clus scale="   90.271">  7  8 -1 -1</clus>
<clus scale="   98.849">  2  5  1 -1</clus>
<clus scale="  107.143">  1  5  2 -1</clus>
</clustering>
</event>
<event>
 9    1  0.6106093E-005  0.1041597E+03  0.7546771E-02  0.1288206E+00
         -4   -1    0    0    0  501 -0.00000000000E+00  0.00000000000E+00  0.78972650697E+02  0.78972650697E+02  0.00000000000E+00 0.  1.
          3   -1    0    0  502    0  0.00000000000E+00 -0.00000000000E+00 -0.25315502675E+03  0.25315502675E+03  0.00000000000E+00 0. -1.
        -24    2    1    2    0    0 -0.15250430955E+02 -0.51092029579E+02 -0.17095611144E+02  0.90206579399E+02  0.70724789966E+02 0.  0.
         23    2    1    2    0    0 -0.10868024486E+02  0.19185971739E+02 -0.17012240548E+03  0.19867646639E+03  0.10022220305E+03 0.  0.
         11    1    3    3    0    0 -0.29215506985E+02 -0.60033157079E+02 -0.52889242598E+00  0.66766799567E+02  0.00000000000E+00 0. -1.
        -12    1    3    3    0    0  0.13965076030E+02  0.89411274998E+01 -0.16566718718E+02  0.23439779832E+02  0.00000000000E+00 0.  1.
        -13    1    4    4    0    0  0.43254112932E+02  0.53663038208E+01 -0.50860413494E+02  0.66981319508E+02  0.00000000000E+00 0.  1.
         13    1    4    4    0    0 -0.54122137418E+02  0.13819667918E+02 -0.11926199199E+03  0.13169514689E+03  0.00000000000E+00 0. -1.
         21    1    1    2  502  501  0.26118455441E+02  0.31906057841E+02  0.13035640576E+02  0.43244631653E+02  0.00000000000E+00 0.  1.
<scales pt_clust_5="13000.00000" pt_clust_6="13000.00000" pt_clust_7="13000.00000" pt_clust_8="13000.00000" pt_clust_9="41.23312"></scales>
<clustering>
<clus scale="   41.233">  1  9  2 -1</clus>
<clus scale="   70.725">  5  6 -1 -1</clus>
<clus scale="   76.202">  1  5  2 -1</clus>
<clus scale="  100.222">  7  8 -1 -1</clus>
<clus scale="  104.160">  2  5  1 -1</clus>
</clustering>
</event>
<event>
 9    1  0.6106093E-005  0.9779485E+02  0.7546771E-02  0.1295532E+00
         -4   -1    0    0    0  501 -0.00000000000E+00  0.00000000000E+00  0.30251384804E+03  0.30251384804E+03  0.00000000000E+00 0.  1.
          3   -1    0    0  502    0  0.00000000000E+00 -0.00000000000E+00 -0.49316979714E+03  0.49316979714E+03  0.00000000000E+00 0. -1.
        -24    2    1    2    0    0 -0.30541151432E+02  0.36239859696E+02 -0.90195007592E+02  0.12942193209E+03  0.79804810314E+02 0.  0.
         23    2    1    2    0    0 -0.19250436685E+02  0.44798302023E+01 -0.37311559861E+03  0.38612271647E+03  0.97390215399E+02 0.  0.
         11    1    3    3    0    0 -0.30959370340E+02  0.33805683774E+02 -0.10491708749E+03  0.11449411389E+03  0.00000000000E+00 0. -1.
        -12    1    3    3    0    0  0.41821890850E+00  0.24341759219E+01  0.14722079903E+02  0.14927818197E+02  0.00000000000E+00 0.  1.
        -13    1    4    4    0    0 -0.24289725707E+01 -0.45330739772E+02 -0.20554310233E+03  0.21049641990E+03  0.00000000000E+00 0.  1.
         13    1    4    4    0    0 -0.16821464114E+02  0.49810569975E+02 -0.16757249628E+03  0.17562629657E+03  0.00000000000E+00 0. -1.
         21    1    1    2  502  501  0.49791588117E+02 -0.40719689898E+02  0.27265465709E+03  0.28013899662E+03  0.00000000000E+00 0.  1.
<scales pt_clust_5="13000.00000" pt_clust_6="13000.00000" pt_clust_7="13000.00000" pt_clust_8="13000.00000" pt_clust_9="64.32181"></scales>
<clustering>
<clus scale="   64.322">  1  9  2 -1</clus>
<clus scale="   79.805">  5  6 -1 -1</clus>
<clus scale="   80.298">  1  5  2 -1</clus>
<clus scale="   97.390">  7  8 -1 -1</clus>
<clus scale="   97.795">  2  5  1 -1</clus>
</clustering>
</event>
<event>
 9    1  0.6106093E-005  0.1585689E+03  0.7546771E-02  0.1194971E+00
         -2   -1    0    0    0  501 -0.00000000000E+00  0.00000000000E+00  0.23575216435E+03  0.23575216435E+03  0.00000000000E+00 0.  1.
          1   -1    0    0  502    0  0.00000000000E+00 -0.00000000000E+00 -0.20571028205E+03  0.20571028205E+03  0.00000000000E+00 0. -1.
        -24    2    1    2    0    0 -0.83693399658E+02 -0.13413367180E+03  0.78444932227E+02  0.19423310198E+03  0.81095397247E+02 0.  0.
         23    2    1    2    0    0  0.77501681120E+02  0.72947120970E+02 -0.88018950394E+02  0.17407504891E+03  0.10595751031E+03 0.  0.
         13    1    3    3    0    0 -0.34638384298E+02 -0.20248711670E+00  0.10163366061E+02  0.36099206051E+02  0.00000000000E+00 0. -1.
        -14    1    3    3    0    0 -0.49055015360E+02 -0.13393118469E+03  0.68281566166E+02  0.15813389593E+03  0.00000000000E+00 0.  1.
        -13    1    4    4    0    0  0.45842940717E+02 -0.11112503179E+02 -0.66805417225E+02  0.81780356511E+02  0.00000000000E+00 0. -1.
         13    1    4    4    0    0  0.31658740403E+02  0.84059624150E+02 -0.21213533169E+02  0.92294692402E+02  0.00000000000E+00 0.  1.
         21    1    1    2  502  501  0.61917185378E+01  0.61186550832E+02  0.39615900465E+02  0.73154295505E+02  0.00000000000E+00 0. -1.
<scales pt_clust_5="13000.00000" pt_clust_6="13000.00000" pt_clust_7="13000.00000" pt_clust_8="13000.00000" pt_clust_9="61.49904"></scales>
<clustering>
<clus scale="   61.499">  1  9  2 -1</clus>
<clus scale="   81.095">  5  6 -1 -1</clus>
<clus scale="  105.958">  7  8 -1 -1</clus>
<clus scale="  143.156">  1  5  2 -1</clus>
<clus scale="  158.569">  2  5  1 -1</clus>
</clustering>
</event>
<event>
 9    1  0.6106093E-005  0.9123709E+02  0.7546771E-02  0.1303132E+00
         -2   -1    0    0    0  501 -0.00000000000E+00  0.00000000000E+00  0.29643712530E+03  0.29643712530E+03  0.00000000000E+00 0.  1.
          1   -1    0    0  502    0  0.00000000000E+00 -0.00000000000E+00 -0.29363179952E+03  0.29363179952E+03  0.00000000000E+00 0. -1.
        -24    2    1    2    0    0 -0.32993447763E+02  0.28082061623E+02  0.90374243548E+01  0.95801381557E+02  0.84965050985E+02 0.  0.
         23    2    1    2    0    0 -0.19566100562E+02 -0.68863257813E+00 -0.23785788732E+03  0.25517883150E+03  0.90313647797E+02 0.  0.
         13    1    3    3    0    0  0.23511205759E+02 -0.10691884561E+02  0.87561224940E+01  0.27272016296E+02  0.00000000000E+00 0. -1.
        -14    1    3    3    0    0 -0.56504653522E+02  0.38773946184E+02  0.28130186084E+00  0.68529365261E+02  0.00000000000E+00 0.  1.
        -11    1    4    4    0    0 -0.34494110842E+02  0.34376009091E+02 -0.88267419394E+02  0.10081017315E+03  0.00000000000E+00 0.  1.
         11    1    4    4    0    0  0.14928010279E+02 -0.35064641669E+02 -0.14959046793E+03  0.15436865835E+03  0.00000000000E+00 0. -1.
         21    1    1    2  502  501  0.52559548326E+02 -0.27393429045E+02  0.23162578875E+03  0.23908871176E+03  0.00000000000E+00 0.  1.
<scales pt_clust_5="13000.00000" pt_clust_6="13000.00000" pt_clust_7="13000.00000" pt_clust_8="13000.00000" pt_clust_9="59.26977"></scales>
<clustering>
<clus scale="   59.270">  1  9  2 -1</clus>
<clus scale="   84.965">  5  6 -1 -1</clus>
<clus scale="   85.946">  1  5  2 -1</clus>
<clus scale="   90.314">  7  8 -1 -1</clus>
<clus scale="   91.237">  2  5  1 -1</clus>
</clustering>
</event>
<event>
 9    1  0.6106093E-005  0.1064716E+03  0.7546771E-02  0.1271007E+00
         -2   -1    0    0    0  501 -0.00000000000E+00  0.00000000000E+00  0.54736770237E+02  0.54736770237E+02  0.00000000000E+00 0.  1.
          1   -1    0    0  502    0  0.00000000000E+00 -0.00000000000E+00 -0.39663004779E+03  0.39663004779E+03  0.00000000000E+00 0. -1.
         23    2    1    2    0    0 -0.52464778803E+02  0.20751673999E+02 -0.13179364570E+03  0.16945861218E+03  0.90351929725E+02 0.  0.
        -24    2    1    2    0    0  0.41227301750E+02 -0.40652165423E+02 -0.23053598508E+03  0.25124952058E+03  0.81407568502E+02 0.  0.
         11    1    4    4    0    0  0.48043939106E+02 -0.18091768083E+02 -0.21913651428E+03  0.22506964267E+03  0.00000000000E+00 0. -1.
        -12    1    4    4    0    0 -0.68166373566E+01 -0.22560397340E+02 -0.11399470798E+02  0.26179877911E+02  0.00000000000E+00 0.  1.
        -11    1    3    3    0    0  0.27297775351E+01  0.21686801139E+02 -0.10653081063E+03  0.10875009261E+03  0.00000000000E+00 0. -1.
         11    1    3    3    0    0 -0.55194556338E+02 -0.93512714001E+00 -0.25262835071E+02  0.60708519567E+02  0.00000000000E+00 0.  1.
         21    1    1    2  502  501  0.11237477053E+02  0.19900491424E+02  0.20436353229E+02  0.30658685274E+02  0.00000000000E+00 0.  1.
<scales pt_clust_5="13000.00000" pt_clust_6="13000.00000" pt_clust_7="13000.00000" pt_clust_8="13000.00000" pt_clust_9="22.85411"></scales>
<clustering>
<clus scale="   22.854">  1  9  2 -1</clus>
<clus scale="   81.408">  5  6 -1 -1</clus>
<clus scale="   90.352">  7  8 -1 -1</clus>
<clus scale="   98.995">  2  5  1 -1</clus>
<clus scale="   98.995">  2  5  1 -1</clus>
</clustering>
</event>
<event>
 9    1  0.6106093E-005  0.9761658E+02  0.7546771E-02  0.1290604E+00
          1   -1    0    0  502    0  0.00000000000E+00  0.00000000000E+00  0.59135095421E+03  0.59135095421E+03  0.00000000000E+00 0. -1.
         -2   -1    0    0    0  501 -0.00000000000E+00 -0.00000000000E+00 -0.40902054584E+02  0.40902054584E+02  0.00000000000E+00 0.  1.
        -24    2    1    2    0    0 -0.10569394915E+02  0.66404279653E+02  0.19333439666E+03  0.22059350851E+03  0.82231785804E+02 0.  0.
         23    2    1    2    0    0  0.16009920320E+02 -0.12232253832E+02  0.34261821018E+03  0.35531812825E+03  0.91966236940E+02 0.  0.
         13    1    3    3    0    0  0.38250059704E+01  0.80094802896E+02  0.17886708513E+03  0.19601847429E+03  0.00000000000E+00 0. -1.
        -14    1    3    3    0    0 -0.14394400885E+02 -0.13690523243E+02  0.14467311534E+02  0.24575034212E+02  0.00000000000E+00 0.  1.
        -11    1    4    4    0    0  0.42706638277E+02  0.20631832616E+02  0.23359989039E+03  0.23836618522E+03  0.00000000000E+00 0.  1.
         11    1    4    4    0    0 -0.26696717957E+02 -0.32864086448E+02  0.10901831979E+03  0.11695194303E+03  0.00000000000E+00 0. -1.
         21    1    1    2  502  501 -0.54405254049E+01 -0.54172025821E+02  0.14496292783E+02  0.56341372034E+02  0.00000000000E+00 0. -1.
<scales pt_clust_5="13000.00000" pt_clust_6="13000.00000" pt_clust_7="13000.00000" pt_clust_8="13000.00000" pt_clust_9="54.44454"></scales>
<clustering>
<clus scale="   54.445">  2  9  1 -1</clus>
<clus scale="   82.232">  5  6 -1 -1</clus>
<clus scale="   88.506">  2  5  1 -1</clus>
<clus scale="   91.966">  7  8 -1 -1</clus>
<clus scale="   97.617">  1  5  2 -1</clus>
</clustering>
</event>
<event>
 9    1  0.6106093E-005  0.1053818E+03  0.7546771E-02  0.1275970E+00
         -2   -1    0    0    0  501 -0.00000000000E+00  0.00000000000E+00  0.12473243322E+03  0.12473243322E+03  0.00000000000E+00 0.  1.
          1   -1    0    0  502    0  0.00000000000E+00 -0.00000000000E+00 -0.14106402743E+03  0.14106402743E+03  0.00000000000E+00 0. -1.
        -24    2    1    2    0    0 -0.35134826042E+02  0.34431039514E+02  0.66846146396E+02  0.11511159328E+03  0.79764146933E+02 0.  0.
         23    2    1    2    0    0  0.15268825886E+02 -0.41449314933E+02 -0.63247863269E+02  0.12168289911E+03  0.94102353724E+02 0.  0.
         11    1    3    3    0    0  0.20900861664E+02  0.19041308956E+02  0.24616282021E+01  0.28380928076E+02  0.00000000000E+00 0. -1.
        -12    1    3    3    0    0 -0.56035687706E+02  0.15389730559E+02  0.64384518194E+02  0.86730665202E+02  0.00000000000E+00 0.  1.
        -13    1    4    4    0    0 -0.21101339525E+02 -0.47160603183E+02 -0.38611157698E+01  0.51810203989E+02  0.00000000000E+00 0.  1.
         13    1    4    4    0    0  0.36370165411E+02  0.57112882506E+01 -0.59386747500E+02  0.69872695126E+02  0.00000000000E+00 0. -1.
         21    1    1    2  502  501  0.19866000156E+02  0.70182754185E+01 -0.19929877339E+02  0.29001968257E+02  0.00000000000E+00 0. -1.
<scales pt_clust_5="13000.00000" pt_clust_6="13000.00000" pt_clust_7="13000.00000" pt_clust_8="13000.00000" pt_clust_9="21.06927"></scales>
<clustering>
<clus scale="   21.069">  2  9  1 -1</clus>
<clus scale="   79.764">  5  6 -1 -1</clus>
<clus scale="   92.803">  1  5  2 -1</clus>
<clus scale="   94.102">  7  8 -1 -1</clus>
<clus scale="   21.069">  2  5  1 -1</clus>
</clustering>
</event>
<event>
 9    1  0.6106093E-005  0.9885608E+02  0.7546771E-02  0.1288738E+00
          1   -1    0    0  502    0  0.00000000000E+00  0.00000000000E+00  0.29190117955E+03  0.29190117955E+03  0.00000000000E+00 0. -1.
         -2   -1    0    0    0  501 -0.00000000000E+00 -0.00000000000E+00 -0.74435545732E+02  0.74435545732E+02  0.00000000000E+00 0.  1.
         23    2    1    2    0    0  0.47414168302E+02 -0.47025321058E+02  0.47868295450E+02  0.12421773046E+03  0.93162152594E+02 0.  0.
        -24    2    1    2    0    0 -0.14220905220E+02  0.20164546364E+02  0.17903664524E+03  0.19838806246E+03  0.81822123602E+02 0.  0.
         13    1    4    4    0    0 -0.24119307173E+02  0.39848657689E+02  0.16680761170E+03  0.17318901761E+03  0.00000000000E+00 0. -1.
        -14    1    4    4    0    0  0.98984019535E+01 -0.19684111325E+02  0.12229033535E+02  0.25199044845E+02  0.00000000000E+00 0.  1.
        -13    1    3    3    0    0  0.41719098054E+02 -0.44552467318E+01  0.65503798158E+02  0.77788687732E+02  0.00000000000E+00 0. -1.
         13    1    3    3    0    0  0.56950702483E+01 -0.42570074326E+02 -0.17635502708E+02  0.46429042732E+02  0.00000000000E+00 0.  1.
         21    1    1    2  502  501 -0.33193263083E+02  0.26860774694E+02 -0.94393068707E+01  0.43730932364E+02  0.00000000000E+00 0.  1.
<scales pt_clust_5="13000.00000" pt_clust_6="13000.00000" pt_clust_7="13000.00000" pt_clust_8="13000.00000" pt_clust_9="42.70005"></scales>
<clustering>
<clus scale="   42.700">  2  9  1 -1</clus>
<clus scale="   81.822">  5  6 -1 -1</clus>
<clus scale="   88.251">  1  5  2 -1</clus>
<clus scale="   93.162">  7  8 -1 -1</clus>
<clus scale="   88.251">  1  5  2 -1</clus>
</clustering>
</event>
<event>
 9    1  0.6106093E-005  0.9469669E+02  0.7546771E-02  0.1293749E+00
         -2   -1    0    0    0  501 -0.00000000000E+00  0.00000000000E+00  0.17837949723E+03  0.17837949723E+03  0.00000000000E+00 0.  1.
          1   -1    0    0  502    0  0.00000000000E+00 -0.00000000000E+00 -0.10837753685E+03  0.10837753685E+03  0.00000000000E+00 0. -1.
        -24    2    1    2    0    0 -0.80508665893E+01  0.24171075683E+02  0.10232130829E+03  0.13297908411E+03  0.81023017272E+02 0.  0.
         23    2    1    2    0    0 -0.17268007148E+02 -0.44315890306E+02 -0.57406397280E+02  0.11283629674E+03  0.84702144066E+02 0.  0.
         13    1    3    3    0    0 -0.36250740062E+02  0.29687587385E+02  0.31255287395E+02  0.56323724929E+02  0.00000000000E+00 0. -1.
        -14    1    3    3    0    0  0.28199873472E+02 -0.55165117013E+01  0.71066020896E+02  0.76655359181E+02  0.00000000000E+00 0.  1.
        -13    1    4    4    0    0  0.33628566979E+02 -0.26424286619E+02 -0.30643466136E+02  0.52613168097E+02  0.00000000000E+00 0.  1.
         13    1    4    4    0    0 -0.50896574127E+02 -0.17891603686E+02 -0.26762931144E+02  0.60223128645E+02  0.00000000000E+00 0. -1.
         21    1    1    2  502  501  0.25318873737E+02  0.20144814622E+02  0.25087049368E+02  0.40941653233E+02  0.00000000000E+00 0. -1.
<scales pt_clust_5="13000.00000" pt_clust_6="13000.00000" pt_clust_7="13000.00000" pt_clust_8="13000.00000" pt_clust_9="32.35520"></scales>
<clustering>
<clus scale="   32.355">  1  9  2 -1</clus>
<clus scale="   81.023">  5  6 -1 -1</clus>
<clus scale="   84.702">  7  8 -1 -1</clus>
<clus scale="   91.421">  1  5  2 -1</clus>
<clus scale="   94.697">  2  5  1 -1</clus>
</clustering>
</event>
<event>
 9    1  0.6106093E-005  0.9331090E+02  0.7546771E-02  0.1301219E+00
         -2   -1    0    0    0  501 -0.00000000000E+00  0.00000000000E+00  0.13876709660E+03  0.13876709660E+03  0.00000000000E+00 0.  1.
          1   -1    0    0  502    0  0.00000000000E+00 -0.00000000000E+00 -0.18926912382E+03  0.18926912382E+03  0.00000000000E+00 0. -1.
         23    2    1    2    0    0 -0.25835462338E+02  0.40309349009E+02  0.10711032813E+02  0.10304148120E+03  0.90611841895E+02 0.  0.
        -24    2    1    2    0    0  0.21107871589E+02  0.44651634252E+01 -0.12308743016E+03  0.14847320790E+03  0.80176667878E+02 0.  0.
         11    1    4    4    0    0  0.23651827893E+02  0.36490933351E+02 -0.99591764527E+02  0.10867160043E+03  0.00000000000E+00 0. -1.
        -12    1    4    4    0    0 -0.25439563037E+01 -0.32025769925E+02 -0.23495665636E+02  0.39801607463E+02  0.00000000000E+00 0.  1.
        -13    1    3    3    0    0 -0.17355743881E+02 -0.22259272743E+02  0.25670132148E+02  0.38153017616E+02  0.00000000000E+00 0.  1.
         13    1    3    3    0    0 -0.84797184567E+01  0.62568621752E+02 -0.14959099335E+02  0.64888463581E+02  0.00000000000E+00 0. -1.
         21    1    1    2  502  501  0.47275907486E+01 -0.44774512434E+02  0.61874370126E+02  0.76521531326E+02  0.00000000000E+00 0. -1.
<scales pt_clust_5="13000.00000" pt_clust_6="13000.00000" pt_clust_7="13000.00000" pt_clust_8="13000.00000" pt_clust_9="45.02341"></scales>
<clustering>
<clus scale="   45.023">  1  9  2 -1</clus>
<clus scale="   80.177">  5  6 -1 -1</clus>
<clus scale="   83.215">  2  5  1 -1</clus>
<clus scale="   90.612">  7  8 -1 -1</clus>
<clus scale="   83.215">  2  5  1 -1</clus>
</clustering>
</event>
<event>
 9    1  0.6106093E-005  0.9146843E+02  0.7546771E-02  0.1305275E+00
          1   -1    0    0  502    0  0.00000000000E+00  0.00000000000E+00  0.52861871611E+03  0.52861871611E+03  0.00000000000E+00 0. -1.
         -2   -1    0    0    0  501 -0.00000000000E+00 -0.00000000000E+00 -0.68310541514E+02  0.68310541514E+02  0.00000000000E+00 0.  1.
         23    2    1    2    0    0  0.19250321753E+02  0.36178147366E+00 -0.26384742461E+02  0.95515833238E+02  0.89757528882E+02 0.  0.
        -24    2    1    2    0    0  0.42526275457E+01 -0.32694261602E+01  0.45400693852E+03  0.46104987380E+03  0.80099387719E+02 0.  0.
         13    1    4    4    0    0 -0.11496868884E+01 -0.31603312358E+02  0.81386313712E+02  0.87314507338E+02  0.00000000000E+00 0. -1.
        -14    1    4    4    0    0  0.54023144341E+01  0.28333886198E+02  0.37262062481E+03  0.37373536646E+03  0.00000000000E+00 0.  1.
        -11    1    3    3    0    0  0.45612262554E+02 -0.26956372411E+02 -0.21740201753E+02  0.57269196617E+02  0.00000000000E+00 0.  1.
         11    1    3    3    0    0 -0.26361940801E+02  0.27318153885E+02 -0.46445407078E+01  0.38246636622E+02  0.00000000000E+00 0. -1.
         21    1    1    2  502  501 -0.23502949298E+02  0.29076446866E+01  0.32685978534E+02  0.40363550588E+02  0.00000000000E+00 0. -1.
<scales pt_clust_5="13000.00000" pt_clust_6="13000.00000" pt_clust_7="13000.00000" pt_clust_8="13000.00000" pt_clust_9="23.68212"></scales>
<clustering>
<clus scale="   23.682">  1  9  2 -1</clus>
<clus scale="   80.099">  5  6 -1 -1</clus>
<clus scale="   82.012">  1  5  2 -1</clus>
<clus scale="   89.758">  7  8 -1 -1</clus>
<clus scale="   23.682">  1  5  2 -1</clus>
</clustering>
</event>
<event>
 9    1  0.6106093E-005  0.1803383E+03  0.7546771E-02  0.1169188E+00
          1   -1    0    0  502    0  0.00000000000E+00  0.00000000000E+00  0.33489592623E+03  0.33489592623E+03  0.00000000000E+00 0. -1.
         -2   -1    0    0    0  501 -0.00000000000E+00 -0.00000000000E+00 -0.16437616513E+03  0.16437616513E+03  0.00000000000E+00 0.  1.
        -24    2    1    2    0    0  0.11010686419E+03 -0.13053164175E+03 -0.52520373559E+01  0.18902404676E+03  0.80873205196E+02 0.  0.
         23    2    1    2    0    0 -0.43923575907E+02  0.14366148002E+03  0.16393485261E+03  0.24174451484E+03  0.94857119884E+02 0.  0.
         11    1    3    3    0    0  0.72044530969E+02 -0.25792538434E+02  0.73432195163E+01  0.76873873028E+02  0.00000000000E+00 0. -1.
        -12    1    3    3    0    0  0.38062333225E+02 -0.10473910331E+03 -0.12595256872E+02  0.11215017374E+03  0.00000000000E+00 0.  1.
        -13    1    4    4    0    0 -0.15500707887E+02  0.12418334346E+03  0.73890451598E+02  0.14533263080E+03  0.00000000000E+00 0. -1.
         13    1    4    4    0    0 -0.28422868020E+02  0.19478136558E+02  0.90044401012E+02  0.96411884039E+02  0.00000000000E+00 0.  1.
         21    1    1    2  502  501 -0.66183288287E+02 -0.13129838270E+02  0.11836945847E+02  0.68503529752E+02  0.00000000000E+00 0. -1.
<scales pt_clust_5="13000.00000" pt_clust_6="13000.00000" pt_clust_7="13000.00000" pt_clust_8="13000.00000" pt_clust_9="67.47311"></scales>
<clustering>
<clus scale="   67.473">  2  9  1 -1</clus>
<clus scale="   80.873">  5  6 -1 -1</clus>
<clus scale="   94.857">  7  8 -1 -1</clus>
<clus scale="  173.391">  2  5  1 -1</clus>
<clus scale="  180.338">  1  5  2 -1</clus>
</clustering>
</event>
<event>
 9    1  0.6106093E-005  0.1322943E+03  0.7546771E-02  0.1226709E+00
         -2   -1    0    0    0  501 -0.00000000000E+00  0.00000000000E+00  0.88005119384E+02  0.88005119384E+02  0.00000000000E+00 0.  1.
          1   -1    0    0  502    0  0.00000000000E+00 -0.00000000000E+00 -0.45724483187E+03  0.45724483187E+03  0.00000000000E+00 0. -1.
        -24    2    1    2    0    0 -0.23519185118E+02  0.96920231101E+02 -0.37455239556E+02  0.13454723792E+03  0.82178957134E+02 0.  0.
         23    2    1    2    0    0 -0.41591899842E+02 -0.88761408564E+02 -0.31550644065E+03  0.34309358596E+03  0.92522542415E+02 0.  0.
         11    1    3    3    0    0  0.23300735550E+02  0.61182983512E+02 -0.37893499593E+02  0.75645218356E+02  0.00000000000E+00 0. -1.
        -12    1    3    3    0    0 -0.46819920668E+02  0.35737247589E+02  0.43826003743E+00  0.58902019562E+02  0.00000000000E+00 0.  1.
        -11    1    4    4    0    0 -0.56397281865E+02 -0.24441247110E+02 -0.96985744066E+02  0.11482274389E+03  0.00000000000E+00 0.  1.
         11    1    4    4    0    0  0.14805382022E+02 -0.64320161454E+02 -0.21852069658E+03  0.22827084207E+03  0.00000000000E+00 0. -1.
         21    1    1    2  502  501  0.65111084960E+02 -0.81588225372E+01 -0.16278032287E+02  0.67609127380E+02  0.00000000000E+00 0. -1.
<scales pt_clust_5="13000.00000" pt_clust_6="13000.00000" pt_clust_7="13000.00000" pt_clust_8="13000.00000" pt_clust_9="65.62027"></scales>
<clustering>
<clus scale="   65.620">  1  9  2 -1</clus>
<clus scale="   82.179">  5  6 -1 -1</clus>
<clus scale="   92.523">  7  8 -1 -1</clus>
<clus scale="  125.279">  1  5  2 -1</clus>
<clus scale="  132.294">  2  5  1 -1</clus>
</clustering>
</event>
<event>
 9    1  0.6106093E-005  0.1713595E+03  0.7546771E-02  0.1177869E+00
          1   -1    0    0  502    0  0.00000000000E+00  0.00000000000E+00  0.51944378969E+03  0.51944378969E+03  0.00000000000E+00 0. -1.
         -2   -1    0    0    0  501 -0.00000000000E+00 -0.00000000000E+00 -0.25811738772E+03  0.25811738772E+03  0.00000000000E+00 0.  1.
        -24    2    1    2    0    0 -0.88444826565E+02  0.10841597563E+03 -0.96277958877E+02  0.18798247771E+03  0.80569568952E+02 0.  0.
         23    2    1    2    0    0  0.11961325503E+03 -0.83934049543E+02  0.45387183611E+03  0.48547172379E+03  0.91273739561E+02 0.  0.
         11    1    3    3    0    0 -0.68120800470E+02  0.27937624185E+02 -0.22661803908E+02  0.77035781674E+02  0.00000000000E+00 0. -1.
        -12    1    3    3    0    0 -0.20324026095E+02  0.80478351446E+02 -0.73616154969E+02  0.11094669603E+03  0.00000000000E+00 0.  1.
        -11    1    4    4    0    0  0.10773356464E+03 -0.41564834928E+02  0.23049975551E+03  0.25780669841E+03  0.00000000000E+00 0. -1.
         11    1    4    4    0    0  0.11879690387E+02 -0.42369214614E+02  0.22337208060E+03  0.22766502538E+03  0.00000000000E+00 0.  1.
         21    1    1    2  502  501 -0.31168428465E+02 -0.24481926088E+02 -0.96267475266E+02  0.10410697591E+03  0.00000000000E+00 0. -1.
<scales pt_clust_5="13000.00000" pt_clust_6="13000.00000" pt_clust_7="13000.00000" pt_clust_8="13000.00000" pt_clust_9="39.63377"></scales>
<clustering>
<clus scale="   39.634">  2  9  1 -1</clus>
<clus scale="   80.570">  5  6 -1 -1</clus>
<clus scale="   91.274">  7  8 -1 -1</clus>
<clus scale="  165.905">  2  5  1 -1</clus>
<clus scale="  171.359">  1  5  2 -1</clus>
</clustering>
</event>
<event>
 9    1  0.6106093E-005  0.1365901E+03  0.7546771E-02  0.1220618E+00
         -2   -1    0    0    0  501 -0.00000000000E+00  0.00000000000E+00  0.20661231407E+03  0.20661231407E+03  0.00000000000E+00 0.  1.
          1   -1    0    0  502    0  0.00000000000E+00 -0.00000000000E+00 -0.52045268715E+03  0.52045268715E+03  0.00000000000E+00 0. -1.
         23    2    1    2    0    0  0.98650020470E+02 -0.24619398458E+02  0.13809851463E+03  0.19454718810E+03  0.91866573549E+02 0.  0.
        -24    2    1    2    0    0 -0.80795609362E+02  0.61373052121E+02 -0.47022954241E+03  0.48774997754E+03  0.80558277161E+02 0.  0.
         13    1    4    4    0    0 -0.86136522332E+02  0.25781069112E+02 -0.38248937037E+03  0.39291510845E+03  0.00000000000E+00 0. -1.
        -14    1    4    4    0    0  0.53409129696E+01  0.35591983009E+02 -0.87740172042E+02  0.94834869092E+02  0.00000000000E+00 0.  1.
        -11    1    3    3    0    0  0.37800609945E+02 -0.13703755918E+02 -0.31814339807E+01  0.40333615764E+02  0.00000000000E+00 0. -1.
         11    1    3    3    0    0  0.60849410525E+02 -0.10915642540E+02  0.14127994861E+03  0.15421357233E+03  0.00000000000E+00 0.  1.
         21    1    1    2  502  501 -0.17854411108E+02 -0.36753653663E+02  0.18290654698E+02  0.44767835584E+02  0.00000000000E+00 0. -1.
<scales pt_clust_5="13000.00000" pt_clust_6="13000.00000" pt_clust_7="13000.00000" pt_clust_8="13000.00000" pt_clust_9="40.86087"></scales>
<clustering>
<clus scale="   40.861">  1  9  2 -1</clus>
<clus scale="   80.558">  5  6 -1 -1</clus>
<clus scale="   91.867">  7  8 -1 -1</clus>
<clus scale="  129.256">  2  5  1 -1</clus>
<clus scale="  129.256">  2  5  1 -1</clus>
</clustering>
</event>
<event>
 9    1  0.6106093E-005  0.1115543E+03  0.7546771E-02  0.1260344E+00
          1   -1    0    0  502    0  0.00000000000E+00  0.00000000000E+00  0.11382567285E+03  0.11382567285E+03  0.00000000000E+00 0. -1.
         -2   -1    0    0    0  501 -0.00000000000E+00 -0.00000000000E+00 -0.27011152626E+03  0.27011152626E+03  0.00000000000E+00 0.  1.
        -24    2    1    2    0    0 -0.49550063482E+02 -0.20615971393E+02 -0.18216720561E+03  0.21337095230E+03  0.97273045698E+02 0.  0.
         23    2    1    2    0    0  0.69495965528E+02 -0.19604088210E+02  0.41261246649E+02  0.12311065329E+03  0.90772974937E+02 0.  0.
         13    1    3    3    0    0  0.27428566835E+02 -0.20088508359E+02 -0.60398508714E+02  0.69309842747E+02  0.00000000000E+00 0. -1.
        -14    1    3    3    0    0 -0.76978630317E+02 -0.52746303359E+00 -0.12176869689E+03  0.14406110956E+03  0.00000000000E+00 0.  1.
        -11    1    4    4    0    0 -0.16412109932E+02 -0.22461832730E+02  0.12611150399E+00  0.27819187373E+02  0.00000000000E+00 0.  1.
         11    1    4    4    0    0  0.85908075459E+02  0.28577445200E+01  0.41135135145E+02  0.95291465915E+02  0.00000000000E+00 0. -1.
         21    1    1    2  502  501 -0.19945902045E+02  0.40220059603E+02 -0.15379894446E+02  0.47455593516E+02  0.00000000000E+00 0. -1.
<scales pt_clust_5="13000.00000" pt_clust_6="13000.00000" pt_clust_7="13000.00000" pt_clust_8="13000.00000" pt_clust_9="44.89423"></scales>
<clustering>
<clus scale="   44.894">  1  9  2 -1</clus>
<clus scale="   90.773">  7  8 -1 -1</clus>
<clus scale="   97.273">  5  6 -1 -1</clus>
<clus scale="  105.934">  1  7  2 -1</clus>
<clus scale="   44.894">  1  5  2 -1</clus>
</clustering>
</event>
<event>
 9    1  0.6106093E-005  0.2156571E+03  0.7546771E-02  0.1169174E+00
          1   -1    0    0  502    0  0.00000000000E+00  0.00000000000E+00  0.14090268051E+04  0.14090268051E+04  0.00000000000E+00 0. -1.
         -2   -1    0    0    0  501 -0.00000000000E+00 -0.00000000000E+00 -0.60139248441E+02  0.60139248441E+02  0.00000000000E+00 0.  1.
        -24    2    1    2    0    0 -0.15369646062E+02  0.59812719761E+02  0.15817973171E+03  0.18790404556E+03  0.80456916098E+02 0.  0.
         23    2    1    2    0    0  0.19004070471E+03 -0.79597711905E+02  0.98669892764E+03  0.10119646726E+04  0.89702060718E+02 0.  0.
         13    1    3    3    0    0  0.22815851037E+02  0.52558438589E+02  0.63349299679E+02  0.85417131158E+02  0.00000000000E+00 0. -1.
        -14    1    3    3    0    0 -0.38185497099E+02  0.72542811714E+01  0.94830432030E+02  0.10248691440E+03  0.00000000000E+00 0.  1.
        -13    1    4    4    0    0  0.16295071603E+03 -0.84048633927E+02  0.94065625106E+03  0.95835864445E+03  0.00000000000E+00 0. -1.
         13    1    4    4    0    0  0.27089988675E+02  0.44509220217E+01  0.46042676573E+02  0.53606028198E+02  0.00000000000E+00 0.  1.
         21    1    1    2  502  501 -0.17467105865E+03  0.19784992145E+02  0.20400889735E+03  0.26929733538E+03  0.00000000000E+00 0.  1.
<scales pt_clust_5="13000.00000" pt_clust_6="13000.00000" pt_clust_7="13000.00000" pt_clust_8="13000.00000" pt_clust_9="196.11608"></scales>
<clustering>
<clus scale="   80.457">  5  6 -1 -1</clus>
<clus scale="   89.702">  7  8 -1 -1</clus>
<clus scale="  101.425">  2  5  1 -1</clus>
<clus scale="  196.116">  2  9  1 -1</clus>
<clus scale="  215.657">  1  5  2 -1</clus>
</clustering>
</event>
<event>
 9    1  0.6106093E-005  0.1041353E+03  0.7546771E-02  0.1277558E+00
          3   -1    0    0  502    0  0.00000000000E+00  0.00000000000E+00  0.95558851079E+02  0.95558851079E+02  0.00000000000E+00 0. -1.
         -4   -1    0    0    0  501 -0.00000000000E+00 -0.00000000000E+00 -0.58439203310E+03  0.58439203310E+03  0.00000000000E+00 0.  1.
        -24    2    1    2    0    0  0.55340481500E+02  0.19477745815E+02 -0.43185439402E+03  0.44248491507E+03  0.76503143410E+02 0.  0.
         23    2    1    2    0    0 -0.53112307871E+02  0.55774822752E+01  0.58388730215E+02  0.11938805640E+03  0.89399321238E+02 0.  0.
         11    1    3    3    0    0  0.10840971998E+02  0.43744048820E+02 -0.17771397322E+03  0.18333937045E+03  0.00000000000E+00 0. -1.
        -12    1    3    3    0    0  0.44499509502E+02 -0.24266303004E+02 -0.25414042080E+03  0.25914554461E+03  0.00000000000E+00 0.  1.
        -13    1    4    4    0    0 -0.68383523732E+02 -0.20351645101E+02  0.52851957938E+02  0.88790907385E+02  0.00000000000E+00 0.  1.
         13    1    4    4    0    0  0.15271215861E+02  0.25929127376E+02  0.55367722765E+01  0.30597149011E+02  0.00000000000E+00 0. -1.
         21    1    1    2  502  501 -0.22281736290E+01 -0.25055228090E+02 -0.11536751821E+03  0.11807791271E+03  0.00000000000E+00 0.  1.
<scales pt_clust_5="13000.00000" pt_clust_6="13000.00000" pt_clust_7="13000.00000" pt_clust_8="13000.00000" pt_clust_9="25.15411"></scales>
<clustering>
<clus scale="   25.154">  2  9  1 -1</clus>
<clus scale="   76.503">  5  6 -1 -1</clus>
<clus scale="   89.399">  7  8 -1 -1</clus>
<clus scale="   93.299">  2  5  1 -1</clus>
<clus scale="  104.135">  1  5  2 -1</clus>
</clustering>
</event>
<event>
 9    1  0.6106093E-005  0.9507469E+02  0.7546771E-02  0.1296616E+00
         -4   -1    0    0    0  501 -0.00000000000E+00  0.00000000000E+00  0.99059562670E+02  0.99059562670E+02  0.00000000000E+00 0.  1.
          3   -1    0    0  502    0  0.00000000000E+00 -0.00000000000E+00 -0.22198471925E+03  0.22198471925E+03  0.00000000000E+00 0. -1.
        -24    2    1    2    0    0  0.27292574899E+02 -0.23264255499E+02  0.50458269801E+02  0.10276665497E+03  0.82029495638E+02 0.  0.
         23    2    1    2    0    0 -0.51955709577E+01  0.23212154453E+02 -0.17164510651E+03  0.19611229244E+03  0.91826960020E+02 0.  0.
         13    1    3    3    0    0  0.34879229871E+02  0.13967554841E+02 -0.24228431362E+01  0.37650012397E+02  0.00000000000E+00 0. -1.
        -14    1    3    3    0    0 -0.75866549726E+01 -0.37231810341E+02  0.52881112938E+02  0.65116642577E+02  0.00000000000E+00 0.  1.
        -11    1    4    4    0    0 -0.42587719132E+02 -0.11089289175E+02 -0.84398747572E+02  0.95183164200E+02  0.00000000000E+00 0.  1.
         11    1    4    4    0    0  0.37392148175E+02  0.34301443628E+02 -0.87246358933E+02  0.10092912824E+03  0.00000000000E+00 0. -1.
         21    1    1    2  502  501 -0.22097003941E+02  0.52101046499E-01 -0.17383198738E+01  0.22165334504E+02  0.00000000000E+00 0.  1.
<scales pt_clust_5="13000.00000" pt_clust_6="13000.00000" pt_clust_7="13000.00000" pt_clust_8="13000.00000" pt_clust_9="22.09707"></scales>
<clustering>
<clus scale="   22.097">  1  9  2 -1</clus>
<clus scale="   82.029">  5  6 -1 -1</clus>
<clus scale="   85.650">  1  5  2 -1</clus>
<clus scale="   91.827">  7  8 -1 -1</clus>
<clus scale="   95.075">  2  5  1 -1</clus>
</clustering>
</event>
<event>
 9    1  0.6106093E-005  0.1176931E+03  0.7546771E-02  0.1251125E+00
          1   -1    0    0  502    0  0.00000000000E+00  0.00000000000E+00  0.21498828017E+03  0.21498828017E+03  0.00000000000E+00 0. -1.
         -2   -1    0    0    0  501 -0.00000000000E+00 -0.00000000000E+00 -0.92225602972E+02  0.92225602972E+02  0.00000000000E+00 0.  1.
        -24    2    1    2    0    0 -0.44241599312E+02  0.32637574830E+02  0.31305836303E+02  0.10312793549E+03  0.81441913598E+02 0.  0.
         23    2    1    2    0    0  0.80066837485E+02 -0.31173531148E+02  0.10592064056E+03  0.16542339970E+03  0.93612133637E+02 0.  0.
         11    1    3    3    0    0 -0.56494413428E+02 -0.62513824642E+01  0.24030838306E+02  0.61710450663E+02  0.00000000000E+00 0. -1.
        -12    1    3    3    0    0  0.12252814117E+02  0.38888957295E+02  0.72749979972E+01  0.41417484823E+02  0.00000000000E+00 0.  1.
        -13    1    4    4    0    0  0.17694094740E+02  0.31302686991E+02  0.47447206996E+02  0.59532987941E+02  0.00000000000E+00 0.  1.
         13    1    4    4    0    0  0.62372742746E+02 -0.62476218139E+02  0.58473433559E+02  0.10589041176E+03  0.00000000000E+00 0. -1.
         21    1    1    2  502  501 -0.35825238174E+02 -0.14640436822E+01 -0.14463799657E+02  0.38662547958E+02  0.00000000000E+00 0. -1.
<scales pt_clust_5="13000.00000" pt_clust_6="13000.00000" pt_clust_7="13000.00000" pt_clust_8="13000.00000" pt_clust_9="35.85514"></scales>
<clustering>
<clus scale="   35.855">  2  9  1 -1</clus>
<clus scale="   81.442">  5  6 -1 -1</clus>
<clus scale="   93.612">  7  8 -1 -1</clus>
<clus scale="  108.265">  2  5  1 -1</clus>
<clus scale="  117.693">  1  5  2 -1</clus>
</clustering>
</event>
<event>
 9    1  0.6106093E-005  0.1589604E+03  0.7546771E-02  0.1192160E+00
          1   -1    0    0  502    0  0.00000000000E+00  0.00000000000E+00  0.19781469065E+03  0.19781469065E+03  0.00000000000E+00 0. -1.
         -2   -1    0    0    0  501 -0.00000000000E+00 -0.00000000000E+00 -0.45419918351E+03  0.45419918351E+03  0.00000000000E+00 0.  1.
         23    2    1    2    0    0  0.12363930223E+03  0.18818649198E+03 -0.19103464757E+03  0.30998020837E+03  0.94300902369E+02 0.  0.
        -24    2    1    2    0    0 -0.28299579798E+02 -0.10959348021E+03  0.72721711818E+02  0.15674934630E+03  0.80438256286E+02 0.  0.
         11    1    4    4    0    0 -0.26669688850E+02 -0.49460524695E+02  0.78255018827E+02  0.96340353841E+02  0.00000000000E+00 0. -1.
        -12    1    4    4    0    0 -0.16298909482E+01 -0.60132955516E+02 -0.55333070089E+01  0.60408992460E+02  0.00000000000E+00 0.  1.
        -13    1    3    3    0    0  0.77229924934E+02  0.61169728664E+02 -0.12594507995E+03  0.15990109498E+03  0.00000000000E+00 0.  1.
         13    1    3    3    0    0  0.46409377293E+02  0.12701676331E+03 -0.65089567620E+02  0.15007911339E+03  0.00000000000E+00 0. -1.
         21    1    1    2  502  501 -0.95339722428E+02 -0.78593011764E+02 -0.13807155711E+03  0.18528431950E+03  0.00000000000E+00 0. -1.
<scales pt_clust_5="13000.00000" pt_clust_6="13000.00000" pt_clust_7="13000.00000" pt_clust_8="13000.00000" pt_clust_9="123.55778"></scales>
<clustering>
<clus scale="   80.438">  5  6 -1 -1</clus>
<clus scale="   94.301">  7  8 -1 -1</clus>
<clus scale="  123.558">  2  9  1 -1</clus>
<clus scale="  151.149">  1  5  2 -1</clus>
<clus scale="  151.149">  1  5  2 -1</clus>
</clustering>
</event>
<event>
 9    1  0.6106093E-005  0.2313906E+03  0.7546771E-02  0.1126259E+00
         -2   -1    0    0    0  501 -0.00000000000E+00  0.00000000000E+00  0.10291408224E+03  0.10291408224E+03  0.00000000000E+00 0.  1.
          1   -1    0    0  502    0  0.00000000000E+00 -0.00000000000E+00 -0.59796377250E+03  0.59796377250E+03  0.00000000000E+00 0. -1.
        -24    2    1    2    0    0 -0.49412251633E+02 -0.20544088427E+03 -0.19660972105E+03  0.30082568059E+03  0.84812617842E+02 0.  0.
         23    2    1    2    0    0  0.78210003532E+02  0.19796985817E+03 -0.28386337663E+03  0.36692207007E+03  0.93512135640E+02 0.  0.
         11    1    3    3    0    0 -0.57103083056E+02 -0.17487544892E+03 -0.12450792288E+03  0.22213601147E+03  0.00000000000E+00 0. -1.
        -12    1    3    3    0    0  0.76908314232E+01 -0.30565435346E+02 -0.72101798173E+02  0.78689669117E+02  0.00000000000E+00 0.  1.
        -11    1    4    4    0    0  0.59986258900E+02  0.12270335266E+03 -0.10586049270E+03  0.17280309003E+03  0.00000000000E+00 0.  1.
         11    1    4    4    0    0  0.18223744632E+02  0.75266505509E+02 -0.17800288393E+03  0.19411898003E+03  0.00000000000E+00 0. -1.
         21    1    1    2  502  501 -0.28797751898E+02  0.74710261029E+01 -0.14576592574E+02  0.33130104082E+02  0.00000000000E+00 0. -1.
<scales pt_clust_5="13000.00000" pt_clust_6="13000.00000" pt_clust_7="13000.00000" pt_clust_8="13000.00000" pt_clust_9="29.75108"></scales>
<clustering>
<clus scale="   29.751">  1  9  2 -1</clus>
<clus scale="   84.813">  5  6 -1 -1</clus>
<clus scale="   93.512">  7  8 -1 -1</clus>
<clus scale="  228.014">  1  5  2 -1</clus>
<clus scale="  231.391">  2  5  1 -1</clus>
</clustering>
</event>
<event>
 9    1  0.6106093E-005  0.1510641E+03  0.7546771E-02  0.1200841E+00
          1   -1    0    0  502    0  0.00000000000E+00  0.00000000000E+00  0.96748319620E+03  0.96748319620E+03  0.00000000000E+00 0. -1.
         -2   -1    0    0    0  501 -0.00000000000E+00 -0.00000000000E+00 -0.48929780933E+02  0.48929780933E+02  0.00000000000E+00 0.  1.
         23    2    1    2    0    0 -0.11921690930E+03  0.30651310725E+01  0.10489217061E+03  0.18285161622E+03  0.90610593233E+02 0.  0.
        -24    2    1    2    0    0  0.12903394172E+03  0.21906570677E+02  0.70380780723E+03  0.72047848101E+03  0.81327462316E+02 0.  0.
         11    1    4    4    0    0  0.13538775448E+03  0.15720110104E+02  0.69399397615E+03  0.70725144387E+03  0.00000000000E+00 0. -1.
        -12    1    4    4    0    0 -0.63538127612E+01  0.61864605733E+01  0.98138310806E+01  0.13227037140E+02  0.00000000000E+00 0.  1.
        -13    1    3    3    0    0 -0.11890065177E+02  0.25240838804E+02  0.56572071827E+02  0.63078307716E+02  0.00000000000E+00 0. -1.
         13    1    3    3    0    0 -0.10732684412E+03 -0.22175707732E+02  0.48320098784E+02  0.11977330850E+03  0.00000000000E+00 0.  1.
         21    1    1    2  502  501 -0.98170324182E+01 -0.24971701750E+02  0.10985343742E+03  0.11308287990E+03  0.00000000000E+00 0. -1.
<scales pt_clust_5="13000.00000" pt_clust_6="13000.00000" pt_clust_7="13000.00000" pt_clust_8="13000.00000" pt_clust_9="26.83207"></scales>
<clustering>
<clus scale="   26.832">  1  9  2 -1</clus>
<clus scale="   81.327">  5  6 -1 -1</clus>
<clus scale="   90.611">  7  8 -1 -1</clus>
<clus scale="  145.685">  1  5  2 -1</clus>
<clus scale="   26.832">  1  5  2 -1</clus>
</clustering>
</event>
<event>
 9    1  0.6106093E-005  0.9472450E+02  0.7546771E-02  0.1297398E+00
          1   -1    0    0  502    0  0.00000000000E+00  0.00000000000E+00  0.67978376258E+02  0.67978376258E+02  0.00000000000E+00 0. -1.
         -2   -1    0    0    0  501 -0.00000000000E+00 -0.00000000000E+00 -0.30537839468E+03  0.30537839468E+03  0.00000000000E+00 0.  1.
        -24    2    1    2    0    0  0.36218298365E+02 -0.29334502774E+02 -0.10990943511E+03  0.14403566314E+03  0.80584800943E+02 0.  0.
         23    2    1    2    0    0 -0.22513826201E+02  0.41736838551E+01  0.53222241510E+01  0.93453079200E+02  0.90448106309E+02 0.  0.
         11    1    3    3    0    0  0.25681259762E+02 -0.53978999337E+02 -0.48310010065E+02  0.76857768279E+02  0.00000000000E+00 0. -1.
        -12    1    3    3    0    0  0.10537038603E+02  0.24644496563E+02 -0.61599425040E+02  0.67177894866E+02  0.00000000000E+00 0.  1.
        -11    1    4    4    0    0 -0.77010802928E+01  0.45199123349E+02 -0.10529910083E+02  0.47044089911E+02  0.00000000000E+00 0.  1.
         11    1    4    4    0    0 -0.14812745908E+02 -0.41025439494E+02  0.15852134234E+02  0.46408989289E+02  0.00000000000E+00 0. -1.
         21    1    1    2  502  501 -0.13704472164E+02  0.25160818919E+02 -0.13281280747E+03  0.13586802859E+03  0.00000000000E+00 0.  1.
<scales pt_clust_5="13000.00000" pt_clust_6="13000.00000" pt_clust_7="13000.00000" pt_clust_8="13000.00000" pt_clust_9="28.65099"></scales>
<clustering>
<clus scale="   28.651">  2  9  1 -1</clus>
<clus scale="   80.585">  5  6 -1 -1</clus>
<clus scale="   85.357">  2  5  1 -1</clus>
<clus scale="   90.448">  7  8 -1 -1</clus>
<clus scale="   94.724">  1  5  2 -1</clus>
</clustering>
</event>
<event>
 9    1  0.6106093E-005  0.1447204E+03  0.7546771E-02  0.1208396E+00
         -2   -1    0    0    0  501 -0.00000000000E+00  0.00000000000E+00  0.10592543559E+03  0.10592543559E+03  0.00000000000E+00 0.  1.
          1   -1    0    0  502    0  0.00000000000E+00 -0.00000000000E+00 -0.51668711695E+03  0.51668711695E+03  0.00000000000E+00 0. -1.
         23    2    1    2    0    0 -0.66964464711E+02  0.11289089326E+03 -0.19752360284E+02  0.16006216545E+03  0.89449135024E+02 0.  0.
        -24    2    1    2    0    0  0.68733713056E+02 -0.87248431697E+02 -0.40855143748E+03  0.43143139091E+03  0.82958759908E+02 0.  0.
         13    1    4    4    0    0  0.38786244046E+02 -0.54439117409E+02 -0.35777781528E+03  0.36396834386E+03  0.00000000000E+00 0. -1.
        -14    1    4    4    0    0  0.29947469010E+02 -0.32809314288E+02 -0.50773622208E+02  0.67463047042E+02  0.00000000000E+00 0.  1.
        -13    1    3    3    0    0 -0.30838342303E+02  0.85584158305E+02  0.27080350575E+02  0.94915735766E+02  0.00000000000E+00 0.  1.
         13    1    3    3    0    0 -0.36126122408E+02  0.27306734956E+02 -0.46832710859E+02  0.65146429684E+02  0.00000000000E+00 0. -1.
         21    1    1    2  502  501 -0.17692483447E+01 -0.25642461565E+02  0.17542116410E+02  0.31118996175E+02  0.00000000000E+00 0.  1.
<scales pt_clust_5="13000.00000" pt_clust_6="13000.00000" pt_clust_7="13000.00000" pt_clust_8="13000.00000" pt_clust_9="25.70343"></scales>
<clustering>
<clus scale="   25.703">  1  9  2 -1</clus>
<clus scale="   82.959">  5  6 -1 -1</clus>
<clus scale="   89.449">  7  8 -1 -1</clus>
<clus scale="  140.801">  2  5  1 -1</clus>
<clus scale="  140.801">  2  5  1 -1</clus>
</clustering>
</event>
<event>
 9    1  0.6106093E-005  0.4555420E+03  0.7546771E-02  0.1056293E+00
          1   -1    0    0  502    0  0.00000000000E+00  0.00000000000E+00  0.90108274169E+03  0.90108274169E+03  0.00000000000E+00 0. -1.
         -2   -1    0    0    0  501 -0.00000000000E+00 -0.00000000000E+00 -0.55463306183E+03  0.55463306183E+03  0.00000000000E+00 0.  1.
        -24    2    1    2    0    0  0.13345492681E+03 -0.10837522279E+03 -0.19085001802E+03  0.26894705178E+03  0.79708097939E+02 0.  0.
         23    2    1    2    0    0 -0.40849096188E+03  0.27001549925E+03  0.67546577283E+03  0.83911624733E+03  0.89937925805E+02 0.  0.
         13    1    3    3    0    0  0.97248593532E+02 -0.33355269025E+02 -0.79900141206E+02  0.13020712531E+03  0.00000000000E+00 0. -1.
        -14    1    3    3    0    0  0.36206333277E+02 -0.75019953765E+02 -0.11094987681E+03  0.13873992647E+03  0.00000000000E+00 0.  1.
        -11    1    4    4    0    0 -0.32813078547E+03  0.17899079029E+03  0.54535032530E+03  0.66114634741E+03  0.00000000000E+00 0. -1.
         11    1    4    4    0    0 -0.80360176407E+02  0.91024708959E+02  0.13011544752E+03  0.17796989992E+03  0.00000000000E+00 0.  1.
         21    1    1    2  502  501  0.27503603507E+03 -0.16164027646E+03 -0.13816607495E+03  0.34765250442E+03  0.00000000000E+00 0.  1.
<scales pt_clust_5="13000.00000" pt_clust_6="13000.00000" pt_clust_7="13000.00000" pt_clust_8="13000.00000" pt_clust_9="446.57546"></scales>
<clustering>
<clus scale="   79.708">  5  6 -1 -1</clus>
<clus scale="   89.938">  7  8 -1 -1</clus>
<clus scale="  189.496">  2  5  1 -1</clus>
<clus scale="  446.575">  2  9  1 -1</clus>
<clus scale="  455.542">  1  5  2 -1</clus>
</clustering>
</event>
<event>
 9    1  0.6106093E-005  0.2130833E+03  0.7546771E-02  0.1155953E+00
         -2   -1    0    0    0  501 -0.00000000000E+00  0.00000000000E+00  0.15857620066E+03  0.15857620066E+03  0.00000000000E+00 0.  1.
          1   -1    0    0  502    0  0.00000000000E+00 -0.00000000000E+00 -0.91758433166E+03  0.91758433166E+03  0.00000000000E+00 0. -1.
         23    2    1    2    0    0 -0.99792870317E+02  0.44574969887E+02  0.55324906489E+02  0.15317922471E+03  0.91964583936E+02 0.  0.
        -24    2    1    2    0    0  0.14034520211E+03 -0.18904192207E+03 -0.67058027296E+03  0.71518321042E+03  0.79846715156E+02 0.  0.
         13    1    4    4    0    0  0.12902198733E+03 -0.19626896345E+03 -0.64159065912E+03  0.68323257614E+03  0.00000000000E+00 0. -1.
        -14    1    4    4    0    0  0.11323214783E+02  0.72270413775E+01 -0.28989613843E+02  0.31950634280E+02  0.00000000000E+00 0.  1.
        -11    1    3    3    0    0 -0.98248588006E+02  0.67052712856E+02  0.53935046641E+02  0.13060566834E+03  0.00000000000E+00 0.  1.
         11    1    3    3    0    0 -0.15442823105E+01 -0.22477742969E+02  0.13898598481E+01  0.22573556370E+02  0.00000000000E+00 0. -1.
         21    1    1    2  502  501 -0.40552331796E+02  0.14446695218E+03 -0.14375276452E+03  0.20779809719E+03  0.00000000000E+00 0.  1.
<scales pt_clust_5="13000.00000" pt_clust_6="13000.00000" pt_clust_7="13000.00000" pt_clust_8="13000.00000" pt_clust_9="197.55758"></scales>
<clustering>
<clus scale="   79.847">  5  6 -1 -1</clus>
<clus scale="   91.965">  7  8 -1 -1</clus>
<clus scale="  142.839">  1  7  2 -1</clus>
<clus scale="  197.558">  1  9  2 -1</clus>
<clus scale="  213.083">  2  5  1 -1</clus>
</clustering>
</event>
<event>
 9    1  0.6106093E-005  0.9650870E+02  0.7546771E-02  0.1292820E+00
          1   -1    0    0  502    0  0.00000000000E+00  0.00000000000E+00  0.17351225246E+03  0.17351225246E+03  0.00000000000E+00 0. -1.
         -2   -1    0    0    0  501 -0.00000000000E+00 -0.00000000000E+00 -0.30046233932E+03  0.30046233932E+03  0.00000000000E+00 0.  1.
        -24    2    1    2    0    0 -0.59956217571E+01 -0.11003781080E+02 -0.18864741533E+03  0.20604987396E+03  0.81924798272E+02 0.  0.
         23    2    1    2    0    0  0.25326596665E+02  0.21539972743E+02  0.14905342992E+03  0.17783705837E+03  0.91124570971E+02 0.  0.
         13    1    3    3    0    0  0.19606840297E+02  0.19115749496E+02 -0.14329289088E+03  0.14588588911E+03  0.00000000000E+00 0. -1.
        -14    1    3    3    0    0 -0.25602462054E+02 -0.30119530575E+02 -0.45354524450E+02  0.60163984853E+02  0.00000000000E+00 0.  1.
        -13    1    4    4    0    0  0.18546740720E+02 -0.30224883775E+02  0.25416048776E+02  0.43629127036E+02  0.00000000000E+00 0.  1.
         13    1    4    4    0    0  0.67798559442E+01  0.51764856518E+02  0.12363738114E+03  0.13420793133E+03  0.00000000000E+00 0. -1.
         21    1    1    2  502  501 -0.19330974907E+02 -0.10536191664E+02 -0.87356101447E+02  0.90087659453E+02  0.00000000000E+00 0.  1.
<scales pt_clust_5="13000.00000" pt_clust_6="13000.00000" pt_clust_7="13000.00000" pt_clust_8="13000.00000" pt_clust_9="22.01586"></scales>
<clustering>
<clus scale="   22.016">  2  9  1 -1</clus>
<clus scale="   81.925">  5  6 -1 -1</clus>
<clus scale="   87.874">  2  5  1 -1</clus>
<clus scale="   91.125">  7  8 -1 -1</clus>
<clus scale="   96.509">  1  5  2 -1</clus>
</clustering>
</event>
<event>
 9    1  0.6106093E-005  0.1143495E+03  0.7546771E-02  0.1254768E+00
         -2   -1    0    0    0  501 -0.00000000000E+00  0.00000000000E+00  0.25895210919E+03  0.25895210919E+03  0.00000000000E+00 0.  1.
          1   -1    0    0  502    0  0.00000000000E+00 -0.00000000000E+00 -0.11401772305E+03  0.11401772305E+03  0.00000000000E+00 0. -1.
        -24    2    1    2    0    0 -0.23915274467E+02  0.57589897936E+02  0.76309034671E+02  0.12709682818E+03  0.80262059930E+02 0.  0.
         23    2    1    2    0    0 -0.12894570469E+02 -0.82140618313E+02 -0.41748207947E+02  0.12696116624E+03  0.86387925906E+02 0.  0.
         13    1    3    3    0    0 -0.43006868502E+02  0.49375108611E+02  0.22210694697E+02  0.69143380360E+02  0.00000000000E+00 0. -1.
        -14    1    3    3    0    0  0.19091594035E+02  0.82147893245E+01  0.54098339974E+02  0.57953447821E+02  0.00000000000E+00 0.  1.
        -11    1    4    4    0    0 -0.23862580616E+02 -0.34584435041E+02  0.21398274229E+02  0.47152858246E+02  0.00000000000E+00 0.  1.
         11    1    4    4    0    0  0.10968010147E+02 -0.47556183272E+02 -0.63146482176E+02  0.79808307996E+02  0.00000000000E+00 0. -1.
         21    1    1    2  502  501  0.36809844936E+02  0.24550720377E+02  0.11037355941E+03  0.11891183782E+03  0.00000000000E+00 0.  1.
<scales pt_clust_5="13000.00000" pt_clust_6="13000.00000" pt_clust_7="13000.00000" pt_clust_8="13000.00000" pt_clust_9="44.24593"></scales>
<clustering>
<clus scale="   44.246">  1  9  2 -1</clus>
<clus scale="   80.262">  5  6 -1 -1</clus>
<clus scale="   86.388">  7  8 -1 -1</clus>
<clus scale="  109.795">  1  5  2 -1</clus>
<clus scale="  114.350">  2  5  1 -1</clus>
</clustering>
</event>
<event>
 9    1  0.6106093E-005  0.9195667E+02  0.7546771E-02  0.1304197E+00
          1   -1    0    0  502    0  0.00000000000E+00  0.00000000000E+00  0.18974407109E+03  0.18974407109E+03  0.00000000000E+00 0. -1.
         -2   -1    0    0    0  501 -0.00000000000E+00 -0.00000000000E+00 -0.95815200421E+02  0.95815200421E+02  0.00000000000E+00 0.  1.
        -24    2    1    2    0    0  0.30855523078E+02 -0.86988159632E+01 -0.29374526308E+02  0.91639364639E+02  0.80667079110E+02 0.  0.
         23    2    1    2    0    0 -0.23077127590E+01 -0.20162855796E+02  0.12208377906E+03  0.15330634955E+03  0.90479397714E+02 0.  0.
         13    1    3    3    0    0  0.19960178230E+02 -0.35517775271E+02  0.10774556441E+02  0.42142759066E+02  0.00000000000E+00 0. -1.
        -14    1    3    3    0    0  0.10895344848E+02  0.26818959308E+02 -0.40149082749E+02  0.49496605573E+02  0.00000000000E+00 0.  1.
        -11    1    4    4    0    0 -0.28026129209E+02 -0.52710029717E+01  0.89998769216E+00  0.28531690602E+02  0.00000000000E+00 0.  1.
         11    1    4    4    0    0  0.25718416450E+02 -0.14891852824E+02  0.12118379137E+03  0.12477465895E+03  0.00000000000E+00 0. -1.
         21    1    1    2  502  501 -0.28547810319E+02  0.28861671759E+02  0.12196179184E+01  0.40613557325E+02  0.00000000000E+00 0. -1.
<scales pt_clust_5="13000.00000" pt_clust_6="13000.00000" pt_clust_7="13000.00000" pt_clust_8="13000.00000" pt_clust_9="40.59524"></scales>
<clustering>
<clus scale="   40.595">  2  9  1 -1</clus>
<clus scale="   80.667">  5  6 -1 -1</clus>
<clus scale="   82.321">  2  5  1 -1</clus>
<clus scale="   90.479">  7  8 -1 -1</clus>
<clus scale="   91.957">  1  5  2 -1</clus>
</clustering>
</event>
<event>
 9    1  0.6106093E-005  0.1131874E+03  0.7546771E-02  0.1259250E+00
         -2   -1    0    0    0  501 -0.00000000000E+00  0.00000000000E+00  0.31569594276E+03  0.31569594276E+03  0.00000000000E+00 0.  1.
          1   -1    0    0  502    0  0.00000000000E+00 -0.00000000000E+00 -0.13622014204E+03  0.13622014204E+03  0.00000000000E+00 0. -1.
        -24    2    1    2    0    0 -0.67925313879E+02  0.10104992660E+02  0.24878104681E+03  0.27059923678E+03  0.81338665782E+02 0.  0.
         23    2    1    2    0    0  0.17593535537E+02 -0.33549089443E+02 -0.75001790189E+02  0.12550140034E+03  0.93221558990E+02 0.  0.
         13    1    3    3    0    0  0.63536913798E+01  0.28662954987E+02  0.81601231633E+02  0.86721942937E+02  0.00000000000E+00 0. -1.
        -14    1    3    3    0    0 -0.74279005259E+02 -0.18557962327E+02  0.16717981518E+03  0.18387729384E+03  0.00000000000E+00 0.  1.
        -11    1    4    4    0    0  0.24736640752E+02  0.24756853662E+02 -0.51426613055E+02  0.62205303064E+02  0.00000000000E+00 0.  1.
         11    1    4    4    0    0 -0.71431052155E+01 -0.58305943105E+02 -0.23575177135E+02  0.63296097276E+02  0.00000000000E+00 0. -1.
         21    1    1    2  502  501  0.50331778343E+02  0.23444096783E+02  0.56965440921E+01  0.55815447680E+02  0.00000000000E+00 0.  1.
<scales pt_clust_5="13000.00000" pt_clust_6="13000.00000" pt_clust_7="13000.00000" pt_clust_8="13000.00000" pt_clust_9="55.52399"></scales>
<clustering>
<clus scale="   55.524">  2  9  1 -1</clus>
<clus scale="   81.339">  5  6 -1 -1</clus>
<clus scale="   93.222">  7  8 -1 -1</clus>
<clus scale="  103.620">  1  5  2 -1</clus>
<clus scale="   55.524">  2  5  1 -1</clus>
</clustering>
</event>
<event>
 9    1  0.6106093E-005  0.1061648E+03  0.7546771E-02  0.1272013E+00
          1   -1    0    0  502    0  0.00000000000E+00  0.00000000000E+00  0.19193618727E+03  0.19193618727E+03  0.00000000000E+00 0. -1.
         -2   -1    0    0    0  501 -0.00000000000E+00 -0.00000000000E+00 -0.10694436761E+03  0.10694436761E+03  0.00000000000E+00 0.  1.
        -24    2    1    2    0    0 -0.16989750629E+02  0.45509141915E+02 -0.47571349352E+02  0.10446823896E+03  0.79314853898E+02 0.  0.
         23    2    1    2    0    0  0.20388404067E+01 -0.60124048227E+02  0.13575799939E+03  0.17326208793E+03  0.89277425307E+02 0.  0.
         13    1    3    3    0    0 -0.20152737320E+02 -0.17035869818E+01  0.15598570816E+02  0.25541151924E+02  0.00000000000E+00 0. -1.
        -14    1    3    3    0    0  0.31629866908E+01  0.47212728897E+02 -0.63169920168E+02  0.78927087041E+02  0.00000000000E+00 0.  1.
        -11    1    4    4    0    0 -0.31288895864E+02 -0.65381072914E+02  0.10512395145E+03  0.12768995602E+03  0.00000000000E+00 0.  1.
         11    1    4    4    0    0  0.33327736271E+02  0.52570246873E+01  0.30634047939E+02  0.45572131908E+02  0.00000000000E+00 0. -1.
         21    1    1    2  502  501  0.14950910222E+02  0.14614906312E+02 -0.31948303667E+01  0.21150227991E+02  0.00000000000E+00 0.  1.
<scales pt_clust_5="13000.00000" pt_clust_6="13000.00000" pt_clust_7="13000.00000" pt_clust_8="13000.00000" pt_clust_9="20.90754"></scales>
<clustering>
<clus scale="   20.908">  2  9  1 -1</clus>
<clus scale="   79.315">  5  6 -1 -1</clus>
<clus scale="   89.277">  7  8 -1 -1</clus>
<clus scale="   97.935">  2  5  1 -1</clus>
<clus scale="  106.165">  1  5  2 -1</clus>
</clustering>
</event>
<event>
 9    1  0.6106093E-005  0.2319950E+03  0.7546771E-02  0.1126261E+00
          1   -1    0    0  502    0  0.00000000000E+00  0.00000000000E+00  0.15817768743E+04  0.15817768743E+04  0.00000000000E+00 0. -1.
         -2   -1    0    0    0  501 -0.00000000000E+00 -0.00000000000E+00 -0.40173192873E+02  0.40173192873E+02  0.00000000000E+00 0.  1.
        -24    2    1    2    0    0  0.20280613174E+03  0.56659442689E+02  0.48306762558E+03  0.53250413856E+03  0.76587904897E+02 0.  0.
         23    2    1    2    0    0 -0.21114865146E+03 -0.37464924186E+02  0.10093001339E+04  0.10359463661E+04  0.92253670186E+02 0.  0.
         11    1    3    3    0    0  0.32877574098E+02  0.88420251821E+00  0.15894564745E+03  0.16231277071E+03  0.00000000000E+00 0. -1.
        -12    1    3    3    0    0  0.16992855765E+03  0.55775240170E+02  0.32412197814E+03  0.37019136785E+03  0.00000000000E+00 0.  1.
        -13    1    4    4    0    0 -0.12656458282E+03 -0.35518670900E+02  0.79054705386E+03  0.80140178062E+03  0.00000000000E+00 0. -1.
         13    1    4    4    0    0 -0.84584068635E+02 -0.19462532860E+01  0.21875307999E+03  0.23454458547E+03  0.00000000000E+00 0.  1.
         21    1    1    2  502  501  0.83425197105E+01 -0.19194518503E+02  0.49235921954E+02  0.53499562487E+02  0.00000000000E+00 0. -1.
<scales pt_clust_5="13000.00000" pt_clust_6="13000.00000" pt_clust_7="13000.00000" pt_clust_8="13000.00000" pt_clust_9="20.92910"></scales>
<clustering>
<clus scale="   20.929">  2  9  1 -1</clus>
<clus scale="   76.588">  5  6 -1 -1</clus>
<clus scale="   92.254">  7  8 -1 -1</clus>
<clus scale="  226.223">  2  5  1 -1</clus>
<clus scale="  231.995">  1  5  2 -1</clus>
</clustering>
</event>
<event>
 9    1  0.6106093E-005  0.9525986E+02  0.7546771E-02  0.1297477E+00
          1   -1    0    0  502    0  0.00000000000E+00  0.00000000000E+00  0.32425387732E+03  0.32425387732E+03  0.00000000000E+00 0. -1.
         -2   -1    0    0    0  501 -0.00000000000E+00 -0.00000000000E+00 -0.12181746232E+03  0.12181746232E+03  0.00000000000E+00 0.  1.
        -24    2    1    2    0    0  0.13073979683E+02 -0.22734950374E+02 -0.91415930572E+02  0.12427171758E+03  0.79992377858E+02 0.  0.
         23    2    1    2    0    0 -0.13786727715E+02 -0.37525366534E+01  0.27195169767E+03  0.28742327324E+03  0.91925278055E+02 0.  0.
         11    1    3    3    0    0 -0.11100485619E+02  0.21500126364E+02 -0.60444574969E+02  0.65107778781E+02  0.00000000000E+00 0. -1.
        -12    1    3    3    0    0  0.24174465301E+02 -0.44235076738E+02 -0.30971355603E+02  0.59163938801E+02  0.00000000000E+00 0.  1.
        -13    1    4    4    0    0 -0.48433181377E+02 -0.18764563172E+02  0.19361895758E+03  0.20046491619E+03  0.00000000000E+00 0. -1.
         13    1    4    4    0    0  0.34646453662E+02  0.15012026519E+02  0.78332740090E+02  0.86958357055E+02  0.00000000000E+00 0.  1.
         21    1    1    2  502  501  0.71274803221E+00  0.26487487027E+02  0.21900647911E+02  0.34376348812E+02  0.00000000000E+00 0.  1.
<scales pt_clust_5="13000.00000" pt_clust_6="13000.00000" pt_clust_7="13000.00000" pt_clust_8="13000.00000" pt_clust_9="26.49707"></scales>
<clustering>
<clus scale="   26.497">  1  9  2 -1</clus>
<clus scale="   79.992">  5  6 -1 -1</clus>
<clus scale="   83.803">  2  5  1 -1</clus>
<clus scale="   91.925">  7  8 -1 -1</clus>
<clus scale="   26.497">  1  5  2 -1</clus>
</clustering>
</event>
<event>
 9    1  0.6106093E-005  0.1214341E+03  0.7546771E-02  0.1246777E+00
          1   -1    0    0  502    0  0.00000000000E+00  0.00000000000E+00  0.50734499392E+03  0.50734499392E+03  0.00000000000E+00 0. -1.
         -2   -1    0    0    0  501 -0.00000000000E+00 -0.00000000000E+00 -0.71129823243E+02  0.71129823243E+02  0.00000000000E+00 0.  1.
        -24    2    1    2    0    0 -0.65439641381E+02  0.57478773776E+02  0.29679356168E+02  0.12273203658E+03  0.81216577877E+02 0.  0.
         23    2    1    2    0    0  0.18671838753E+02  0.18060473975E+02  0.30042075323E+03  0.31734548456E+03  0.98897468735E+02 0.  0.
         13    1    3    3    0    0 -0.63184319153E+02  0.19676062850E+01  0.20260189728E+02  0.66382263814E+02  0.00000000000E+00 0. -1.
        -14    1    3    3    0    0 -0.22553222289E+01  0.55511167491E+02  0.94191664406E+01  0.56349772768E+02  0.00000000000E+00 0.  1.
        -11    1    4    4    0    0 -0.23177160039E+02  0.45437582832E+02  0.12706052110E+03  0.13691650997E+03  0.00000000000E+00 0.  1.
         11    1    4    4    0    0  0.41848998792E+02 -0.27377108857E+02  0.17336023213E+03  0.18042897459E+03  0.00000000000E+00 0. -1.
         21    1    1    2  502  501  0.46767802629E+02 -0.75539247751E+02  0.10611506129E+03  0.13839729602E+03  0.00000000000E+00 0. -1.
<scales pt_clust_5="13000.00000" pt_clust_6="13000.00000" pt_clust_7="13000.00000" pt_clust_8="13000.00000" pt_clust_9="88.84484"></scales>
<clustering>
<clus scale="   81.217">  5  6 -1 -1</clus>
<clus scale="   88.845">  1  9  2 -1</clus>
<clus scale="   98.897">  7  8 -1 -1</clus>
<clus scale="  107.525">  2  5  1 -1</clus>
<clus scale="   88.845">  1  5  2 -1</clus>
</clustering>
</event>
<event>
 9    1  0.6106093E-005  0.2625451E+03  0.7546771E-02  0.1106426E+00
          1   -1    0    0  502    0  0.00000000000E+00  0.00000000000E+00  0.39156826300E+03  0.39156826300E+03  0.00000000000E+00 0. -1.
         -2   -1    0    0    0  501 -0.00000000000E+00 -0.00000000000E+00 -0.24280494212E+03  0.24280494212E+03  0.00000000000E+00 0.  1.
         23    2    1    2    0    0  0.21174717083E+03 -0.98003186073E+02  0.29148893408E+02  0.25390373907E+03  0.95791241201E+02 0.  0.
        -24    2    1    2    0    0 -0.20833638694E+03  0.14363114497E+03  0.16782927385E+03  0.31399980763E+03  0.79970357643E+02 0.  0.
         11    1    4    4    0    0 -0.16366460920E+03  0.88714282402E+02  0.83879711503E+02  0.20418651818E+03  0.00000000000E+00 0. -1.
        -12    1    4    4    0    0 -0.44671777745E+02  0.54916862564E+02  0.83949562347E+02  0.10981328945E+03  0.00000000000E+00 0.  1.
        -11    1    3    3    0    0  0.13548867606E+03 -0.55137754462E+02 -0.28644817863E+02  0.14905662984E+03  0.00000000000E+00 0.  1.
         11    1    3    3    0    0  0.76258494766E+02 -0.42865431611E+02  0.57793711271E+02  0.10484710923E+03  0.00000000000E+00 0. -1.
         21    1    1    2  502  501 -0.34107838851E+01 -0.45627958893E+02 -0.48214846384E+02  0.66469658426E+02  0.00000000000E+00 0. -1.
<scales pt_clust_5="13000.00000" pt_clust_6="13000.00000" pt_clust_7="13000.00000" pt_clust_8="13000.00000" pt_clust_9="45.75526"></scales>
<clustering>
<clus scale="   45.755">  2  9  1 -1</clus>
<clus scale="   79.970">  5  6 -1 -1</clus>
<clus scale="   95.791">  7  8 -1 -1</clus>
<clus scale="  257.195">  1  5  2 -1</clus>
<clus scale="  257.195">  1  5  2 -1</clus>
</clustering>
</event>
<event>
 9    1  0.6106093E-005  0.1141635E+03  0.7546771E-02  0.1257583E+00
          1   -1    0    0  502    0  0.00000000000E+00  0.00000000000E+00  0.83240616749E+02  0.83240616749E+02  0.00000000000E+00 0. -1.
         -2   -1    0    0    0  501 -0.00000000000E+00 -0.00000000000E+00 -0.20855992610E+03  0.20855992610E+03  0.00000000000E+00 0.  1.
         23    2    1    2    0    0 -0.29962793797E+02  0.45601509486E+02 -0.81340729352E+02  0.13435767156E+03  0.91969576358E+02 0.  0.
        -24    2    1    2    0    0  0.53044811052E+02 -0.52773352605E+02 -0.21994474692E+01  0.10917579380E+03  0.79471615428E+02 0.  0.
         13    1    4    4    0    0  0.47583425540E+02  0.64575856854E+01  0.84224817679E+01  0.48752651191E+02  0.00000000000E+00 0. -1.
        -14    1    4    4    0    0  0.54613855118E+01 -0.59230938291E+02 -0.10621929237E+02  0.60423142613E+02  0.00000000000E+00 0.  1.
        -13    1    3    3    0    0 -0.46915270883E+02  0.17206402985E+02 -0.38665277695E+01  0.50120384901E+02  0.00000000000E+00 0.  1.
         13    1    3    3    0    0  0.16952477085E+02  0.28395106501E+02 -0.77474201582E+02  0.84237286657E+02  0.00000000000E+00 0. -1.
         21    1    1    2  502  501 -0.23082017254E+02  0.71718431194E+01 -0.41779132532E+02  0.48267077490E+02  0.00000000000E+00 0.  1.
<scales pt_clust_5="13000.00000" pt_clust_6="13000.00000" pt_clust_7="13000.00000" pt_clust_8="13000.00000" pt_clust_9="24.17054"></scales>
<clustering>
<clus scale="   24.171">  2  9  1 -1</clus>
<clus scale="   79.472">  5  6 -1 -1</clus>
<clus scale="   91.970">  7  8 -1 -1</clus>
<clus scale="  104.358">  1  5  2 -1</clus>
<clus scale="  104.358">  1  5  2 -1</clus>
</clustering>
</event>
<event>
 9    1  0.6106093E-005  0.1310417E+03  0.7546771E-02  0.1228055E+00
         -4   -1    0    0    0  501 -0.00000000000E+00  0.00000000000E+00  0.68413864736E+03  0.68413864736E+03  0.00000000000E+00 0.  1.
          3   -1    0    0  502    0  0.00000000000E+00 -0.00000000000E+00 -0.31191128305E+02  0.31191128305E+02  0.00000000000E+00 0. -1.
        -24    2    1    2    0    0 -0.55809402752E+02  0.71683406931E+02  0.34170419960E+03  0.36223152567E+03  0.78719234618E+02 0.  0.
         23    2    1    2    0    0  0.46952923772E+02 -0.91208672493E+02  0.20960027989E+03  0.24921860470E+03  0.87487351141E+02 0.  0.
         13    1    3    3    0    0  0.17669278367E+02  0.31578467929E+02  0.11544168754E+03  0.12098010687E+03  0.00000000000E+00 0. -1.
        -14    1    3    3    0    0 -0.73478681119E+02  0.40104939003E+02  0.22626251206E+03  0.24125141880E+03  0.00000000000E+00 0.  1.
        -11    1    4    4    0    0 -0.16942540858E+02 -0.43588594704E+02  0.12271048021E+03  0.13131975188E+03  0.00000000000E+00 0.  1.
         11    1    4    4    0    0  0.63895464630E+02 -0.47620077790E+02  0.86889799679E+02  0.11789885282E+03  0.00000000000E+00 0. -1.
         21    1    1    2  502  501  0.88564789804E+01  0.19525265562E+02  0.10164303956E+03  0.10387964530E+03  0.00000000000E+00 0. -1.
<scales pt_clust_5="13000.00000" pt_clust_6="13000.00000" pt_clust_7="13000.00000" pt_clust_8="13000.00000" pt_clust_9="21.43999"></scales>
<clustering>
<clus scale="   21.440">  1  9  2 -1</clus>
<clus scale="   78.719">  5  6 -1 -1</clus>
<clus scale="   87.487">  7  8 -1 -1</clus>
<clus scale="  125.358">  1  5  2 -1</clus>
<clus scale="  131.042">  2  5  1 -1</clus>
</clustering>
</event>
<event>
 9    1  0.6106093E-005  0.9185207E+02  0.7546771E-02  0.1304843E+00
         -2   -1    0    0    0  501 -0.00000000000E+00  0.00000000000E+00  0.27089730431E+03  0.27089730431E+03  0.00000000000E+00 0.  1.
          1   -1    0    0  502    0  0.00000000000E+00 -0.00000000000E+00 -0.23189896334E+03  0.23189896334E+03  0.00000000000E+00 0. -1.
        -24    2    1    2    0    0 -0.42125120618E+01 -0.25524736232E+02  0.13573348022E+03  0.15970657718E+03  0.80083429788E+02 0.  0.
         23    2    1    2    0    0 -0.17123037279E+02 -0.81149213963E+00 -0.20762749393E+03  0.22713316018E+03  0.90478943897E+02 0.  0.
         11    1    3    3    0    0 -0.27247331894E+02 -0.20425823715E+02  0.15917355269E+02  0.37589806710E+02  0.00000000000E+00 0. -1.
        -12    1    3    3    0    0  0.23034819832E+02 -0.50989125178E+01  0.11981612495E+03  0.12211677047E+03  0.00000000000E+00 0.  1.
        -11    1    4    4    0    0 -0.34419161984E+02 -0.36893509379E+02 -0.13644493393E+03  0.14547518600E+03  0.00000000000E+00 0.  1.
         11    1    4    4    0    0  0.17296124706E+02  0.36082017240E+02 -0.71182560000E+02  0.81657974173E+02  0.00000000000E+00 0. -1.
         21    1    1    2  502  501  0.21335549340E+02  0.26336228372E+02  0.11089235469E+03  0.11595653030E+03  0.00000000000E+00 0.  1.
<scales pt_clust_5="13000.00000" pt_clust_6="13000.00000" pt_clust_7="13000.00000" pt_clust_8="13000.00000" pt_clust_9="33.89399"></scales>
<clustering>
<clus scale="   33.894">  1  9  2 -1</clus>
<clus scale="   80.083">  5  6 -1 -1</clus>
<clus scale="   81.632">  1  5  2 -1</clus>
<clus scale="   90.479">  7  8 -1 -1</clus>
<clus scale="   91.852">  2  5  1 -1</clus>
</clustering>
</event>
<event>
 9    1  0.6106093E-005  0.1384820E+03  0.7546771E-02  0.1241384E+00
          1   -1    0    0  502    0  0.00000000000E+00  0.00000000000E+00  0.11112198432E+03  0.11112198432E+03  0.00000000000E+00 0. -1.
         -2   -1    0    0    0  501 -0.00000000000E+00 -0.00000000000E+00 -0.47094034845E+03  0.47094034845E+03  0.00000000000E+00 0.  1.
        -24    2    1    2    0    0 -0.24445188135E+02 -0.95385596999E+01 -0.28558951256E+03  0.29680902042E+03  0.76457004734E+02 0.  0.
         23    2    1    2    0    0 -0.20344279554E+02  0.10201827547E+03  0.25974817218E+02  0.14172850794E+03  0.92685816572E+02 0.  0.
         13    1    3    3    0    0 -0.92439154924E+01  0.24274557670E+02 -0.35508240800E+02  0.43994764330E+02  0.00000000000E+00 0. -1.
        -14    1    3    3    0    0 -0.15201272643E+02 -0.33813117370E+02 -0.25008127176E+03  0.25281425609E+03  0.00000000000E+00 0.  1.
        -11    1    4    4    0    0  0.11805645656E+02  0.33389664420E+02 -0.30879580753E+02  0.46987141506E+02  0.00000000000E+00 0.  1.
         11    1    4    4    0    0 -0.32149925210E+02  0.68628611045E+02  0.56854397971E+02  0.94741366433E+02  0.00000000000E+00 0. -1.
         21    1    1    2  502  501  0.44789467689E+02 -0.92479715766E+02 -0.10020366878E+03  0.14352480441E+03  0.00000000000E+00 0. -1.
<scales pt_clust_5="13000.00000" pt_clust_6="13000.00000" pt_clust_7="13000.00000" pt_clust_8="13000.00000" pt_clust_9="102.89122"></scales>
<clustering>
<clus scale="   76.457">  5  6 -1 -1</clus>
<clus scale="   80.835">  2  5  1 -1</clus>
<clus scale="   92.686">  7  8 -1 -1</clus>
<clus scale="  102.891">  2  9  1 -1</clus>
<clus scale="  138.482">  1  5  2 -1</clus>
</clustering>
</event>
<event>
 9    1  0.6106093E-005  0.2778535E+03  0.7546771E-02  0.1097410E+00
          1   -1    0    0  502    0  0.00000000000E+00  0.00000000000E+00  0.46881853436E+03  0.46881853436E+03  0.00000000000E+00 0. -1.
         -2   -1    0    0    0  501 -0.00000000000E+00 -0.00000000000E+00 -0.22947992097E+03  0.22947992097E+03  0.00000000000E+00 0.  1.
        -24    2    1    2    0    0 -0.70509887239E+01 -0.26286269639E+03  0.23803346753E+02  0.27550355655E+03  0.78670812636E+02 0.  0.
         23    2    1    2    0    0 -0.20015327307E+02  0.26183673362E+03  0.25343760372E+03  0.37620922266E+03  0.91343701682E+02 0.  0.
         11    1    3    3    0    0 -0.34403241745E+02 -0.55428182546E+02  0.48661015361E+01  0.65418234515E+02  0.00000000000E+00 0. -1.
        -12    1    3    3    0    0  0.27352253021E+02 -0.20743451384E+03  0.18937245217E+02  0.21008532203E+03  0.00000000000E+00 0.  1.
        -13    1    4    4    0    0 -0.16911082845E+02  0.17284458844E+03  0.22181501669E+03  0.28171463949E+03  0.00000000000E+00 0. -1.
         13    1    4    4    0    0 -0.31042444623E+01  0.88992145179E+02  0.31622587025E+02  0.94494583165E+02  0.00000000000E+00 0.  1.
         21    1    1    2  502  501  0.27066316031E+02  0.10259627672E+01 -0.37902337079E+02  0.46585676115E+02  0.00000000000E+00 0.  1.
<scales pt_clust_5="13000.00000" pt_clust_6="13000.00000" pt_clust_7="13000.00000" pt_clust_8="13000.00000" pt_clust_9="27.08575"></scales>
<clustering>
<clus scale="   27.086">  2  9  1 -1</clus>
<clus scale="   78.671">  5  6 -1 -1</clus>
<clus scale="   91.344">  7  8 -1 -1</clus>
<clus scale="  273.949">  2  5  1 -1</clus>
<clus scale="  277.853">  1  5  2 -1</clus>
</clustering>
</event>
<event>
 9    1  0.6106093E-005  0.1006505E+03  0.7546771E-02  0.1284594E+00
          1   -1    0    0  502    0  0.00000000000E+00  0.00000000000E+00  0.75182058369E+02  0.75182058369E+02  0.00000000000E+00 0. -1.
         -2   -1    0    0    0  501 -0.00000000000E+00 -0.00000000000E+00 -0.38192462968E+03  0.38192462968E+03  0.00000000000E+00 0.  1.
         23    2    1    2    0    0  0.21359861117E+02 -0.36120323233E+02 -0.30633624050E+03  0.32234288195E+03  0.91115969406E+02 0.  0.
        -24    2    1    2    0    0 -0.12249435438E+01  0.54826329634E+02  0.22153648398E+02  0.99207059302E+02  0.79648161122E+02 0.  0.
         13    1    4    4    0    0 -0.35729063875E+02  0.16153143906E+02 -0.68663253975E+01  0.39807492861E+02  0.00000000000E+00 0. -1.
        -14    1    4    4    0    0  0.34504120331E+02  0.38673185729E+02  0.29019973795E+02  0.59399566440E+02  0.00000000000E+00 0.  1.
        -13    1    3    3    0    0  0.51644068257E+02 -0.30807221904E+02 -0.25905937018E+03  0.26594727294E+03  0.00000000000E+00 0.  1.
         13    1    3    3    0    0 -0.30284207140E+02 -0.53131013289E+01 -0.47276870325E+02  0.56395609009E+02  0.00000000000E+00 0. -1.
         21    1    1    2  502  501 -0.20134917573E+02 -0.18706006401E+02 -0.22559979208E+02  0.35556746800E+02  0.00000000000E+00 0. -1.
<scales pt_clust_5="13000.00000" pt_clust_6="13000.00000" pt_clust_7="13000.00000" pt_clust_8="13000.00000" pt_clust_9="27.48326"></scales>
<clustering>
<clus scale="   27.483">  1  9  2 -1</clus>
<clus scale="   79.648">  5  6 -1 -1</clus>
<clus scale="   90.400">  1  5  2 -1</clus>
<clus scale="   91.116">  7  8 -1 -1</clus>
<clus scale="   27.483">  1  5  2 -1</clus>
</clustering>
</event>
<event>
 9    1  0.6106093E-005  0.1058123E+03  0.7546771E-02  0.1272945E+00
         -2   -1    0    0    0  501 -0.00000000000E+00  0.00000000000E+00  0.99062163291E+02  0.99062163291E+02  0.00000000000E+00 0.  1.
          1   -1    0    0  502    0  0.00000000000E+00 -0.00000000000E+00 -0.20461885067E+03  0.20461885067E+03  0.00000000000E+00 0. -1.
         23    2    1    2    0    0  0.14373870840E+02  0.57876455873E+02  0.21396759841E+02  0.11287909607E+03  0.93421500152E+02 0.  0.
        -24    2    1    2    0    0 -0.32302049211E+02 -0.36306534767E+02 -0.13067661382E+03  0.16250804849E+03  0.83491925200E+02 0.  0.
         13    1    4    4    0    0 -0.28218293278E+02 -0.19612515159E+02 -0.13916127619E+03  0.14334149301E+03  0.00000000000E+00 0. -1.
        -14    1    4    4    0    0 -0.40837559328E+01 -0.16694019608E+02  0.84846623755E+01  0.19166555476E+02  0.00000000000E+00 0.  1.
        -13    1    3    3    0    0  0.16108472958E+02 -0.16263722928E+02 -0.17800159741E+02  0.28997194197E+02  0.00000000000E+00 0. -1.
         13    1    3    3    0    0 -0.17346021179E+01  0.74140178801E+02  0.39196919582E+02  0.83881901873E+02  0.00000000000E+00 0.  1.
         21    1    1    2  502  501  0.17928178371E+02 -0.21569921106E+02  0.37231666006E+01  0.28293869402E+02  0.00000000000E+00 0.  1.
<scales pt_clust_5="13000.00000" pt_clust_6="13000.00000" pt_clust_7="13000.00000" pt_clust_8="13000.00000" pt_clust_9="28.04784"></scales>
<clustering>
<clus scale="   28.048">  1  9  2 -1</clus>
<clus scale="   83.492">  5  6 -1 -1</clus>
<clus scale="   93.422">  7  8 -1 -1</clus>
<clus scale="   97.157">  2  5  1 -1</clus>
<clus scale="   97.157">  2  5  1 -1</clus>
</clustering>
</event>
<event>
 9    1  0.6106093E-005  0.1037913E+03  0.7546771E-02  0.1275903E+00
          1   -1    0    0  502    0  0.00000000000E+00  0.00000000000E+00  0.24840001073E+03  0.24840001073E+03  0.00000000000E+00 0. -1.
         -2   -1    0    0    0  501 -0.00000000000E+00 -0.00000000000E+00 -0.19096589683E+03  0.19096589683E+03  0.00000000000E+00 0.  1.
         23    2    1    2    0    0  0.30946487438E+02 -0.18222622802E+02 -0.11219326894E+03  0.14884032535E+03  0.90974522734E+02 0.  0.
        -24    2    1    2    0    0 -0.50343916031E+02  0.96247990137E+01  0.21729821363E+03  0.23834617135E+03  0.83446013165E+02 0.  0.
         13    1    4    4    0    0 -0.44349298408E+02 -0.31793363523E+02  0.10185306503E+03  0.11554966504E+03  0.00000000000E+00 0. -1.
        -14    1    4    4    0    0 -0.59946176230E+01  0.41418162536E+02  0.11544514859E+03  0.12279650631E+03  0.00000000000E+00 0.  1.
        -11    1    3    3    0    0  0.29090854990E+02 -0.48975314858E+02 -0.10119735885E+03  0.11612822546E+03  0.00000000000E+00 0.  1.
         11    1    3    3    0    0  0.18556324478E+01  0.30752692055E+02 -0.10995910093E+02  0.32712099890E+02  0.00000000000E+00 0. -1.
         21    1    1    2  502  501  0.19397428593E+02  0.85978237885E+01 -0.47670830781E+02  0.52179410856E+02  0.00000000000E+00 0. -1.
<scales pt_clust_5="13000.00000" pt_clust_6="13000.00000" pt_clust_7="13000.00000" pt_clust_8="13000.00000" pt_clust_9="21.21751"></scales>
<clustering>
<clus scale="   21.218">  2  9  1 -1</clus>
<clus scale="   83.446">  5  6 -1 -1</clus>
<clus scale="   90.975">  7  8 -1 -1</clus>
<clus scale="   97.260">  1  5  2 -1</clus>
<clus scale="   97.260">  1  5  2 -1</clus>
</clustering>
</event>
<event>
 9    1  0.6106093E-005  0.2139213E+03  0.7546771E-02  0.1139473E+00
         -2   -1    0    0    0  501 -0.00000000000E+00  0.00000000000E+00  0.46362376651E+03  0.46362376651E+03  0.00000000000E+00 0.  1.
          1   -1    0    0  502    0  0.00000000000E+00 -0.00000000000E+00 -0.27216068171E+03  0.27216068171E+03  0.00000000000E+00 0. -1.
        -24    2    1    2    0    0 -0.93420649812E+02  0.13064346155E+03  0.30550287294E+03  0.35435272392E+03  0.80241608377E+02 0.  0.
         23    2    1    2    0    0  0.80780636754E+02 -0.18103165082E+03 -0.18978026799E+03  0.28958750928E+03  0.92446771384E+02 0.  0.
         13    1    3    3    0    0 -0.51490661549E+02  0.57555357412E+02  0.70001894275E+02  0.10423134171E+03  0.00000000000E+00 0. -1.
        -14    1    3    3    0    0 -0.41929988263E+02  0.73088104142E+02  0.23550097867E+03  0.25012138220E+03  0.00000000000E+00 0.  1.
        -13    1    4    4    0    0  0.54609854080E+02 -0.25123980858E+02 -0.43460740213E+02  0.74177398961E+02  0.00000000000E+00 0.  1.
         13    1    4    4    0    0  0.26170782674E+02 -0.15590766996E+03 -0.14631952778E+03  0.21541011032E+03  0.00000000000E+00 0. -1.
         21    1    1    2  502  501  0.12640013058E+02  0.50388189264E+02  0.75740479844E+02  0.91844215029E+02  0.00000000000E+00 0.  1.
<scales pt_clust_5="13000.00000" pt_clust_6="13000.00000" pt_clust_7="13000.00000" pt_clust_8="13000.00000" pt_clust_9="51.94939"></scales>
<clustering>
<clus scale="   51.949">  1  9  2 -1</clus>
<clus scale="   80.242">  5  6 -1 -1</clus>
<clus scale="   92.447">  7  8 -1 -1</clus>
<clus scale="  208.937">  1  5  2 -1</clus>
<clus scale="  213.921">  2  5  1 -1</clus>
</clustering>
</event>
<event>
 9    1  0.6106093E-005  0.9869831E+02  0.7546771E-02  0.1283778E+00
          3   -1    0    0  502    0  0.00000000000E+00  0.00000000000E+00  0.38542997534E+02  0.38542997534E+02  0.00000000000E+00 0. -1.
         -4   -1    0    0    0  501 -0.00000000000E+00 -0.00000000000E+00 -0.89688256314E+03  0.89688256314E+03  0.00000000000E+00 0.  1.
        -24    2    1    2    0    0  0.67186435878E+01 -0.28765540698E+02 -0.71899632760E+03  0.72558682603E+03  0.92994228297E+02 0.  0.
         23    2    1    2    0    0 -0.33704320825E+02  0.91348422811E+01 -0.41444857733E+02  0.10640912594E+03  0.91574009774E+02 0.  0.
         11    1    3    3    0    0  0.35700348675E+02  0.14289162218E+02 -0.17797763058E+03  0.18208440911E+03  0.00000000000E+00 0. -1.
        -12    1    3    3    0    0 -0.28981705087E+02 -0.43054702916E+02 -0.54101869702E+03  0.54350241692E+03  0.00000000000E+00 0.  1.
        -11    1    4    4    0    0 -0.15307864553E+02 -0.37615714880E+02  0.10241746350E+01  0.40624151152E+02  0.00000000000E+00 0.  1.
         11    1    4    4    0    0 -0.18396456272E+02  0.46750557161E+02 -0.42469032367E+02  0.65784974793E+02  0.00000000000E+00 0. -1.
         21    1    1    2  502  501  0.26985677238E+02  0.19630698417E+02 -0.97898380269E+02  0.10342960870E+03  0.00000000000E+00 0.  1.
<scales pt_clust_5="13000.00000" pt_clust_6="13000.00000" pt_clust_7="13000.00000" pt_clust_8="13000.00000" pt_clust_9="33.37051"></scales>
<clustering>
<clus scale="   33.371">  2  9  1 -1</clus>
<clus scale="   91.574">  7  8 -1 -1</clus>
<clus scale="   92.994">  5  6 -1 -1</clus>
<clus scale="   97.361">  1  7  2 -1</clus>
<clus scale="   97.361">  1  5  2 -1</clus>
</clustering>
</event>
<event>
 9    1  0.6106093E-005  0.1436593E+03  0.7546771E-02  0.1210378E+00
          1   -1    0    0  502    0  0.00000000000E+00  0.00000000000E+00  0.27683437255E+03  0.27683437255E+03  0.00000000000E+00 0. -1.
         -2   -1    0    0    0  501 -0.00000000000E+00 -0.00000000000E+00 -0.18769723053E+03  0.18769723053E+03  0.00000000000E+00 0.  1.
         23    2    1    2    0    0  0.31145778791E+02 -0.84963825330E+02 -0.10695327054E+02  0.12888470791E+03  0.91148048586E+02 0.  0.
        -24    2    1    2    0    0  0.66716416104E+02  0.11453528325E+03  0.15474910928E+03  0.21959812230E+03  0.81894060885E+02 0.  0.
         11    1    4    4    0    0  0.71763226087E+02  0.90284726688E+02  0.15690785330E+03  0.19473409285E+03  0.00000000000E+00 0. -1.
        -12    1    4    4    0    0 -0.50468099832E+01  0.24250556563E+02 -0.21587440231E+01  0.24864029447E+02  0.00000000000E+00 0.  1.
        -13    1    3    3    0    0  0.25371442130E+02  0.36624053519E+01  0.22461818321E+02  0.34083083356E+02  0.00000000000E+00 0. -1.
         13    1    3    3    0    0  0.57743366604E+01 -0.88626230682E+02 -0.33157145375E+02  0.94801624554E+02  0.00000000000E+00 0.  1.
         21    1    1    2  502  501 -0.97862194894E+02 -0.29571457921E+02 -0.54916640212E+02  0.11604877287E+03  0.00000000000E+00 0.  1.
<scales pt_clust_5="13000.00000" pt_clust_6="13000.00000" pt_clust_7="13000.00000" pt_clust_8="13000.00000" pt_clust_9="102.23248"></scales>
<clustering>
<clus scale="   81.894">  5  6 -1 -1</clus>
<clus scale="   91.148">  7  8 -1 -1</clus>
<clus scale="  102.232">  2  9  1 -1</clus>
<clus scale="  137.973">  1  5  2 -1</clus>
<clus scale="  137.973">  1  5  2 -1</clus>
</clustering>
</event>
<event>
 9    1  0.6106093E-005  0.1070999E+03  0.7546771E-02  0.1271517E+00
         -2   -1    0    0    0  501 -0.00000000000E+00  0.00000000000E+00  0.14904481839E+03  0.14904481839E+03  0.00000000000E+00 0.  1.
          1   -1    0    0  502    0  0.00000000000E+00 -0.00000000000E+00 -0.34603080409E+03  0.34603080409E+03  0.00000000000E+00 0. -1.
        -24    2    1    2    0    0 -0.44711126941E+02 -0.17263835314E+02  0.29163344725E+02  0.97898058905E+02  0.80227204736E+02 0.  0.
         23    2    1    2    0    0  0.54511568283E+02 -0.50792604406E+00 -0.30096367492E+03  0.31965937026E+03  0.92904307247E+02 0.  0.
         11    1    3    3    0    0 -0.36903746067E+02 -0.48117338226E+02  0.12277878348E+02  0.61870114017E+02  0.00000000000E+00 0. -1.
        -12    1    3    3    0    0 -0.78073808736E+01  0.30853502912E+02  0.16885466377E+02  0.36027944887E+02  0.00000000000E+00 0.  1.
        -11    1    4    4    0    0 -0.40185183741E+01 -0.31224813497E+02 -0.17075921657E+03  0.17363711444E+03  0.00000000000E+00 0. -1.
         11    1    4    4    0    0  0.58530086657E+02  0.30716887453E+02 -0.13020445835E+03  0.14602225582E+03  0.00000000000E+00 0.  1.
         21    1    1    2  502  501 -0.98004413421E+01  0.17771761358E+02  0.74814344494E+02  0.77518193312E+02  0.00000000000E+00 0.  1.
<scales pt_clust_5="13000.00000" pt_clust_6="13000.00000" pt_clust_7="13000.00000" pt_clust_8="13000.00000" pt_clust_9="20.29493"></scales>
<clustering>
<clus scale="   20.295">  1  9  2 -1</clus>
<clus scale="   80.227">  5  6 -1 -1</clus>
<clus scale="   92.904">  7  8 -1 -1</clus>
<clus scale="   96.310">  1  5  2 -1</clus>
<clus scale="  107.100">  2  5  1 -1</clus>
</clustering>
</event>
<event>
 9    1  0.6106093E-005  0.3090270E+03  0.7546771E-02  0.1081332E+00
         -4   -1    0    0    0  501 -0.00000000000E+00  0.00000000000E+00  0.40835814088E+03  0.40835814088E+03  0.00000000000E+00 0.  1.
          3   -1    0    0  502    0  0.00000000000E+00 -0.00000000000E+00 -0.57353194203E+03  0.57353194203E+03  0.00000000000E+00 0. -1.
         23    2    1    2    0    0  0.82577950148E+02 -0.23078047781E+03  0.27843847144E+03  0.38305961595E+03  0.95540254344E+02 0.  0.
        -24    2    1    2    0    0 -0.90082164100E+02  0.28740680790E+03 -0.44297570854E+03  0.54170551881E+03  0.80622089007E+02 0.  0.
         13    1    4    4    0    0 -0.10334460549E+03  0.22515907497E+03 -0.36328385503E+03  0.43971795034E+03  0.00000000000E+00 0. -1.
        -14    1    4    4    0    0  0.13262441391E+02  0.62247732929E+02 -0.79691853512E+02  0.10198756847E+03  0.00000000000E+00 0.  1.
        -13    1    3    3    0    0  0.48685786319E+02 -0.93968751791E+02  0.18754837076E+03  0.21534814482E+03  0.00000000000E+00 0.  1.
         13    1    3    3    0    0  0.33892163829E+02 -0.13681172602E+03  0.90890100687E+02  0.16771147113E+03  0.00000000000E+00 0. -1.
         21    1    1    2  502  501  0.75042139516E+01 -0.56626330091E+02 -0.63656405002E+00  0.57124948143E+02  0.00000000000E+00 0. -1.
<scales pt_clust_5="13000.00000" pt_clust_6="13000.00000" pt_clust_7="13000.00000" pt_clust_8="13000.00000" pt_clust_9="57.12140"></scales>
<clustering>
<clus scale="   57.121">  1  9  2 -1</clus>
<clus scale="   80.622">  5  6 -1 -1</clus>
<clus scale="   95.540">  7  8 -1 -1</clus>
<clus scale="  304.745">  2  5  1 -1</clus>
<clus scale="  304.745">  2  5  1 -1</clus>
</clustering>
</event>
<event>
 9    1  0.6106093E-005  0.1223072E+03  0.7546771E-02  0.1252710E+00
         -2   -1    0    0    0  501 -0.00000000000E+00  0.00000000000E+00  0.48683822234E+02  0.48683822234E+02  0.00000000000E+00 0.  1.
          1   -1    0    0  502    0  0.00000000000E+00 -0.00000000000E+00 -0.67123255336E+03  0.67123255336E+03  0.00000000000E+00 0. -1.
        -24    2    1    2    0    0 -0.86789843163E+02 -0.37701470141E+01 -0.10780530884E+03  0.16025538429E+03  0.80703857997E+02 0.  0.
         23    2    1    2    0    0 -0.83842226831E+01 -0.20857011929E+02 -0.38887385852E+03  0.39994954259E+03  0.90727331280E+02 0.  0.
         13    1    3    3    0    0 -0.12351778921E+00  0.24269870919E+02 -0.39658708579E+02  0.46495753110E+02  0.00000000000E+00 0. -1.
        -14    1    3    3    0    0 -0.86666325373E+02 -0.28040017933E+02 -0.68146600257E+02  0.11375963118E+03  0.00000000000E+00 0.  1.
        -13    1    4    4    0    0 -0.31164042712E+02 -0.48331941181E+02 -0.25452374934E+03  0.26093967325E+03  0.00000000000E+00 0.  1.
         13    1    4    4    0    0  0.22779820029E+02  0.27474929252E+02 -0.13435010918E+03  0.13900986934E+03  0.00000000000E+00 0. -1.
         21    1    1    2  502  501  0.95174065846E+02  0.24627158943E+02 -0.12586956377E+03  0.15971144871E+03  0.00000000000E+00 0. -1.
<scales pt_clust_5="13000.00000" pt_clust_6="13000.00000" pt_clust_7="13000.00000" pt_clust_8="13000.00000" pt_clust_9="91.90176"></scales>
<clustering>
<clus scale="   80.704">  5  6 -1 -1</clus>
<clus scale="   90.727">  7  8 -1 -1</clus>
<clus scale="   93.471">  2  7  1 -1</clus>
<clus scale="   91.902">  2  9  1 -1</clus>
<clus scale="   93.471">  2  5  1 -1</clus>
</clustering>
</event>
<event>
 9    1  0.6106093E-005  0.1235764E+03  0.7546771E-02  0.1239091E+00
         -2   -1    0    0    0  501 -0.00000000000E+00  0.00000000000E+00  0.42687149242E+03  0.42687149242E+03  0.00000000000E+00 0.  1.
          1   -1    0    0  502    0  0.00000000000E+00 -0.00000000000E+00 -0.70336011485E+02  0.70336011485E+02  0.00000000000E+00 0. -1.
        -24    2    1    2    0    0 -0.25689882826E+02 -0.64348898744E+02  0.21259580719E+03  0.23796421567E+03  0.81420144050E+02 0.  0.
         23    2    1    2    0    0  0.28095881752E+02  0.88393593124E+02  0.15568689156E+02  0.12861769410E+03  0.87734379099E+02 0.  0.
         11    1    3    3    0    0  0.23801628417E+02 -0.16292138360E+02  0.25296486764E+02  0.38364873651E+02  0.00000000000E+00 0. -1.
        -12    1    3    3    0    0 -0.49491511243E+02 -0.48056760384E+02  0.18729932042E+03  0.19959934202E+03  0.00000000000E+00 0.  1.
        -13    1    4    4    0    0  0.42739564530E+02  0.70004892062E+02 -0.21438325535E+02  0.84775922823E+02  0.00000000000E+00 0. -1.
         13    1    4    4    0    0 -0.14643682778E+02  0.18388701062E+02  0.37007014691E+02  0.43841771273E+02  0.00000000000E+00 0.  1.
         21    1    1    2  502  501 -0.24059989263E+01 -0.24044694379E+02  0.12837098459E+03  0.13062559414E+03  0.00000000000E+00 0.  1.
<scales pt_clust_5="13000.00000" pt_clust_6="13000.00000" pt_clust_7="13000.00000" pt_clust_8="13000.00000" pt_clust_9="24.16477"></scales>
<clustering>
<clus scale="   24.165">  1  9  2 -1</clus>
<clus scale="   81.420">  5  6 -1 -1</clus>
<clus scale="   87.734">  7  8 -1 -1</clus>
<clus scale="  119.177">  1  5  2 -1</clus>
<clus scale="  123.576">  2  5  1 -1</clus>
</clustering>
</event>
<event>
 9    1  0.6106093E-005  0.1167318E+03  0.7546771E-02  0.1252511E+00
         -2   -1    0    0    0  501 -0.00000000000E+00  0.00000000000E+00  0.55381814012E+02  0.55381814012E+02  0.00000000000E+00 0.  1.
          1   -1    0    0  502    0  0.00000000000E+00 -0.00000000000E+00 -0.29137873585E+03  0.29137873585E+03  0.00000000000E+00 0. -1.
        -24    2    1    2    0    0  0.80313816043E+02 -0.12548772240E+02 -0.88647715758E+02  0.14479433507E+03  0.80617623548E+02 0.  0.
         23    2    1    2    0    0 -0.61488371492E+02  0.22780225236E+02 -0.13855281641E+03  0.17880468496E+03  0.92056905984E+02 0.  0.
         13    1    3    3    0    0  0.22930392642E+02 -0.22414975260E+02 -0.79669831930E+02  0.85880825231E+02  0.00000000000E+00 0. -1.
        -14    1    3    3    0    0  0.57383423401E+02  0.98662030198E+01 -0.89778838276E+01  0.58913509836E+02  0.00000000000E+00 0.  1.
        -11    1    4    4    0    0 -0.79411084410E+02  0.10983065861E+02 -0.13506723327E+03  0.15706656413E+03  0.00000000000E+00 0. -1.
         11    1    4    4    0    0  0.17922712917E+02  0.11797159375E+02 -0.34855831351E+01  0.21738120835E+02  0.00000000000E+00 0.  1.
         21    1    1    2  502  501 -0.18825444551E+02 -0.10231452996E+02 -0.87963896729E+01  0.23161529833E+02  0.00000000000E+00 0. -1.
<scales pt_clust_5="13000.00000" pt_clust_6="13000.00000" pt_clust_7="13000.00000" pt_clust_8="13000.00000" pt_clust_9="21.42615"></scales>
<clustering>
<clus scale="   21.426">  1  9  2 -1</clus>
<clus scale="   80.618">  5  6 -1 -1</clus>
<clus scale="   92.057">  7  8 -1 -1</clus>
<clus scale="  107.940">  1  5  2 -1</clus>
<clus scale="  116.732">  2  5  1 -1</clus>
</clustering>
</event>
<event>
 9    1  0.6106093E-005  0.1102474E+03  0.7546771E-02  0.1260209E+00
          1   -1    0    0  502    0  0.00000000000E+00  0.00000000000E+00  0.77383831286E+03  0.77383831286E+03  0.00000000000E+00 0. -1.
         -2   -1    0    0    0  501 -0.00000000000E+00 -0.00000000000E+00 -0.57193787695E+02  0.57193787695E+02  0.00000000000E+00 0.  1.
         23    2    1    2    0    0  0.61045567230E+02  0.46971866620E+02  0.30650162711E+03  0.32830492539E+03  0.88926706258E+02 0.  0.
        -24    2    1    2    0    0 -0.34394182526E+02 -0.48473438585E+02  0.44567793889E+03  0.45828293873E+03  0.88666750713E+02 0.  0.
         11    1    4    4    0    0  0.76445902051E+01 -0.59739075070E+02  0.30997782956E+03  0.31577436829E+03  0.00000000000E+00 0. -1.
        -12    1    4    4    0    0 -0.42038772731E+02  0.11265636485E+02  0.13570010932E+03  0.14250857044E+03  0.00000000000E+00 0.  1.
        -11    1    3    3    0    0  0.79769541606E+02  0.20671658079E+02  0.24999142412E+03  0.26322273715E+03  0.00000000000E+00 0. -1.
         11    1    3    3    0    0 -0.18723974376E+02  0.26300208541E+02  0.56510202985E+02  0.65082188248E+02  0.00000000000E+00 0.  1.
         21    1    1    2  502  501 -0.26651384703E+02  0.15015719648E+01 -0.35535040830E+02  0.44444236429E+02  0.00000000000E+00 0.  1.
<scales pt_clust_5="13000.00000" pt_clust_6="13000.00000" pt_clust_7="13000.00000" pt_clust_8="13000.00000" pt_clust_9="26.69365"></scales>
<clustering>
<clus scale="   26.694">  2  9  1 -1</clus>
<clus scale="   88.667">  5  6 -1 -1</clus>
<clus scale="   88.927">  7  8 -1 -1</clus>
<clus scale="  110.038">  1  5  2 -1</clus>
<clus scale="  110.038">  1  5  2 -1</clus>
</clustering>
</event>
<event>
 9    1  0.6106093E-005  0.1167772E+03  0.7546771E-02  0.1253088E+00
          1   -1    0    0  502    0  0.00000000000E+00  0.00000000000E+00  0.42499906827E+03  0.42499906827E+03  0.00000000000E+00 0. -1.
         -2   -1    0    0    0  501 -0.00000000000E+00 -0.00000000000E+00 -0.72758047193E+02  0.72758047193E+02  0.00000000000E+00 0.  1.
         23    2    1    2    0    0 -0.27937731150E+02 -0.27400029545E+02  0.28421183199E+02  0.10469261202E+03  0.92852037760E+02 0.  0.
        -24    2    1    2    0    0  0.68377502087E+02  0.39039971007E+02  0.33183481291E+03  0.35022639966E+03  0.79652908493E+02 0.  0.
         11    1    4    4    0    0  0.79971701451E+02  0.51329956071E+02  0.28624626845E+03  0.30160763190E+03  0.00000000000E+00 0. -1.
        -12    1    4    4    0    0 -0.11594199363E+02 -0.12289985064E+02  0.45588544463E+02  0.48618767755E+02  0.00000000000E+00 0.  1.
        -11    1    3    3    0    0 -0.18240990027E+02 -0.57647586855E+02 -0.22924504192E+01  0.60508126035E+02  0.00000000000E+00 0.  1.
         11    1    3    3    0    0 -0.96967411230E+01  0.30247557311E+02  0.30713633619E+02  0.44184485985E+02  0.00000000000E+00 0. -1.
         21    1    1    2  502  501 -0.40439770938E+02 -0.11639941462E+02 -0.80149750346E+01  0.42838103781E+02  0.00000000000E+00 0.  1.
<scales pt_clust_5="13000.00000" pt_clust_6="13000.00000" pt_clust_7="13000.00000" pt_clust_8="13000.00000" pt_clust_9="42.08163"></scales>
<clustering>
<clus scale="   42.082">  2  9  1 -1</clus>
<clus scale="   79.653">  5  6 -1 -1</clus>
<clus scale="   92.852">  7  8 -1 -1</clus>
<clus scale="  106.583">  1  5  2 -1</clus>
<clus scale="  106.583">  1  5  2 -1</clus>
</clustering>
</event>
<event>
 9    1  0.6106093E-005  0.1538294E+03  0.7546771E-02  0.1197637E+00
          1   -1    0    0  502    0  0.00000000000E+00  0.00000000000E+00  0.60010677343E+03  0.60010677343E+03  0.00000000000E+00 0. -1.
         -2   -1    0    0    0  501 -0.00000000000E+00 -0.00000000000E+00 -0.86702507885E+02  0.86702507885E+02  0.00000000000E+00 0.  1.
        -24    2    1    2    0    0 -0.42895309980E+02  0.76907151749E+02  0.14317955012E+02  0.12003640427E+03  0.80305771306E+02 0.  0.
         23    2    1    2    0    0  0.20368174518E+02 -0.13315178650E+03  0.47426009207E+03  0.50129561464E+03  0.90721538492E+02 0.  0.
         11    1    3    3    0    0 -0.58098859063E+02  0.28425674804E+02 -0.67520653446E+01  0.65031429316E+02  0.00000000000E+00 0. -1.
        -12    1    3    3    0    0  0.15203549083E+02  0.48481476945E+02  0.21070020356E+02  0.55004974950E+02  0.00000000000E+00 0.  1.
        -13    1    4    4    0    0  0.42716964466E+02 -0.76520526197E+02  0.37287652755E+03  0.38303659719E+03  0.00000000000E+00 0. -1.
         13    1    4    4    0    0 -0.22348789947E+02 -0.56631260299E+02  0.10138356451E+03  0.11825901745E+03  0.00000000000E+00 0.  1.
         21    1    1    2  502  501  0.22527135461E+02  0.56244634747E+02  0.24826218470E+02  0.65477262415E+02  0.00000000000E+00 0. -1.
<scales pt_clust_5="13000.00000" pt_clust_6="13000.00000" pt_clust_7="13000.00000" pt_clust_8="13000.00000" pt_clust_9="60.58821"></scales>
<clustering>
<clus scale="   60.588">  2  9  1 -1</clus>
<clus scale="   80.306">  5  6 -1 -1</clus>
<clus scale="   90.722">  7  8 -1 -1</clus>
<clus scale="  147.926">  2  5  1 -1</clus>
<clus scale="  153.829">  1  5  2 -1</clus>
</clustering>
</event>
<event>
 9    1  0.6106093E-005  0.9665874E+02  0.7546771E-02  0.1293294E+00
         -2   -1    0    0    0  501 -0.00000000000E+00  0.00000000000E+00  0.23695448336E+03  0.23695448336E+03  0.00000000000E+00 0.  1.
          1   -1    0    0  502    0  0.00000000000E+00 -0.00000000000E+00 -0.11207617127E+03  0.11207617127E+03  0.00000000000E+00 0. -1.
        -24    2    1    2    0    0  0.23617452930E+02  0.41815767505E+02  0.45750521100E+02  0.10446194809E+03  0.80702205190E+02 0.  0.
         23    2    1    2    0    0 -0.77574907653E+01 -0.24722271657E+02 -0.54138388062E+02  0.10927790685E+03  0.91319912858E+02 0.  0.
         13    1    3    3    0    0  0.15833103216E+02  0.48201054135E+02 -0.65907060122E+01  0.51161178474E+02  0.00000000000E+00 0. -1.
        -14    1    3    3    0    0  0.77843497142E+01 -0.63852866296E+01  0.52341227112E+02  0.53300769614E+02  0.00000000000E+00 0.  1.
        -11    1    4    4    0    0  0.32672856580E+01  0.27511956489E+02 -0.48158263123E+02  0.55558988584E+02  0.00000000000E+00 0.  1.
         11    1    4    4    0    0 -0.11024776423E+02 -0.52234228146E+02 -0.59801249387E+01  0.53718918265E+02  0.00000000000E+00 0. -1.
         21    1    1    2  502  501 -0.15859962165E+02 -0.17093495848E+02  0.13326617906E+03  0.13529079969E+03  0.00000000000E+00 0.  1.
<scales pt_clust_5="13000.00000" pt_clust_6="13000.00000" pt_clust_7="13000.00000" pt_clust_8="13000.00000" pt_clust_9="23.31793"></scales>
<clustering>
<clus scale="   23.318">  1  9  2 -1</clus>
<clus scale="   80.702">  5  6 -1 -1</clus>
<clus scale="   86.697">  1  5  2 -1</clus>
<clus scale="   91.320">  7  8 -1 -1</clus>
<clus scale="   96.659">  2  5  1 -1</clus>
</clustering>
</event>
<event>
 9    1  0.6106093E-005  0.1133194E+03  0.7546771E-02  0.1259936E+00
          1   -1    0    0  502    0  0.00000000000E+00  0.00000000000E+00  0.35189350428E+03  0.35189350428E+03  0.00000000000E+00 0. -1.
         -2   -1    0    0    0  501 -0.00000000000E+00 -0.00000000000E+00 -0.71955282249E+02  0.71955282249E+02  0.00000000000E+00 0.  1.
        -24    2    1    2    0    0 -0.21103074123E+02 -0.38298931499E+02 -0.28111567928E+01  0.90411382286E+02  0.79083295032E+02 0.  0.
         23    2    1    2    0    0  0.45395061894E+02  0.52617677980E+02  0.28217239331E+03  0.30523350233E+03  0.93364338591E+02 0.  0.
         13    1    3    3    0    0 -0.67554847755E+01 -0.25595845684E+02  0.37427167705E+02  0.45842957728E+02  0.00000000000E+00 0. -1.
        -14    1    3    3    0    0 -0.14347589347E+02 -0.12703085815E+02 -0.40238324497E+02  0.44568424559E+02  0.00000000000E+00 0.  1.
        -13    1    4    4    0    0 -0.40415541861E+01  0.36547896382E+02  0.29141568653E+02  0.46918161875E+02  0.00000000000E+00 0.  1.
         13    1    4    4    0    0  0.49436616080E+02  0.16069781599E+02  0.25303082466E+03  0.25831534046E+03  0.00000000000E+00 0. -1.
         21    1    1    2  502  501 -0.24291987771E+02 -0.14318746481E+02  0.57698551477E+00  0.28203901910E+02  0.00000000000E+00 0.  1.
<scales pt_clust_5="13000.00000" pt_clust_6="13000.00000" pt_clust_7="13000.00000" pt_clust_8="13000.00000" pt_clust_9="28.19800"></scales>
<clustering>
<clus scale="   28.198">  2  9  1 -1</clus>
<clus scale="   79.083">  5  6 -1 -1</clus>
<clus scale="   93.364">  7  8 -1 -1</clus>
<clus scale="  101.875">  2  5  1 -1</clus>
<clus scale="  113.319">  1  5  2 -1</clus>
</clustering>
</event>
<event>
 9    1  0.6106093E-005  0.1249502E+03  0.7546771E-02  0.1239963E+00
         -2   -1    0    0    0  501 -0.00000000000E+00  0.00000000000E+00  0.10827624293E+03  0.10827624293E+03  0.00000000000E+00 0.  1.
          1   -1    0    0  502    0  0.00000000000E+00 -0.00000000000E+00 -0.27880799839E+03  0.27880799839E+03  0.00000000000E+00 0. -1.
        -24    2    1    2    0    0  0.65775609249E+02  0.52428818167E+01 -0.16772985241E+02  0.10050590230E+03  0.73933651215E+02 0.  0.
         23    2    1    2    0    0 -0.94115122192E+02 -0.15854079895E+02 -0.19505347527E+03  0.23538284915E+03  0.90830718283E+02 0.  0.
         13    1    3    3    0    0 -0.31557371692E+01  0.25869552933E+02  0.20240159684E+01  0.26139798903E+02  0.00000000000E+00 0. -1.
        -14    1    3    3    0    0  0.68931346419E+02 -0.20626671117E+02 -0.18797001209E+02  0.74366103400E+02  0.00000000000E+00 0.  1.
        -11    1    4    4    0    0 -0.57036404461E+02  0.10407803942E+02 -0.32221379957E+02  0.66330167670E+02  0.00000000000E+00 0.  1.
         11    1    4    4    0    0 -0.37078717731E+02 -0.26261883837E+02 -0.16283209531E+03  0.16905268148E+03  0.00000000000E+00 0. -1.
         21    1    1    2  502  501  0.28339512943E+02  0.10611198078E+02  0.41294705042E+02  0.51195489869E+02  0.00000000000E+00 0.  1.
<scales pt_clust_5="13000.00000" pt_clust_6="13000.00000" pt_clust_7="13000.00000" pt_clust_8="13000.00000" pt_clust_9="30.26096"></scales>
<clustering>
<clus scale="   30.261">  1  9  2 -1</clus>
<clus scale="   73.934">  5  6 -1 -1</clus>
<clus scale="   90.831">  7  8 -1 -1</clus>
<clus scale="  113.263">  1  5  2 -1</clus>
<clus scale="  124.950">  2  5  1 -1</clus>
</clustering>
</event>
<event>
 9    1  0.6106093E-005  0.1458906E+03  0.7546771E-02  0.1208304E+00
          1   -1    0    0  502    0  0.00000000000E+00  0.00000000000E+00  0.17376130468E+03  0.17376130468E+03  0.00000000000E+00 0. -1.
         -2   -1    0    0    0  501 -0.00000000000E+00 -0.00000000000E+00 -0.15411878304E+03  0.15411878304E+03  0.00000000000E+00 0.  1.
         23    2    1    2    0    0 -0.39482279562E+02 -0.10161932569E+03 -0.34201993468E+02  0.14660435223E+03  0.91857073669E+02 0.  0.
        -24    2    1    2    0    0  0.19855117563E+02  0.12057633371E+03  0.39120994087E+02  0.15026967620E+03  0.78215378693E+02 0.  0.
         11    1    4    4    0    0 -0.19544590476E+02  0.96207740160E+02  0.32835204608E+02  0.10351845703E+03  0.00000000000E+00 0. -1.
        -12    1    4    4    0    0  0.39399708039E+02  0.24368593546E+02  0.62857894787E+01  0.46751219175E+02  0.00000000000E+00 0.  1.
        -11    1    3    3    0    0  0.74849037207E+01 -0.94719093266E+02 -0.25016157882E+02  0.98252422708E+02  0.00000000000E+00 0.  1.
         11    1    3    3    0    0 -0.46967183283E+02 -0.69002324205E+01 -0.91858355860E+01  0.48351929521E+02  0.00000000000E+00 0. -1.
         21    1    1    2  502  501  0.19627161999E+02 -0.18957008018E+02  0.14723521025E+02  0.31006059287E+02  0.00000000000E+00 0.  1.
<scales pt_clust_5="13000.00000" pt_clust_6="13000.00000" pt_clust_7="13000.00000" pt_clust_8="13000.00000" pt_clust_9="27.28724"></scales>
<clustering>
<clus scale="   27.287">  1  9  2 -1</clus>
<clus scale="   78.215">  5  6 -1 -1</clus>
<clus scale="   91.857">  7  8 -1 -1</clus>
<clus scale="  137.710">  1  5  2 -1</clus>
<clus scale="   27.287">  1  5  2 -1</clus>
</clustering>
</event>
<event>
 9    1  0.6106093E-005  0.3795243E+03  0.7546771E-02  0.1084999E+00
          1   -1    0    0  502    0  0.00000000000E+00  0.00000000000E+00  0.20447811052E+04  0.20447811052E+04  0.00000000000E+00 0. -1.
         -2   -1    0    0    0  501 -0.00000000000E+00 -0.00000000000E+00 -0.12859599243E+03  0.12859599243E+03  0.00000000000E+00 0.  1.
         23    2    1    2    0    0  0.59026077852E+02 -0.10053110428E+03  0.10117641519E+03  0.18021357845E+03  0.93003688496E+02 0.  0.
        -24    2    1    2    0    0 -0.19184175275E+03  0.35899524983E+03  0.15333540507E+04  0.15884746780E+04  0.79976937402E+02 0.  0.
         11    1    4    4    0    0 -0.14306502514E+03  0.32315716544E+03  0.13435567472E+04  0.13892598345E+04  0.00000000000E+00 0. -1.
        -12    1    4    4    0    0 -0.48776727608E+02  0.35838084387E+02  0.18979730349E+03  0.19921484347E+03  0.00000000000E+00 0.  1.
        -11    1    3    3    0    0 -0.20350248544E+01 -0.24915434298E+02  0.75725429599E+02  0.79744974013E+02  0.00000000000E+00 0. -1.
         11    1    3    3    0    0  0.61061102706E+02 -0.75615669983E+02  0.25450985592E+02  0.10046860444E+03  0.00000000000E+00 0.  1.
         21    1    1    2  502  501  0.13281567489E+03 -0.25846414555E+03  0.28165464690E+03  0.40468884115E+03  0.00000000000E+00 0.  1.
<scales pt_clust_5="13000.00000" pt_clust_6="13000.00000" pt_clust_7="13000.00000" pt_clust_8="13000.00000" pt_clust_9="371.00187"></scales>
<clustering>
<clus scale="   79.977">  5  6 -1 -1</clus>
<clus scale="   93.004">  7  8 -1 -1</clus>
<clus scale="  149.132">  2  7  1 -1</clus>
<clus scale="  371.002">  2  9  1 -1</clus>
<clus scale="  379.524">  1  5  2 -1</clus>
</clustering>
</event>
<event>
 9    1  0.6106093E-005  0.1536035E+03  0.7546771E-02  0.1219434E+00
         -2   -1    0    0    0  501 -0.00000000000E+00  0.00000000000E+00  0.97685307125E+03  0.97685307125E+03  0.00000000000E+00 0.  1.
          1   -1    0    0  502    0  0.00000000000E+00 -0.00000000000E+00 -0.96600302944E+02  0.96600302944E+02  0.00000000000E+00 0. -1.
        -24    2    1    2    0    0  0.27809999997E+02 -0.35085596555E+02  0.36197299815E+03  0.37377273233E+03  0.81714190070E+02 0.  0.
         23    2    1    2    0    0  0.24007093513E+02  0.12583987336E+03 -0.14246918220E+02  0.15699654981E+03  0.89626601555E+02 0.  0.
         13    1    3    3    0    0  0.27778133556E+02 -0.12907440599E+02  0.36955070310E+02  0.47998999451E+02  0.00000000000E+00 0. -1.
        -14    1    3    3    0    0  0.31866441021E-01 -0.22178155956E+02  0.32501792784E+03  0.32577373288E+03  0.00000000000E+00 0.  1.
        -13    1    4    4    0    0  0.26811500054E+02  0.40201388522E+02  0.33602532503E+02  0.58856931324E+02  0.00000000000E+00 0.  1.
         13    1    4    4    0    0 -0.28044065415E+01  0.85638484839E+02 -0.47849450723E+02  0.98139618483E+02  0.00000000000E+00 0. -1.
         21    1    1    2  502  501 -0.51817093510E+02 -0.90754276806E+02  0.53252668838E+03  0.54268409206E+03  0.00000000000E+00 0.  1.
<scales pt_clust_5="13000.00000" pt_clust_6="13000.00000" pt_clust_7="13000.00000" pt_clust_8="13000.00000" pt_clust_9="124.74413"></scales>
<clustering>
<clus scale="   81.714">  5  6 -1 -1</clus>
<clus scale="   89.627">  7  8 -1 -1</clus>
<clus scale="   93.175">  1  5  2 -1</clus>
<clus scale="  124.744">  1  9  2 -1</clus>
<clus scale="  153.603">  2  5  1 -1</clus>
</clustering>
</event>
<event>
 9    1  0.6106093E-005  0.1106504E+03  0.7546771E-02  0.1269886E+00
          1   -1    0    0  502    0  0.00000000000E+00  0.00000000000E+00  0.28451564116E+03  0.28451564116E+03  0.00000000000E+00 0. -1.
         -2   -1    0    0    0  501 -0.00000000000E+00 -0.00000000000E+00 -0.13143095717E+03  0.13143095717E+03  0.00000000000E+00 0.  1.
         23    2    1    2    0    0  0.26380554744E+02 -0.13884074135E+02 -0.68473841322E+02  0.12851080241E+03  0.10458325969E+03 0.  0.
        -24    2    1    2    0    0 -0.72219076797E+02  0.37999777820E+02  0.20017128087E+03  0.23139874128E+03  0.82566685852E+02 0.  0.
         11    1    4    4    0    0 -0.51268282825E+02  0.62570121740E+02  0.11756619259E+03  0.14270692554E+03  0.00000000000E+00 0. -1.
        -12    1    4    4    0    0 -0.20950793972E+02 -0.24570343920E+02  0.82605088281E+02  0.88691815735E+02  0.00000000000E+00 0.  1.
        -13    1    3    3    0    0  0.38639075276E+02  0.13341042704E+02  0.12060817520E+02  0.42619536340E+02  0.00000000000E+00 0. -1.
         13    1    3    3    0    0 -0.12258520532E+02 -0.27225116838E+02 -0.80534658842E+02  0.85891266071E+02  0.00000000000E+00 0.  1.
         21    1    1    2  502  501  0.45838522053E+02 -0.24115703685E+02  0.21387244437E+02  0.56037054641E+02  0.00000000000E+00 0. -1.
<scales pt_clust_5="13000.00000" pt_clust_6="13000.00000" pt_clust_7="13000.00000" pt_clust_8="13000.00000" pt_clust_9="51.79515"></scales>
<clustering>
<clus scale="   51.795">  1  9  2 -1</clus>
<clus scale="   82.567">  5  6 -1 -1</clus>
<clus scale="   90.128">  1  5  2 -1</clus>
<clus scale="  104.583">  7  8 -1 -1</clus>
<clus scale="   51.795">  1  5  2 -1</clus>
</clustering>
</event>
<event>
 9    1  0.6106093E-005  0.1095855E+03  0.7546771E-02  0.1267689E+00
          1   -1    0    0  502    0  0.00000000000E+00  0.00000000000E+00  0.34391359721E+03  0.34391359721E+03  0.00000000000E+00 0. -1.
         -2   -1    0    0    0  501 -0.00000000000E+00 -0.00000000000E+00 -0.69913226218E+02  0.69913226218E+02  0.00000000000E+00 0.  1.
         23    2    1    2    0    0  0.27801705195E+02 -0.26920711982E+02 -0.26413379132E+01  0.10318090887E+03  0.95612048105E+02 0.  0.
        -24    2    1    2    0    0 -0.48407578438E+02  0.28390768176E+02  0.27236667954E+03  0.28954996819E+03  0.80661307845E+02 0.  0.
         13    1    4    4    0    0 -0.39507350783E+02 -0.22771086886E+02  0.14508480190E+03  0.15208205978E+03  0.00000000000E+00 0. -1.
        -14    1    4    4    0    0 -0.89002276546E+01  0.51161855062E+02  0.12728187764E+03  0.13746790840E+03  0.00000000000E+00 0.  1.
        -11    1    3    3    0    0  0.31372696924E+02  0.27134984313E+02 -0.20328566837E+02  0.46193117621E+02  0.00000000000E+00 0.  1.
         11    1    3    3    0    0 -0.35709917289E+01 -0.54055696295E+02  0.17687228924E+02  0.56987791244E+02  0.00000000000E+00 0. -1.
         21    1    1    2  502  501  0.20605873243E+02 -0.14700561933E+01  0.42750293566E+01  0.21095946372E+02  0.00000000000E+00 0. -1.
<scales pt_clust_5="13000.00000" pt_clust_6="13000.00000" pt_clust_7="13000.00000" pt_clust_8="13000.00000" pt_clust_9="20.65824"></scales>
<clustering>
<clus scale="   20.658">  2  9  1 -1</clus>
<clus scale="   80.661">  5  6 -1 -1</clus>
<clus scale="   95.612">  7  8 -1 -1</clus>
<clus scale="   96.817">  1  5  2 -1</clus>
<clus scale="   96.817">  1  5  2 -1</clus>
</clustering>
</event>
<event>
 9    1  0.6106093E-005  0.9620841E+02  0.7546771E-02  0.1292050E+00
         -2   -1    0    0    0  501 -0.00000000000E+00  0.00000000000E+00  0.30410622830E+02  0.30410622830E+02  0.00000000000E+00 0.  1.
          1   -1    0    0  502    0  0.00000000000E+00 -0.00000000000E+00 -0.45569000732E+03  0.45569000732E+03  0.00000000000E+00 0. -1.
         23    2    1    2    0    0 -0.64923435370E+01  0.30883838506E+02 -0.15043741022E+03  0.17655689778E+03  0.86861739313E+02 0.  0.
        -24    2    1    2    0    0 -0.19432582906E+02 -0.46316469288E+02 -0.25858391974E+03  0.27527140766E+03  0.79911599409E+02 0.  0.
         13    1    4    4    0    0 -0.25606946471E+02 -0.44346657187E+02 -0.26266651938E+03  0.26761173763E+03  0.00000000000E+00 0. -1.
        -14    1    4    4    0    0  0.61743635655E+01 -0.19698121010E+01  0.40825996419E+01  0.76596700313E+01  0.00000000000E+00 0.  1.
        -11    1    3    3    0    0  0.34090887376E+02  0.52450930199E+01 -0.26037205240E+02  0.43216150448E+02  0.00000000000E+00 0.  1.
         11    1    3    3    0    0 -0.40583230913E+02  0.25638745486E+02 -0.12440020498E+03  0.13334074734E+03  0.00000000000E+00 0. -1.
         21    1    1    2  502  501  0.25924926443E+02  0.15432630782E+02 -0.16258054536E+02  0.34272324713E+02  0.00000000000E+00 0.  1.
<scales pt_clust_5="13000.00000" pt_clust_6="13000.00000" pt_clust_7="13000.00000" pt_clust_8="13000.00000" pt_clust_9="30.17065"></scales>
<clustering>
<clus scale="   30.171">  1  9  2 -1</clus>
<clus scale="   79.912">  5  6 -1 -1</clus>
<clus scale="   86.862">  7  8 -1 -1</clus>
<clus scale="   89.983">  2  5  1 -1</clus>
<clus scale="   89.983">  2  5  1 -1</clus>
</clustering>
</event>
<event>
 9    1  0.6106093E-005  0.9156055E+02  0.7546771E-02  0.1306230E+00
          1   -1    0    0  502    0  0.00000000000E+00  0.00000000000E+00  0.14107066078E+03  0.14107066078E+03  0.00000000000E+00 0. -1.
         -2   -1    0    0    0  501 -0.00000000000E+00 -0.00000000000E+00 -0.91659960346E+02  0.91659960346E+02  0.00000000000E+00 0.  1.
        -24    2    1    2    0    0  0.27350631391E+01 -0.20025469807E+02 -0.72056282925E+01  0.82340426257E+02  0.79495438270E+02 0.  0.
         23    2    1    2    0    0  0.13354611662E+02  0.28122247384E+01  0.76530284472E+02  0.11953992624E+03  0.90811096591E+02 0.  0.
         13    1    3    3    0    0  0.11494084045E+02  0.27982221221E+02  0.78823833273E+01  0.31261008292E+02  0.00000000000E+00 0. -1.
        -14    1    3    3    0    0 -0.87590209062E+01 -0.48007691028E+02 -0.15088011620E+02  0.51079417966E+02  0.00000000000E+00 0.  1.
        -13    1    4    4    0    0  0.28028560194E+02 -0.31778127099E+02  0.10638555336E+02  0.43687851951E+02  0.00000000000E+00 0.  1.
         13    1    4    4    0    0 -0.14673948532E+02  0.34590351838E+02  0.65891729136E+02  0.75852074291E+02  0.00000000000E+00 0. -1.
         21    1    1    2  502  501 -0.16089674801E+02  0.17213245069E+02 -0.19913955745E+02  0.30850268628E+02  0.00000000000E+00 0.  1.
<scales pt_clust_5="13000.00000" pt_clust_6="13000.00000" pt_clust_7="13000.00000" pt_clust_8="13000.00000" pt_clust_9="23.56212"></scales>
<clustering>
<clus scale="   23.562">  2  9  1 -1</clus>
<clus scale="   79.495">  5  6 -1 -1</clus>
<clus scale="   80.351">  2  5  1 -1</clus>
<clus scale="   90.811">  7  8 -1 -1</clus>
<clus scale="   91.561">  1  5  2 -1</clus>
</clustering>
</event>
<event>
 9    1  0.6106093E-005  0.1333727E+03  0.7546771E-02  0.1225138E+00
          1   -1    0    0  502    0  0.00000000000E+00  0.00000000000E+00  0.38569507627E+03  0.38569507627E+03  0.00000000000E+00 0. -1.
         -2   -1    0    0    0  501 -0.00000000000E+00 -0.00000000000E+00 -0.13316702774E+03  0.13316702774E+03  0.00000000000E+00 0.  1.
        -24    2    1    2    0    0  0.80060993863E+02 -0.55441984749E+01  0.93042824259E+02  0.14697126142E+03  0.80641699271E+02 0.  0.
         23    2    1    2    0    0 -0.10498711992E+03 -0.49107360342E+02  0.23372393544E+03  0.27639481713E+03  0.91287396448E+02 0.  0.
         13    1    3    3    0    0  0.17384967655E+02 -0.35674340046E+02  0.54637703040E+02  0.67529062126E+02  0.00000000000E+00 0. -1.
        -14    1    3    3    0    0  0.62676026208E+02  0.30130141572E+02  0.38405121220E+02  0.79442199292E+02  0.00000000000E+00 0.  1.
        -13    1    4    4    0    0 -0.92155972258E+02 -0.19823532480E+01  0.18850613967E+03  0.20983616857E+03  0.00000000000E+00 0. -1.
         13    1    4    4    0    0 -0.12831147662E+02 -0.47125007094E+02  0.45217795773E+02  0.66558648563E+02  0.00000000000E+00 0.  1.
         21    1    1    2  502  501  0.24926126057E+02  0.54651558817E+02 -0.74238711177E+02  0.95496025459E+02  0.00000000000E+00 0.  1.
<scales pt_clust_5="13000.00000" pt_clust_6="13000.00000" pt_clust_7="13000.00000" pt_clust_8="13000.00000" pt_clust_9="60.06750"></scales>
<clustering>
<clus scale="   60.068">  2  9  1 -1</clus>
<clus scale="   80.642">  5  6 -1 -1</clus>
<clus scale="   91.287">  7  8 -1 -1</clus>
<clus scale="  126.325">  2  5  1 -1</clus>
<clus scale="  133.373">  1  5  2 -1</clus>
</clustering>
</event>
<event>
 9    1  0.6106093E-005  0.2365603E+03  0.7546771E-02  0.1164465E+00
          1   -1    0    0  502    0  0.00000000000E+00  0.00000000000E+00  0.72411334134E+03  0.72411334134E+03  0.00000000000E+00 0. -1.
         -2   -1    0    0    0  501 -0.00000000000E+00 -0.00000000000E+00 -0.11230536275E+03  0.11230536275E+03  0.00000000000E+00 0.  1.
         23    2    1    2    0    0  0.26470495625E+02  0.29989837641E+02  0.89738401786E+02  0.12404177742E+03  0.75718586166E+02 0.  0.
        -24    2    1    2    0    0 -0.23504921498E+02  0.20249471466E+03  0.12474165572E+03  0.25202126138E+03  0.79985278121E+02 0.  0.
         13    1    4    4    0    0 -0.21038221578E+02  0.52431113463E+01  0.11007371992E+02  0.24315822460E+02  0.00000000000E+00 0. -1.
        -14    1    4    4    0    0 -0.24666999194E+01  0.19725160332E+03  0.11373428372E+03  0.22770543892E+03  0.00000000000E+00 0.  1.
        -13    1    3    3    0    0  0.51730857614E+02  0.27196511237E+02  0.50221277062E+02  0.77057825837E+02  0.00000000000E+00 0.  1.
         13    1    3    3    0    0 -0.25260361989E+02  0.27933264042E+01  0.39517124725E+02  0.46983951587E+02  0.00000000000E+00 0. -1.
         21    1    1    2  502  501 -0.29655741272E+01 -0.23248455231E+03  0.39732792108E+03  0.46035566529E+03  0.00000000000E+00 0. -1.
<scales pt_clust_5="13000.00000" pt_clust_6="13000.00000" pt_clust_7="13000.00000" pt_clust_8="13000.00000" pt_clust_9="222.62784"></scales>
<clustering>
<clus scale="   75.719">  7  8 -1 -1</clus>
<clus scale="   79.985">  5  6 -1 -1</clus>
<clus scale="   85.635">  2  7  1 -1</clus>
<clus scale="  222.628">  1  9  2 -1</clus>
<clus scale="  222.628">  1  5  2 -1</clus>
</clustering>
</event>
<event>
 9    1  0.6106093E-005  0.9669523E+02  0.7546771E-02  0.1293887E+00
          1   -1    0    0  502    0  0.00000000000E+00  0.00000000000E+00  0.39017100472E+03  0.39017100472E+03  0.00000000000E+00 0. -1.
         -2   -1    0    0    0  501 -0.00000000000E+00 -0.00000000000E+00 -0.56678156782E+02  0.56678156782E+02  0.00000000000E+00 0.  1.
        -24    2    1    2    0    0 -0.17902262246E+02 -0.34595246881E+02  0.28711534199E+02  0.93281022401E+02  0.79747569518E+02 0.  0.
         23    2    1    2    0    0 -0.32565476674E+01  0.30481066940E+02  0.31518826432E+03  0.32963225946E+03  0.91510021137E+02 0.  0.
         13    1    3    3    0    0 -0.24489409383E+02 -0.21917950468E+02  0.54590727019E+02  0.63720288771E+02  0.00000000000E+00 0. -1.
        -14    1    3    3    0    0  0.65871471367E+01 -0.12677296413E+02 -0.25879192820E+02  0.29560733630E+02  0.00000000000E+00 0.  1.
        -11    1    4    4    0    0 -0.34911052459E+02  0.41790948975E+02  0.12283615651E+03  0.13436512325E+03  0.00000000000E+00 0.  1.
         11    1    4    4    0    0  0.31654504792E+02 -0.11309882035E+02  0.19235210781E+03  0.19526713621E+03  0.00000000000E+00 0. -1.
         21    1    1    2  502  501  0.21158809914E+02  0.41141799404E+01 -0.10406950583E+02  0.23935879636E+02  0.00000000000E+00 0. -1.
<scales pt_clust_5="13000.00000" pt_clust_6="13000.00000" pt_clust_7="13000.00000" pt_clust_8="13000.00000" pt_clust_9="21.55509"></scales>
<clustering>
<clus scale="   21.555">  2  9  1 -1</clus>
<clus scale="   79.748">  5  6 -1 -1</clus>
<clus scale="   85.648">  2  5  1 -1</clus>
<clus scale="   91.510">  7  8 -1 -1</clus>
<clus scale="   96.695">  1  5  2 -1</clus>
</clustering>
</event>
<event>
 9    1  0.6106093E-005  0.1835488E+03  0.7546771E-02  0.1165561E+00
         -2   -1    0    0    0  501 -0.00000000000E+00  0.00000000000E+00  0.12269301368E+03  0.12269301368E+03  0.00000000000E+00 0.  1.
          1   -1    0    0  502    0  0.00000000000E+00 -0.00000000000E+00 -0.60260953146E+03  0.60260953146E+03  0.00000000000E+00 0. -1.
         23    2    1    2    0    0 -0.23759304387E+02  0.18445380830E+03 -0.21533458002E+02  0.20899353998E+03  0.92881096022E+02 0.  0.
        -24    2    1    2    0    0  0.16542814531E+02 -0.15260643988E+03 -0.44992239199E+03  0.48257600203E+03  0.82988244419E+02 0.  0.
         11    1    4    4    0    0  0.41202167961E+02 -0.90003660312E+02 -0.33590018661E+03  0.35018168553E+03  0.00000000000E+00 0. -1.
        -12    1    4    4    0    0 -0.24659353430E+02 -0.62602779568E+02 -0.11402220538E+03  0.13239431649E+03  0.00000000000E+00 0.  1.
        -13    1    3    3    0    0 -0.43801214346E+02  0.16275017495E+03 -0.41200272357E+02  0.17350397190E+03  0.00000000000E+00 0.  1.
         13    1    3    3    0    0  0.20041909959E+02  0.21703633356E+02  0.19666814355E+02  0.35489568080E+02  0.00000000000E+00 0. -1.
         21    1    1    2  502  501  0.72164898567E+01 -0.31847368422E+02 -0.84606677866E+01  0.33733003137E+02  0.00000000000E+00 0.  1.
<scales pt_clust_5="13000.00000" pt_clust_6="13000.00000" pt_clust_7="13000.00000" pt_clust_8="13000.00000" pt_clust_9="32.65475"></scales>
<clustering>
<clus scale="   32.655">  1  9  2 -1</clus>
<clus scale="   82.988">  5  6 -1 -1</clus>
<clus scale="   92.881">  7  8 -1 -1</clus>
<clus scale="  178.746">  2  5  1 -1</clus>
<clus scale="  178.746">  2  5  1 -1</clus>
</clustering>
</event>
<event>
 9    1  0.6106093E-005  0.1289157E+03  0.7546771E-02  0.1233491E+00
         -2   -1    0    0    0  501 -0.00000000000E+00  0.00000000000E+00  0.38069326620E+02  0.38069326620E+02  0.00000000000E+00 0.  1.
          1   -1    0    0  502    0  0.00000000000E+00 -0.00000000000E+00 -0.80047042769E+03  0.80047042769E+03  0.00000000000E+00 0. -1.
        -24    2    1    2    0    0  0.48709324383E+01  0.79146296084E+02 -0.28521031224E+03  0.30630164191E+03  0.78663278992E+02 0.  0.
         23    2    1    2    0    0 -0.40522267165E+02 -0.88981451302E+02 -0.47618331299E+03  0.49524131587E+03  0.94623784330E+02 0.  0.
         11    1    3    3    0    0 -0.11067273262E+02  0.87522406573E+02 -0.26467798875E+03  0.27899299976E+03  0.00000000000E+00 0. -1.
        -12    1    3    3    0    0  0.15938205700E+02 -0.83761104889E+01 -0.20532323495E+02  0.27308642148E+02  0.00000000000E+00 0.  1.
        -11    1    4    4    0    0 -0.67424486517E+02 -0.65309707277E+02 -0.26721926715E+03  0.28322703964E+03  0.00000000000E+00 0. -1.
         11    1    4    4    0    0  0.26902219351E+02 -0.23671744025E+02 -0.20896404584E+03  0.21201427622E+03  0.00000000000E+00 0.  1.
         21    1    1    2  502  501  0.35651334727E+02  0.98351552180E+01 -0.10074758387E+01  0.36996796531E+02  0.00000000000E+00 0.  1.
<scales pt_clust_5="13000.00000" pt_clust_6="13000.00000" pt_clust_7="13000.00000" pt_clust_8="13000.00000" pt_clust_9="36.98308"></scales>
<clustering>
<clus scale="   36.983">  1  9  2 -1</clus>
<clus scale="   78.663">  5  6 -1 -1</clus>
<clus scale="   94.624">  7  8 -1 -1</clus>
<clus scale="  117.701">  1  5  2 -1</clus>
<clus scale="  128.916">  2  5  1 -1</clus>
</clustering>
</event>
<event>
 9    1  0.6106093E-005  0.1020515E+03  0.7546771E-02  0.1281175E+00
         -4   -1    0    0    0  501 -0.00000000000E+00  0.00000000000E+00  0.33909137125E+03  0.33909137125E+03  0.00000000000E+00 0.  1.
          3   -1    0    0  502    0  0.00000000000E+00 -0.00000000000E+00 -0.86397115842E+02  0.86397115842E+02  0.00000000000E+00 0. -1.
         23    2    1    2    0    0  0.51848541751E+02  0.76181915399E+01  0.11929085945E+03  0.15936915911E+03  0.91770973647E+02 0.  0.
        -24    2    1    2    0    0  0.34150910359E+02 -0.58454123307E+02  0.81701658911E+01  0.10592082725E+03  0.81051223467E+02 0.  0.
         11    1    4    4    0    0  0.21326387826E+02 -0.20205865973E+02 -0.35758507073E+02  0.46279181773E+02  0.00000000000E+00 0. -1.
        -12    1    4    4    0    0  0.12824522534E+02 -0.38248257334E+02  0.43928672965E+02  0.59641645481E+02  0.00000000000E+00 0.  1.
        -13    1    3    3    0    0 -0.14149374353E+02  0.18554559954E+02  0.76444556929E+02  0.79926508580E+02  0.00000000000E+00 0.  1.
         13    1    3    3    0    0  0.65997916103E+02 -0.10936368414E+02  0.42846302522E+02  0.79442650534E+02  0.00000000000E+00 0. -1.
         21    1    1    2  502  501 -0.85999452110E+02  0.50835931768E+02  0.12523323007E+03  0.16019850073E+03  0.00000000000E+00 0.  1.
<scales pt_clust_5="13000.00000" pt_clust_6="13000.00000" pt_clust_7="13000.00000" pt_clust_8="13000.00000" pt_clust_9="99.90094"></scales>
<clustering>
<clus scale="   81.051">  5  6 -1 -1</clus>
<clus scale="   91.771">  7  8 -1 -1</clus>
<clus scale="   99.901">  1  9  2 -1</clus>
<clus scale="   92.531">  2  5  1 -1</clus>
<clus scale="   92.531">  2  5  1 -1</clus>
</clustering>
</event>
<event>
 9    1  0.6106093E-005  0.1157262E+03  0.7546771E-02  0.1255723E+00
          1   -1    0    0  502    0  0.00000000000E+00  0.00000000000E+00  0.42639532404E+03  0.42639532404E+03  0.00000000000E+00 0. -1.
         -2   -1    0    0    0  501 -0.00000000000E+00 -0.00000000000E+00 -0.43393732731E+02  0.43393732731E+02  0.00000000000E+00 0.  1.
        -24    2    1    2    0    0 -0.39227963732E+02 -0.58389389247E+02  0.69075129781E+02  0.12714806357E+03  0.80293851575E+02 0.  0.
         23    2    1    2    0    0  0.43770065777E+02  0.34024362930E+02  0.27806220544E+03  0.29904592394E+03  0.95059973723E+02 0.  0.
         11    1    3    3    0    0 -0.26691887784E+02  0.32226960053E+01 -0.76487042658E+01  0.27952554802E+02  0.00000000000E+00 0. -1.
        -12    1    3    3    0    0 -0.12536075948E+02 -0.61612085252E+02  0.76723834046E+02  0.99195508769E+02  0.00000000000E+00 0.  1.
        -13    1    4    4    0    0  0.49741156029E+02 -0.10663087652E+02  0.72306946311E+02  0.88409154086E+02  0.00000000000E+00 0.  1.
         13    1    4    4    0    0 -0.59710902517E+01  0.44687450582E+02  0.20575525913E+03  0.21063676986E+03  0.00000000000E+00 0. -1.
         21    1    1    2  502  501 -0.45421020453E+01  0.24365026317E+02  0.35864256091E+02  0.43595069255E+02  0.00000000000E+00 0. -1.
<scales pt_clust_5="13000.00000" pt_clust_6="13000.00000" pt_clust_7="13000.00000" pt_clust_8="13000.00000" pt_clust_9="24.78478"></scales>
<clustering>
<clus scale="   24.785">  1  9  2 -1</clus>
<clus scale="   80.294">  5  6 -1 -1</clus>
<clus scale="   95.060">  7  8 -1 -1</clus>
<clus scale="  103.939">  2  5  1 -1</clus>
<clus scale="   24.785">  1  5  2 -1</clus>
</clustering>
</event>
<event>
 9    1  0.6106093E-005  0.1044583E+03  0.7546771E-02  0.1275431E+00
          3   -1    0    0  502    0  0.00000000000E+00  0.00000000000E+00  0.15139758878E+03  0.15139758878E+03  0.00000000000E+00 0. -1.
         -4   -1    0    0    0  501 -0.00000000000E+00 -0.00000000000E+00 -0.13314885041E+03  0.13314885041E+03  0.00000000000E+00 0.  1.
         23    2    1    2    0    0 -0.47777674434E+02  0.34734513278E+02 -0.54634809096E+02  0.12259833821E+03  0.92499716652E+02 0.  0.
        -24    2    1    2    0    0  0.48417159814E+02  0.28399113497E+01  0.78164643423E+02  0.12399897316E+03  0.83148947093E+02 0.  0.
         11    1    4    4    0    0  0.22647806263E+02  0.39038331427E+02  0.16630348870E+02  0.48098679323E+02  0.00000000000E+00 0. -1.
        -12    1    4    4    0    0  0.25769353551E+02 -0.36198420077E+02  0.61534294553E+02  0.75900293838E+02  0.00000000000E+00 0.  1.
        -13    1    3    3    0    0 -0.63891702768E+02 -0.49155404752E+01 -0.18809669668E+02  0.66784099109E+02  0.00000000000E+00 0.  1.
         13    1    3    3    0    0  0.16114028333E+02  0.39650053754E+02 -0.35825139427E+02  0.55814239104E+02  0.00000000000E+00 0. -1.
         21    1    1    2  502  501 -0.63948537921E+00 -0.37574424628E+02 -0.52810959563E+01  0.37949127819E+02  0.00000000000E+00 0.  1.
<scales pt_clust_5="13000.00000" pt_clust_6="13000.00000" pt_clust_7="13000.00000" pt_clust_8="13000.00000" pt_clust_9="37.57987"></scales>
<clustering>
<clus scale="   37.580">  2  9  1 -1</clus>
<clus scale="   83.149">  5  6 -1 -1</clus>
<clus scale="   92.500">  7  8 -1 -1</clus>
<clus scale="   96.276">  1  5  2 -1</clus>
<clus scale="   96.276">  1  5  2 -1</clus>
</clustering>
</event>
<event>
 9    1  0.6106093E-005  0.1076722E+03  0.7546771E-02  0.1271478E+00
          3   -1    0    0  502    0  0.00000000000E+00  0.00000000000E+00  0.22516465719E+03  0.22516465719E+03  0.00000000000E+00 0. -1.
         -4   -1    0    0    0  501 -0.00000000000E+00 -0.00000000000E+00 -0.42226588244E+03  0.42226588244E+03  0.00000000000E+00 0.  1.
         23    2    1    2    0    0 -0.13350949015E+02 -0.10372786740E+01 -0.24892804108E+02  0.95853416517E+02  0.91590949198E+02 0.  0.
        -24    2    1    2    0    0  0.66333205221E+02 -0.93960838052E+00  0.17408729140E+03  0.20124621085E+03  0.76109627359E+02 0.  0.
         11    1    4    4    0    0  0.54477568247E+02 -0.32807216894E+02  0.13634822880E+03  0.15044918883E+03  0.00000000000E+00 0. -1.
        -12    1    4    4    0    0  0.11855636975E+02  0.31867608514E+02  0.37739062596E+02  0.50797022020E+02  0.00000000000E+00 0.  1.
        -13    1    3    3    0    0 -0.11085916468E+02  0.45038762873E+02 -0.10905506104E+02  0.47647851667E+02  0.00000000000E+00 0.  1.
         13    1    3    3    0    0 -0.22650325466E+01 -0.46076041547E+02 -0.13987298004E+02  0.48205564850E+02  0.00000000000E+00 0. -1.
         21    1    1    2  502  501 -0.52982256206E+02  0.19768870545E+01 -0.34629571254E+03  0.35033091225E+03  0.00000000000E+00 0.  1.
<scales pt_clust_5="13000.00000" pt_clust_6="13000.00000" pt_clust_7="13000.00000" pt_clust_8="13000.00000" pt_clust_9="53.01912"></scales>
<clustering>
<clus scale="   53.019">  2  9  1 -1</clus>
<clus scale="   76.110">  5  6 -1 -1</clus>
<clus scale="   91.591">  7  8 -1 -1</clus>
<clus scale="   94.853">  1  5  2 -1</clus>
<clus scale="   94.853">  1  5  2 -1</clus>
</clustering>
</event>
<event>
 9    1  0.6106093E-005  0.2751807E+03  0.7546771E-02  0.1135787E+00
         -2   -1    0    0    0  501 -0.00000000000E+00  0.00000000000E+00  0.13133978732E+03  0.13133978732E+03  0.00000000000E+00 0.  1.
          1   -1    0    0  502    0  0.00000000000E+00 -0.00000000000E+00 -0.10837401195E+04  0.10837401195E+04  0.00000000000E+00 0. -1.
         23    2    1    2    0    0  0.25805691608E+03 -0.47902327101E+02 -0.12788406437E+03  0.30630294175E+03  0.92623719017E+02 0.  0.
        -24    2    1    2    0    0 -0.82326727100E+00  0.69896855968E+02 -0.37856689358E+03  0.39348699451E+03  0.81442456346E+02 0.  0.
         11    1    4    4    0    0 -0.20499327672E+02  0.81137442545E+02 -0.27411007570E+03  0.28660048956E+03  0.00000000000E+00 0. -1.
        -12    1    4    4    0    0  0.19676060401E+02 -0.11240586577E+02 -0.10445681788E+03  0.10688650495E+03  0.00000000000E+00 0.  1.
        -11    1    3    3    0    0  0.21828135781E+03 -0.68470341188E+02 -0.12669531224E+03  0.26150839553E+03  0.00000000000E+00 0.  1.
         11    1    3    3    0    0  0.39775558269E+02  0.20568014087E+02 -0.11887521344E+01  0.44794546216E+02  0.00000000000E+00 0. -1.
         21    1    1    2  502  501 -0.25723364881E+03 -0.21994528867E+02 -0.44594937421E+03  0.51528997053E+03  0.00000000000E+00 0. -1.
<scales pt_clust_5="13000.00000" pt_clust_6="13000.00000" pt_clust_7="13000.00000" pt_clust_8="13000.00000" pt_clust_9="259.12402"></scales>
<clustering>
<clus scale="   81.442">  5  6 -1 -1</clus>
<clus scale="   92.624">  7  8 -1 -1</clus>
<clus scale="  107.327">  2  5  1 -1</clus>
<clus scale="  259.124">  2  9  1 -1</clus>
<clus scale="  107.327">  2  5  1 -1</clus>
</clustering>
</event>
<event>
 9    1  0.6106093E-005  0.9731220E+02  0.7546771E-02  0.1291952E+00
          3   -1    0    0  502    0  0.00000000000E+00  0.00000000000E+00  0.81081936085E+02  0.81081936085E+02  0.00000000000E+00 0. -1.
         -4   -1    0    0    0  501 -0.00000000000E+00 -0.00000000000E+00 -0.41040713861E+03  0.41040713861E+03  0.00000000000E+00 0.  1.
        -24    2    1    2    0    0  0.50727047292E+02 -0.21411425934E+02 -0.30113624192E+03  0.31645396886E+03  0.80177276864E+02 0.  0.
         23    2    1    2    0    0 -0.30389778509E+02  0.96113235745E+01  0.38778210750E+02  0.10406011758E+03  0.91152851100E+02 0.  0.
         13    1    3    3    0    0  0.39114136764E+00 -0.42291887007E+02 -0.11628823984E+03  0.12374050034E+03  0.00000000000E+00 0. -1.
        -14    1    3    3    0    0  0.50335905924E+02  0.20880461073E+02 -0.18484800208E+03  0.19271346853E+03  0.00000000000E+00 0.  1.
        -11    1    4    4    0    0  0.21975614734E+02  0.60335796441E+01  0.45750059664E+02  0.51111639433E+02  0.00000000000E+00 0. -1.
         11    1    4    4    0    0 -0.52365393243E+02  0.35777439304E+01 -0.69718489138E+01  0.52948478150E+02  0.00000000000E+00 0.  1.
         21    1    1    2  502  501 -0.20337268782E+02  0.11800102359E+02 -0.66967171355E+02  0.70974988246E+02  0.00000000000E+00 0. -1.
<scales pt_clust_5="13000.00000" pt_clust_6="13000.00000" pt_clust_7="13000.00000" pt_clust_8="13000.00000" pt_clust_9="23.51270"></scales>
<clustering>
<clus scale="   23.513">  2  9  1 -1</clus>
<clus scale="   80.177">  5  6 -1 -1</clus>
<clus scale="   87.116">  2  5  1 -1</clus>
<clus scale="   91.153">  7  8 -1 -1</clus>
<clus scale="   97.312">  1  5  2 -1</clus>
</clustering>
</event>
<event>
 9    1  0.6106093E-005  0.9211254E+02  0.7546771E-02  0.1303693E+00
         -2   -1    0    0    0  501 -0.00000000000E+00  0.00000000000E+00  0.10533922302E+03  0.10533922302E+03  0.00000000000E+00 0.  1.
          1   -1    0    0  502    0  0.00000000000E+00 -0.00000000000E+00 -0.24632700648E+03  0.24632700648E+03  0.00000000000E+00 0. -1.
         23    2    1    2    0    0  0.18024231135E+02  0.36723987984E+02  0.56289489580E+02  0.11430484245E+03  0.90683880426E+02 0.  0.
        -24    2    1    2    0    0  0.19850499873E+01 -0.14091156635E+02 -0.18883643863E+03  0.20599477947E+03  0.81068782489E+02 0.  0.
         11    1    4    4    0    0  0.14281633527E+02 -0.45900053066E+02 -0.11621982585E+03  0.12576894628E+03  0.00000000000E+00 0. -1.
        -12    1    4    4    0    0 -0.12296583539E+02  0.31808896432E+02 -0.72616612784E+02  0.80225833191E+02  0.00000000000E+00 0.  1.
        -13    1    3    3    0    0  0.10552002954E+02  0.58579744995E+02  0.66328129578E+02  0.89119874682E+02  0.00000000000E+00 0.  1.
         13    1    3    3    0    0  0.74722281803E+01 -0.21855757011E+02 -0.10038639998E+02  0.25184967769E+02  0.00000000000E+00 0. -1.
         21    1    1    2  502  501 -0.20009281122E+02 -0.22632831349E+02 -0.84408344023E+01  0.31366607584E+02  0.00000000000E+00 0. -1.
<scales pt_clust_5="13000.00000" pt_clust_6="13000.00000" pt_clust_7="13000.00000" pt_clust_8="13000.00000" pt_clust_9="30.20954"></scales>
<clustering>
<clus scale="   30.210">  1  9  2 -1</clus>
<clus scale="   81.069">  5  6 -1 -1</clus>
<clus scale="   82.664">  2  5  1 -1</clus>
<clus scale="   90.684">  7  8 -1 -1</clus>
<clus scale="   82.664">  2  5  1 -1</clus>
</clustering>
</event>
<event>
 9    1  0.6106093E-005  0.9413086E+02  0.7546771E-02  0.1297639E+00
          1   -1    0    0  502    0  0.00000000000E+00  0.00000000000E+00  0.17728897814E+03  0.17728897814E+03  0.00000000000E+00 0. -1.
         -2   -1    0    0    0  501 -0.00000000000E+00 -0.00000000000E+00 -0.95847285229E+02  0.95847285229E+02  0.00000000000E+00 0.  1.
         23    2    1    2    0    0 -0.22022019343E+02  0.94346580464E+01 -0.30046776594E+02  0.95905833746E+02  0.87870006569E+02 0.  0.
        -24    2    1    2    0    0 -0.54190721215E+01 -0.40351820556E+02  0.10020421299E+03  0.13437930497E+03  0.79745078462E+02 0.  0.
         11    1    4    4    0    0 -0.34011079048E+02 -0.47324321005E+02  0.78706103607E+02  0.97933628553E+02  0.00000000000E+00 0. -1.
        -12    1    4    4    0    0  0.28592006927E+02  0.69725004484E+01  0.21498109385E+02  0.36445676421E+02  0.00000000000E+00 0.  1.
        -11    1    3    3    0    0 -0.38936182737E+02 -0.22839466964E+02  0.49158149686E+01  0.45407409243E+02  0.00000000000E+00 0. -1.
         11    1    3    3    0    0  0.16914163394E+02  0.32274125011E+02 -0.34962591563E+02  0.50498424503E+02  0.00000000000E+00 0.  1.
         21    1    1    2  502  501  0.27441091464E+02  0.30917162510E+02  0.11284256509E+02  0.42851124646E+02  0.00000000000E+00 0. -1.
<scales pt_clust_5="13000.00000" pt_clust_6="13000.00000" pt_clust_7="13000.00000" pt_clust_8="13000.00000" pt_clust_9="41.33866"></scales>
<clustering>
<clus scale="   41.339">  2  9  1 -1</clus>
<clus scale="   79.745">  5  6 -1 -1</clus>
<clus scale="   86.595">  1  5  2 -1</clus>
<clus scale="   87.870">  7  8 -1 -1</clus>
<clus scale="   86.595">  1  5  2 -1</clus>
</clustering>
</event>
<event>
 9    1  0.6106093E-005  0.9410481E+02  0.7546771E-02  0.1299992E+00
          1   -1    0    0  502    0  0.00000000000E+00  0.00000000000E+00  0.11889638964E+04  0.11889638964E+04  0.00000000000E+00 0. -1.
         -2   -1    0    0    0  501 -0.00000000000E+00 -0.00000000000E+00 -0.25491388666E+02  0.25491388666E+02  0.00000000000E+00 0.  1.
         23    2    1    2    0    0  0.13303575893E+02 -0.16143252897E+02  0.82139684468E+02  0.12460265809E+03  0.91330744514E+02 0.  0.
        -24    2    1    2    0    0  0.64664423250E+01  0.22581027268E+02  0.10424024866E+04  0.10457179504E+04  0.79820862818E+02 0.  0.
         11    1    4    4    0    0 -0.42451553693E+01  0.37321017019E+02  0.22509999567E+03  0.22821237413E+03  0.00000000000E+00 0. -1.
        -12    1    4    4    0    0  0.10711597694E+02 -0.14739989751E+02  0.81730249093E+03  0.81750557632E+03  0.00000000000E+00 0.  1.
        -13    1    3    3    0    0  0.33645339824E+02  0.14057691501E+01 -0.44256764796E+01  0.33964270801E+02  0.00000000000E+00 0.  1.
         13    1    3    3    0    0 -0.20341763931E+02 -0.17549022047E+02  0.86565360947E+02  0.90638387290E+02  0.00000000000E+00 0. -1.
         21    1    1    2  502  501 -0.19770018217E+02 -0.64377743715E+01  0.38930336638E+02  0.44134676502E+02  0.00000000000E+00 0.  1.
<scales pt_clust_5="13000.00000" pt_clust_6="13000.00000" pt_clust_7="13000.00000" pt_clust_8="13000.00000" pt_clust_9="20.79179"></scales>
<clustering>
<clus scale="   20.792">  2  9  1 -1</clus>
<clus scale="   79.821">  5  6 -1 -1</clus>
<clus scale="   82.981">  1  5  2 -1</clus>
<clus scale="   91.331">  7  8 -1 -1</clus>
<clus scale="   82.981">  1  5  2 -1</clus>
</clustering>
</event>
<event>
 9    1  0.6106093E-005  0.1537969E+03  0.7546771E-02  0.1215769E+00
          1   -1    0    0  502    0  0.00000000000E+00  0.00000000000E+00  0.40190277049E+03  0.40190277049E+03  0.00000000000E+00 0. -1.
         -2   -1    0    0    0  501 -0.00000000000E+00 -0.00000000000E+00 -0.16145774613E+03  0.16145774613E+03  0.00000000000E+00 0.  1.
        -24    2    1    2    0    0  0.68282762862E+02 -0.14513657373E+03  0.47589383774E+02  0.18755720171E+03  0.84769061156E+02 0.  0.
         23    2    1    2    0    0  0.11256520652E+01  0.50396566950E+02  0.23140129414E+03  0.25219520695E+03  0.86687844719E+02 0.  0.
         13    1    3    3    0    0  0.21535474081E+02 -0.12977218013E+03  0.27406935189E+02  0.13437163196E+03  0.00000000000E+00 0. -1.
        -14    1    3    3    0    0  0.46747288781E+02 -0.15364393598E+02  0.20182448585E+02  0.53185569753E+02  0.00000000000E+00 0.  1.
        -13    1    4    4    0    0  0.25949508169E+02  0.42315219649E+02  0.21653763127E+03  0.22215422693E+03  0.00000000000E+00 0. -1.
         13    1    4    4    0    0 -0.24823856104E+02  0.80813473019E+01  0.14863662874E+02  0.30040980013E+02  0.00000000000E+00 0.  1.
         21    1    1    2  502  501 -0.69408414927E+02  0.94740006775E+02 -0.38545653551E+02  0.12360810796E+03  0.00000000000E+00 0.  1.
<scales pt_clust_5="13000.00000" pt_clust_6="13000.00000" pt_clust_7="13000.00000" pt_clust_8="13000.00000" pt_clust_9="128.32655"></scales>
<clustering>
<clus scale="   84.769">  5  6 -1 -1</clus>
<clus scale="   86.688">  7  8 -1 -1</clus>
<clus scale="  100.279">  1  7  2 -1</clus>
<clus scale="  128.327">  2  9  1 -1</clus>
<clus scale="  100.279">  1  5  2 -1</clus>
</clustering>
</event>
<event>
 9    1  0.6106093E-005  0.9645191E+02  0.7546771E-02  0.1293780E+00
         -2   -1    0    0    0  501 -0.00000000000E+00  0.00000000000E+00  0.19611558901E+03  0.19611558901E+03  0.00000000000E+00 0.  1.
          1   -1    0    0  502    0  0.00000000000E+00 -0.00000000000E+00 -0.73321488167E+02  0.73321488167E+02  0.00000000000E+00 0. -1.
         23    2    1    2    0    0  0.38514356718E+02  0.18991235964E+01  0.98986191650E+02  0.13961894687E+03  0.90599237550E+02 0.  0.
        -24    2    1    2    0    0 -0.17355340958E+02 -0.31871335435E+02  0.33441383359E+01  0.87808567724E+02  0.79888493680E+02 0.  0.
         11    1    4    4    0    0  0.27394729158E+02 -0.29165296999E+02 -0.95930076829E+01  0.41147436507E+02  0.00000000000E+00 0. -1.
        -12    1    4    4    0    0 -0.44750070116E+02 -0.27060384360E+01  0.12937146019E+02  0.46661131217E+02  0.00000000000E+00 0.  1.
        -13    1    3    3    0    0 -0.12669615799E+02  0.32896448564E+02  0.20014431685E+02  0.40537303417E+02  0.00000000000E+00 0.  1.
         13    1    3    3    0    0  0.51183972518E+02 -0.30997324968E+02  0.78971759965E+02  0.99081643456E+02  0.00000000000E+00 0. -1.
         21    1    1    2  502  501 -0.21159015760E+02  0.29972211839E+02  0.20463770855E+02  0.42009562579E+02  0.00000000000E+00 0.  1.
<scales pt_clust_5="13000.00000" pt_clust_6="13000.00000" pt_clust_7="13000.00000" pt_clust_8="13000.00000" pt_clust_9="36.68838"></scales>
<clustering>
<clus scale="   36.688">  1  9  2 -1</clus>
<clus scale="   79.888">  5  6 -1 -1</clus>
<clus scale="   86.469">  2  5  1 -1</clus>
<clus scale="   90.599">  7  8 -1 -1</clus>
<clus scale="   86.469">  2  5  1 -1</clus>
</clustering>
</event>
<event>
 9    1  0.6106093E-005  0.9230587E+02  0.7546771E-02  0.1298962E+00
          1   -1    0    0  502    0  0.00000000000E+00  0.00000000000E+00  0.49396663241E+02  0.49396663241E+02  0.00000000000E+00 0. -1.
         -2   -1    0    0    0  501 -0.00000000000E+00 -0.00000000000E+00 -0.35339854630E+03  0.35339854630E+03  0.00000000000E+00 0.  1.
        -24    2    1    2    0    0 -0.30270132785E+02  0.45207530417E+02 -0.19399365603E+03  0.21757102567E+03  0.82119491510E+02 0.  0.
         23    2    1    2    0    0  0.33679646465E+01 -0.31620219417E+02 -0.23750628493E+02  0.93852881068E+02  0.85047571800E+02 0.  0.
         13    1    3    3    0    0 -0.10131605209E+01  0.62006217275E+02 -0.14853789239E+03  0.16096366966E+03  0.00000000000E+00 0. -1.
        -14    1    3    3    0    0 -0.29256972264E+02 -0.16798686859E+02 -0.45455763642E+02  0.56607356011E+02  0.00000000000E+00 0.  1.
        -11    1    4    4    0    0 -0.25034513605E+02 -0.72002546576E+01 -0.44104556345E+02  0.51222870175E+02  0.00000000000E+00 0.  1.
         11    1    4    4    0    0  0.28402478252E+02 -0.24419964760E+02  0.20353927852E+02  0.42630010893E+02  0.00000000000E+00 0. -1.
         21    1    1    2  502  501  0.26902168139E+02 -0.13587310999E+02 -0.86257598531E+02  0.91371302799E+02  0.00000000000E+00 0.  1.
<scales pt_clust_5="13000.00000" pt_clust_6="13000.00000" pt_clust_7="13000.00000" pt_clust_8="13000.00000" pt_clust_9="30.13871"></scales>
<clustering>
<clus scale="   30.139">  2  9  1 -1</clus>
<clus scale="   82.119">  5  6 -1 -1</clus>
<clus scale="   85.048">  7  8 -1 -1</clus>
<clus scale="   89.615">  2  5  1 -1</clus>
<clus scale="   92.306">  1  5  2 -1</clus>
</clustering>
</event>
<event>
 9    1  0.6106093E-005  0.9527239E+02  0.7546771E-02  0.1296403E+00
         -2   -1    0    0    0  501 -0.00000000000E+00  0.00000000000E+00  0.87878318682E+02  0.87878318682E+02  0.00000000000E+00 0.  1.
          1   -1    0    0  502    0  0.00000000000E+00 -0.00000000000E+00 -0.27104714155E+03  0.27104714155E+03  0.00000000000E+00 0. -1.
         23    2    1    2    0    0  0.49522657725E+01  0.22705859158E+02  0.24759584763E+02  0.97505990279E+02  0.91401860628E+02 0.  0.
        -24    2    1    2    0    0 -0.28924250850E+02  0.11812782103E+02 -0.20078077310E+03  0.21878988700E+03  0.81116839792E+02 0.  0.
         11    1    4    4    0    0 -0.28166381817E+02  0.30855225135E+02 -0.19417722610E+03  0.19862070667E+03  0.00000000000E+00 0. -1.
        -12    1    4    4    0    0 -0.75786903286E+00 -0.19042443032E+02 -0.66035470010E+01  0.20169180328E+02  0.00000000000E+00 0.  1.
        -11    1    3    3    0    0  0.37092234261E+02  0.42503806310E+02  0.12141905680E+02  0.57704707494E+02  0.00000000000E+00 0.  1.
         11    1    3    3    0    0 -0.32139968489E+02 -0.19797947152E+02  0.12617679083E+02  0.39801282785E+02  0.00000000000E+00 0. -1.
         21    1    1    2  502  501  0.23971985078E+02 -0.34518641261E+02 -0.71476345252E+01  0.42629582949E+02  0.00000000000E+00 0.  1.
<scales pt_clust_5="13000.00000" pt_clust_6="13000.00000" pt_clust_7="13000.00000" pt_clust_8="13000.00000" pt_clust_9="42.02610"></scales>
<clustering>
<clus scale="   42.026">  1  9  2 -1</clus>
<clus scale="   81.117">  5  6 -1 -1</clus>
<clus scale="   85.454">  2  5  1 -1</clus>
<clus scale="   91.402">  7  8 -1 -1</clus>
<clus scale="   85.454">  2  5  1 -1</clus>
</clustering>
</event>
<event>
 9    1  0.6106093E-005  0.9986865E+02  0.7546771E-02  0.1281792E+00
          1   -1    0    0  502    0  0.00000000000E+00  0.00000000000E+00  0.81746401098E+03  0.81746401098E+03  0.00000000000E+00 0. -1.
         -2   -1    0    0    0  501 -0.00000000000E+00 -0.00000000000E+00 -0.58222298648E+02  0.58222298648E+02  0.00000000000E+00 0.  1.
         23    2    1    2    0    0  0.34862317199E+02  0.52605742846E+02  0.27608757170E+02  0.11535814801E+03  0.92533850560E+02 0.  0.
        -24    2    1    2    0    0 -0.29387565762E+02 -0.20716053325E+02  0.71913214790E+03  0.72564105475E+03  0.90061702747E+02 0.  0.
         11    1    4    4    0    0 -0.21770189146E+01 -0.50803404381E+02  0.27513763645E+03  0.27979714848E+03  0.00000000000E+00 0. -1.
        -12    1    4    4    0    0 -0.27210546848E+02  0.30087351056E+02  0.44399451145E+03  0.44584390626E+03  0.00000000000E+00 0.  1.
        -11    1    3    3    0    0  0.54736957493E+02  0.65483994285E+02  0.32227025348E+02  0.91229760418E+02  0.00000000000E+00 0.  1.
         11    1    3    3    0    0 -0.19874640294E+02 -0.12878251439E+02 -0.46182681783E+01  0.24128387594E+02  0.00000000000E+00 0. -1.
         21    1    1    2  502  501 -0.54747514368E+01 -0.31889689520E+02  0.12500807266E+02  0.34687106874E+02  0.00000000000E+00 0. -1.
<scales pt_clust_5="13000.00000" pt_clust_6="13000.00000" pt_clust_7="13000.00000" pt_clust_8="13000.00000" pt_clust_9="32.35622"></scales>
<clustering>
<clus scale="   32.356">  2  9  1 -1</clus>
<clus scale="   90.062">  5  6 -1 -1</clus>
<clus scale="   92.534">  7  8 -1 -1</clus>
<clus scale="   97.583">  1  5  2 -1</clus>
<clus scale="   97.583">  1  5  2 -1</clus>
</clustering>
</event>
<event>
 9    1  0.6106093E-005  0.9956768E+02  0.7546771E-02  0.1284205E+00
         -2   -1    0    0    0  501 -0.00000000000E+00  0.00000000000E+00  0.26720138075E+03  0.26720138075E+03  0.00000000000E+00 0.  1.
          1   -1    0    0  502    0  0.00000000000E+00 -0.00000000000E+00 -0.66767499858E+02  0.66767499858E+02  0.00000000000E+00 0. -1.
         23    2    1    2    0    0 -0.18672489287E+02  0.31409407329E+02  0.16773626012E+03  0.19234486423E+03  0.86751836362E+02 0.  0.
        -24    2    1    2    0    0  0.48759551473E+02 -0.22446042640E+02  0.50589780997E+00  0.96658693685E+02  0.80382388881E+02 0.  0.
         13    1    4    4    0    0  0.10870349219E+02 -0.45618303737E+02  0.16107540640E+02  0.49584745573E+02  0.00000000000E+00 0. -1.
        -14    1    4    4    0    0  0.37889202255E+02  0.23172261097E+02 -0.15601642830E+02  0.47073948112E+02  0.00000000000E+00 0.  1.
        -13    1    3    3    0    0 -0.23602205963E+02 -0.24827769405E+02  0.89790632477E+02  0.96103277470E+02  0.00000000000E+00 0. -1.
         13    1    3    3    0    0  0.49297166765E+01  0.56237176734E+02  0.77945627639E+02  0.96241586757E+02  0.00000000000E+00 0.  1.
         21    1    1    2  502  501 -0.30087062187E+02 -0.89633646889E+01  0.32191722964E+02  0.44965322694E+02  0.00000000000E+00 0. -1.
<scales pt_clust_5="13000.00000" pt_clust_6="13000.00000" pt_clust_7="13000.00000" pt_clust_8="13000.00000" pt_clust_9="31.39384"></scales>
<clustering>
<clus scale="   31.394">  1  9  2 -1</clus>
<clus scale="   80.382">  5  6 -1 -1</clus>
<clus scale="   86.752">  7  8 -1 -1</clus>
<clus scale="   94.070">  2  5  1 -1</clus>
<clus scale="   94.070">  2  5  1 -1</clus>
</clustering>
</event>
<event>
 9    1  0.6106093E-005  0.1441898E+03  0.7546771E-02  0.1210203E+00
         -2   -1    0    0    0  501 -0.00000000000E+00  0.00000000000E+00  0.37820059487E+03  0.37820059487E+03  0.00000000000E+00 0.  1.
          1   -1    0    0  502    0  0.00000000000E+00 -0.00000000000E+00 -0.14343331787E+03  0.14343331787E+03  0.00000000000E+00 0. -1.
        -24    2    1    2    0    0 -0.12739986498E+02  0.93589800266E+02  0.13610401115E+03  0.18407278975E+03  0.80231740010E+02 0.  0.
         23    2    1    2    0    0  0.95470118569E+01 -0.11540375837E+03 -0.72681366842E+02  0.16480398998E+03  0.92025002835E+02 0.  0.
         11    1    3    3    0    0 -0.28364208026E+02  0.41514952049E+00  0.21782842301E+02  0.35765805804E+02  0.00000000000E+00 0. -1.
        -12    1    3    3    0    0  0.15624221528E+02  0.93174650746E+02  0.11432116885E+03  0.14830698394E+03  0.00000000000E+00 0.  1.
        -11    1    4    4    0    0 -0.28018229759E+02 -0.16451881934E+01 -0.12225703663E+02  0.30613651744E+02  0.00000000000E+00 0.  1.
         11    1    4    4    0    0  0.37565241616E+02 -0.11375857017E+03 -0.60455663180E+02  0.13419033824E+03  0.00000000000E+00 0. -1.
         21    1    1    2  502  501  0.31929746415E+01  0.21813958099E+02  0.17134463270E+03  0.17275713302E+03  0.00000000000E+00 0.  1.
<scales pt_clust_5="13000.00000" pt_clust_6="13000.00000" pt_clust_7="13000.00000" pt_clust_8="13000.00000" pt_clust_9="22.04640"></scales>
<clustering>
<clus scale="   22.046">  1  9  2 -1</clus>
<clus scale="   80.232">  5  6 -1 -1</clus>
<clus scale="   92.025">  7  8 -1 -1</clus>
<clus scale="  136.964">  1  5  2 -1</clus>
<clus scale="  144.190">  2  5  1 -1</clus>
</clustering>
</event>
<event>
 9    1  0.6106093E-005  0.1480693E+03  0.7546771E-02  0.1204859E+00
         -2   -1    0    0    0  501 -0.00000000000E+00  0.00000000000E+00  0.16421013595E+03  0.16421013595E+03  0.00000000000E+00 0.  1.
          1   -1    0    0  502    0  0.00000000000E+00 -0.00000000000E+00 -0.79894036452E+03  0.79894036452E+03  0.00000000000E+00 0. -1.
         23    2    1    2    0    0  0.48282181951E+02  0.22408762900E+02  0.53815984367E+02  0.11754484755E+03  0.89929468277E+02 0.  0.
        -24    2    1    2    0    0 -0.11267208145E+03 -0.49327011108E+02 -0.74288425238E+03  0.75715638060E+03  0.79250364590E+02 0.  0.
         13    1    4    4    0    0 -0.11833823737E+03 -0.59865884137E+02 -0.64124638126E+03  0.65481660332E+03  0.00000000000E+00 0. -1.
        -14    1    4    4    0    0  0.56661559209E+01  0.10538873030E+02 -0.10163787112E+03  0.10233977728E+03  0.00000000000E+00 0.  1.
        -13    1    3    3    0    0  0.59481349704E+02  0.48085533981E+02  0.39717902876E+02  0.86184461185E+02  0.00000000000E+00 0.  1.
         13    1    3    3    0    0 -0.11199167753E+02 -0.25676771081E+02  0.14098081491E+02  0.31360386370E+02  0.00000000000E+00 0. -1.
         21    1    1    2  502  501  0.64389899497E+02  0.26918248208E+02  0.54338039443E+02  0.88449272322E+02  0.00000000000E+00 0.  1.
<scales pt_clust_5="13000.00000" pt_clust_6="13000.00000" pt_clust_7="13000.00000" pt_clust_8="13000.00000" pt_clust_9="69.79005"></scales>
<clustering>
<clus scale="   69.790">  1  9  2 -1</clus>
<clus scale="   79.250">  5  6 -1 -1</clus>
<clus scale="   89.929">  7  8 -1 -1</clus>
<clus scale="  141.837">  2  5  1 -1</clus>
<clus scale="  141.837">  2  5  1 -1</clus>
</clustering>
</event>
<event>
 9    1  0.6106093E-005  0.1351167E+03  0.7546771E-02  0.1227727E+00
          1   -1    0    0  502    0  0.00000000000E+00  0.00000000000E+00  0.28361779209E+03  0.28361779209E+03  0.00000000000E+00 0. -1.
         -2   -1    0    0    0  501 -0.00000000000E+00 -0.00000000000E+00 -0.16985685615E+03  0.16985685615E+03  0.00000000000E+00 0.  1.
        -24    2    1    2    0    0  0.39495038677E+02 -0.39325491888E+02 -0.10543418218E+03  0.14663344827E+03  0.85314998615E+02 0.  0.
         23    2    1    2    0    0 -0.80145992188E+02  0.17123901384E+02  0.22103588399E+03  0.26048605936E+03  0.11081298232E+03 0.  0.
         13    1    3    3    0    0  0.32555113925E+02 -0.24673284773E+02 -0.90931494009E+00  0.40858698925E+02  0.00000000000E+00 0. -1.
        -14    1    3    3    0    0  0.69399247519E+01 -0.14652207115E+02 -0.10452486724E+03  0.10577474935E+03  0.00000000000E+00 0.  1.
        -13    1    4    4    0    0 -0.13864023634E+02 -0.32427132800E+02  0.14763765979E+02  0.38232170731E+02  0.00000000000E+00 0.  1.
         13    1    4    4    0    0 -0.66281968554E+02  0.49551034184E+02  0.20627211801E+03  0.22225388863E+03  0.00000000000E+00 0. -1.
         21    1    1    2  502  501  0.40650953511E+02  0.22201590504E+02 -0.18407658734E+01  0.46355140613E+02  0.00000000000E+00 0.  1.
<scales pt_clust_5="13000.00000" pt_clust_6="13000.00000" pt_clust_7="13000.00000" pt_clust_8="13000.00000" pt_clust_9="46.31858"></scales>
<clustering>
<clus scale="   46.319">  2  9  1 -1</clus>
<clus scale="   85.315">  5  6 -1 -1</clus>
<clus scale="  110.813">  7  8 -1 -1</clus>
<clus scale="  115.133">  2  5  1 -1</clus>
<clus scale="  135.117">  1  5  2 -1</clus>
</clustering>
</event>
<event>
 9    1  0.6106093E-005  0.1293654E+03  0.7546771E-02  0.1232208E+00
          1   -1    0    0  502    0  0.00000000000E+00  0.00000000000E+00  0.42469067168E+03  0.42469067168E+03  0.00000000000E+00 0. -1.
         -2   -1    0    0    0  501 -0.00000000000E+00 -0.00000000000E+00 -0.91156698234E+02  0.91156698234E+02  0.00000000000E+00 0.  1.
        -24    2    1    2    0    0  0.18430390364E+02  0.84919715188E+02 -0.12239188983E+02  0.11945362941E+03  0.81045262147E+02 0.  0.
         23    2    1    2    0    0 -0.39096119962E+02 -0.79406211634E+02  0.35113625241E+03  0.37434302996E+03  0.94879835996E+02 0.  0.
         11    1    3    3    0    0  0.14879322472E+02  0.45748578945E+02  0.33880048738E+02  0.58840329836E+02  0.00000000000E+00 0. -1.
        -12    1    3    3    0    0  0.35510678921E+01  0.39171136243E+02 -0.46119237720E+02  0.60613299577E+02  0.00000000000E+00 0.  1.
        -13    1    4    4    0    0  0.75962021949E+01 -0.54657735987E+02  0.28186338272E+03  0.28721444412E+03  0.00000000000E+00 0.  1.
         13    1    4    4    0    0 -0.46692322157E+02 -0.24748475647E+02  0.69272869686E+02  0.87128585836E+02  0.00000000000E+00 0. -1.
         21    1    1    2  502  501  0.20665729598E+02 -0.55135035537E+01 -0.53630899826E+01  0.22050710542E+02  0.00000000000E+00 0.  1.
<scales pt_clust_5="13000.00000" pt_clust_6="13000.00000" pt_clust_7="13000.00000" pt_clust_8="13000.00000" pt_clust_9="21.38857"></scales>
<clustering>
<clus scale="   21.389">  2  9  1 -1</clus>
<clus scale="   81.045">  5  6 -1 -1</clus>
<clus scale="   94.880">  7  8 -1 -1</clus>
<clus scale="  119.589">  2  5  1 -1</clus>
<clus scale="  129.365">  1  5  2 -1</clus>
</clustering>
</event>
<event>
 9    1  0.6106093E-005  0.9290840E+02  0.7546771E-02  0.1305199E+00
         -4   -1    0    0    0  501 -0.00000000000E+00  0.00000000000E+00  0.96121077263E+02  0.96121077263E+02  0.00000000000E+00 0.  1.
          3   -1    0    0  502    0  0.00000000000E+00 -0.00000000000E+00 -0.15812624391E+03  0.15812624391E+03  0.00000000000E+00 0. -1.
         23    2    1    2    0    0 -0.12113563023E+01  0.14053966930E+02  0.40760741673E+02  0.10159329217E+03  0.91982485187E+02 0.  0.
        -24    2    1    2    0    0 -0.27317257728E+02 -0.48075688879E+01 -0.82972200279E+02  0.11672119481E+03  0.77266461095E+02 0.  0.
         11    1    4    4    0    0 -0.20286612212E+02 -0.39531234858E+02 -0.59350796883E+02  0.74140287665E+02  0.00000000000E+00 0. -1.
        -12    1    4    4    0    0 -0.70306455164E+01  0.34723665970E+02 -0.23621403396E+02  0.42580907144E+02  0.00000000000E+00 0.  1.
        -11    1    3    3    0    0 -0.28851534899E+02  0.43658723272E+02  0.26466856017E+02  0.58642899410E+02  0.00000000000E+00 0.  1.
         11    1    3    3    0    0  0.27640178597E+02 -0.29604756342E+02  0.14293885656E+02  0.42950392758E+02  0.00000000000E+00 0. -1.
         21    1    1    2  502  501  0.28528614031E+02 -0.92463980425E+01 -0.19793708040E+02  0.35932834194E+02  0.00000000000E+00 0. -1.
<scales pt_clust_5="13000.00000" pt_clust_6="13000.00000" pt_clust_7="13000.00000" pt_clust_8="13000.00000" pt_clust_9="29.98963"></scales>
<clustering>
<clus scale="   29.990">  2  9  1 -1</clus>
<clus scale="   77.266">  5  6 -1 -1</clus>
<clus scale="   78.366">  2  5  1 -1</clus>
<clus scale="   91.982">  7  8 -1 -1</clus>
<clus scale="   29.990">  2  5  1 -1</clus>
</clustering>
</event>
<event>
 9    1  0.6106093E-005  0.1130501E+03  0.7546771E-02  0.1258357E+00
         -2   -1    0    0    0  501 -0.00000000000E+00  0.00000000000E+00  0.63962144635E+02  0.63962144635E+02  0.00000000000E+00 0.  1.
          1   -1    0    0  502    0  0.00000000000E+00 -0.00000000000E+00 -0.56999152471E+03  0.56999152471E+03  0.00000000000E+00 0. -1.
        -24    2    1    2    0    0  0.32152621609E+02 -0.97072873887E+02 -0.21832322673E+03  0.25417598049E+03  0.80519959064E+02 0.  0.
         23    2    1    2    0    0 -0.22962278189E+02  0.47625662476E+02 -0.30829962410E+03  0.32543083830E+03  0.89783641870E+02 0.  0.
         11    1    3    3    0    0 -0.22956525013E+02 -0.56922641356E+02 -0.11558865779E+03  0.13087370610E+03  0.00000000000E+00 0. -1.
        -12    1    3    3    0    0  0.55109146622E+02 -0.40150232531E+02 -0.10273456894E+03  0.12330227438E+03  0.00000000000E+00 0.  1.
        -11    1    4    4    0    0 -0.33363393433E+02  0.70862310367E+02 -0.21957873774E+03  0.23312958868E+03  0.00000000000E+00 0. -1.
         11    1    4    4    0    0  0.10401115244E+02 -0.23236647891E+02 -0.88720886367E+02  0.92301249619E+02  0.00000000000E+00 0.  1.
         21    1    1    2  502  501 -0.91903434197E+01  0.49447211411E+02  0.20593470751E+02  0.54346850562E+02  0.00000000000E+00 0.  1.
<scales pt_clust_5="13000.00000" pt_clust_6="13000.00000" pt_clust_7="13000.00000" pt_clust_8="13000.00000" pt_clust_9="50.29403"></scales>
<clustering>
<clus scale="   50.294">  1  9  2 -1</clus>
<clus scale="   80.520">  5  6 -1 -1</clus>
<clus scale="   89.784">  7  8 -1 -1</clus>
<clus scale="  105.843">  1  5  2 -1</clus>
<clus scale="  113.050">  2  5  1 -1</clus>
</clustering>
</event>
<event>
 9    1  0.6106093E-005  0.1425657E+03  0.7546771E-02  0.1211735E+00
          3   -1    0    0  502    0  0.00000000000E+00  0.00000000000E+00  0.22477005255E+03  0.22477005255E+03  0.00000000000E+00 0. -1.
         -4   -1    0    0    0  501 -0.00000000000E+00 -0.00000000000E+00 -0.10613461608E+03  0.10613461608E+03  0.00000000000E+00 0.  1.
        -24    2    1    2    0    0  0.10613279667E+03 -0.44220776779E+02  0.34389634051E+02  0.14477320209E+03  0.80975215260E+02 0.  0.
         23    2    1    2    0    0 -0.89775156064E+02  0.60922475371E+02  0.81095970906E+02  0.16254247376E+03  0.89846383493E+02 0.  0.
         11    1    3    3    0    0  0.73736879535E+02 -0.27357318733E+02  0.61044284166E+02  0.99558801324E+02  0.00000000000E+00 0. -1.
        -12    1    3    3    0    0  0.32395917134E+02 -0.16863458046E+02 -0.26654650114E+02  0.45214400770E+02  0.00000000000E+00 0.  1.
        -11    1    4    4    0    0 -0.30490957177E+02  0.27253165519E+02  0.84923342329E+02  0.94257135394E+02  0.00000000000E+00 0. -1.
         11    1    4    4    0    0 -0.59284198887E+02  0.33669309852E+02 -0.38273714231E+01  0.68285338365E+02  0.00000000000E+00 0.  1.
         21    1    1    2  502  501 -0.16357640605E+02 -0.16701698592E+02  0.31498315116E+01  0.23588992785E+02  0.00000000000E+00 0.  1.
<scales pt_clust_5="13000.00000" pt_clust_6="13000.00000" pt_clust_7="13000.00000" pt_clust_8="13000.00000" pt_clust_9="23.37775"></scales>
<clustering>
<clus scale="   23.378">  2  9  1 -1</clus>
<clus scale="   80.975">  5  6 -1 -1</clus>
<clus scale="   89.846">  7  8 -1 -1</clus>
<clus scale="  137.148">  2  5  1 -1</clus>
<clus scale="  142.566">  1  5  2 -1</clus>
</clustering>
</event>
<event>
 9    1  0.6106093E-005  0.9848240E+02  0.7546771E-02  0.1293331E+00
          1   -1    0    0  502    0  0.00000000000E+00  0.00000000000E+00  0.47109405886E+03  0.47109405886E+03  0.00000000000E+00 0. -1.
         -2   -1    0    0    0  501 -0.00000000000E+00 -0.00000000000E+00 -0.46609381476E+02  0.46609381476E+02  0.00000000000E+00 0.  1.
        -24    2    1    2    0    0 -0.16843323350E+02 -0.13298747669E+01  0.25300083624E+02  0.86193530081E+02  0.80645919228E+02 0.  0.
         23    2    1    2    0    0 -0.79778250053E+01 -0.46580968938E+02  0.29367175124E+03  0.31300042419E+03  0.97430671295E+02 0.  0.
         13    1    3    3    0    0 -0.22055921380E+02 -0.18658495444E+02 -0.21503264769E+02  0.36013796188E+02  0.00000000000E+00 0. -1.
        -14    1    3    3    0    0  0.52125980302E+01  0.17328620677E+02  0.46803348393E+02  0.50179733893E+02  0.00000000000E+00 0.  1.
        -13    1    4    4    0    0 -0.44193113986E+02  0.74049668918E+00  0.82646209150E+02  0.93722865652E+02  0.00000000000E+00 0.  1.
         13    1    4    4    0    0  0.36215288980E+02 -0.47321465628E+02  0.21102554209E+03  0.21927755854E+03  0.00000000000E+00 0. -1.
         21    1    1    2  502  501  0.24821148355E+02  0.47910843705E+02  0.10551284253E+03  0.11850948607E+03  0.00000000000E+00 0. -1.
<scales pt_clust_5="13000.00000" pt_clust_6="13000.00000" pt_clust_7="13000.00000" pt_clust_8="13000.00000" pt_clust_9="53.95867"></scales>
<clustering>
<clus scale="   53.959">  1  9  2 -1</clus>
<clus scale="   80.646">  5  6 -1 -1</clus>
<clus scale="   81.913">  2  5  1 -1</clus>
<clus scale="   97.431">  7  8 -1 -1</clus>
<clus scale="   53.959">  1  5  2 -1</clus>
</clustering>
</event>
<event>
 9    1  0.6106093E-005  0.1015961E+03  0.7546771E-02  0.1281922E+00
         -4   -1    0    0    0  501 -0.00000000000E+00  0.00000000000E+00  0.43751649572E+02  0.43751649572E+02  0.00000000000E+00 0.  1.
          3   -1    0    0  502    0  0.00000000000E+00 -0.00000000000E+00 -0.72169427944E+03  0.72169427944E+03  0.00000000000E+00 0. -1.
        -24    2    1    2    0    0  0.29050682117E+02  0.21633923149E+02 -0.63449826748E+02  0.10816202690E+03  0.79756973281E+02 0.  0.
         23    2    1    2    0    0 -0.11347459443E+03 -0.58239578250E+00 -0.41696845910E+03  0.44144500327E+03  0.90189646067E+02 0.  0.
         13    1    3    3    0    0 -0.19639145095E+02  0.29556477101E+02 -0.40216758641E+02  0.53634588041E+02  0.00000000000E+00 0. -1.
        -14    1    3    3    0    0  0.48689827212E+02 -0.79225539520E+01 -0.23233068106E+02  0.54527438861E+02  0.00000000000E+00 0.  1.
        -11    1    4    4    0    0 -0.48819909962E+02  0.18330217721E+02 -0.66229124270E+02  0.84295180123E+02  0.00000000000E+00 0.  1.
         11    1    4    4    0    0 -0.64654684465E+02 -0.18912613504E+02 -0.35073933483E+03  0.35714982314E+03  0.00000000000E+00 0. -1.
         21    1    1    2  502  501  0.84423912310E+02 -0.21051527366E+02 -0.19752434402E+03  0.21583889884E+03  0.00000000000E+00 0.  1.
<scales pt_clust_5="13000.00000" pt_clust_6="13000.00000" pt_clust_7="13000.00000" pt_clust_8="13000.00000" pt_clust_9="87.00899"></scales>
<clustering>
<clus scale="   79.757">  5  6 -1 -1</clus>
<clus scale="   87.009">  2  9  1 -1</clus>
<clus scale="   90.190">  7  8 -1 -1</clus>
<clus scale="   92.460">  1  5  2 -1</clus>
<clus scale="   87.009">  2  5  1 -1</clus>
</clustering>
</event>
<event>
 9    1  0.6106093E-005  0.1826081E+03  0.7546771E-02  0.1183823E+00
          1   -1    0    0  502    0  0.00000000000E+00  0.00000000000E+00  0.83073855375E+03  0.83073855375E+03  0.00000000000E+00 0. -1.
         -2   -1    0    0    0  501 -0.00000000000E+00 -0.00000000000E+00 -0.13786952087E+03  0.13786952087E+03  0.00000000000E+00 0.  1.
         23    2    1    2    0    0  0.44983648466E+01 -0.79283911874E+02 -0.52795735367E+02  0.13105187339E+03  0.89894548649E+02 0.  0.
        -24    2    1    2    0    0  0.79851741329E+02  0.16884479705E+03  0.65170835768E+03  0.68275342460E+03  0.80892454805E+02 0.  0.
         13    1    4    4    0    0  0.76808850221E+02  0.16619301517E+03  0.65325880887E+03  0.67842964936E+03  0.00000000000E+00 0. -1.
        -14    1    4    4    0    0  0.30428911080E+01  0.26517818793E+01 -0.15504511881E+01  0.43237752390E+01  0.00000000000E+00 0.  1.
        -11    1    3    3    0    0  0.40511698587E+02 -0.24704660268E+02 -0.71413971058E+00  0.47455536630E+02  0.00000000000E+00 0. -1.
         11    1    3    3    0    0 -0.36013333740E+02 -0.54579251606E+02 -0.52081595657E+02  0.83596336757E+02  0.00000000000E+00 0.  1.
         21    1    1    2  502  501 -0.84350106176E+02 -0.89560885177E+02  0.93956410573E+02  0.15480277663E+03  0.00000000000E+00 0.  1.
<scales pt_clust_5="13000.00000" pt_clust_6="13000.00000" pt_clust_7="13000.00000" pt_clust_8="13000.00000" pt_clust_9="163.71351"></scales>
<clustering>
<clus scale="   80.892">  5  6 -1 -1</clus>
<clus scale="   89.895">  7  8 -1 -1</clus>
<clus scale="  119.947">  2  7  1 -1</clus>
<clus scale="  163.714">  2  9  1 -1</clus>
<clus scale="  182.608">  1  5  2 -1</clus>
</clustering>
</event>
<event>
 9    1  0.6106093E-005  0.1737000E+03  0.7546771E-02  0.1175582E+00
          1   -1    0    0  502    0  0.00000000000E+00  0.00000000000E+00  0.71805338876E+03  0.71805338876E+03  0.00000000000E+00 0. -1.
         -2   -1    0    0    0  501 -0.00000000000E+00 -0.00000000000E+00 -0.85425662404E+02  0.85425662404E+02  0.00000000000E+00 0.  1.
        -24    2    1    2    0    0 -0.30890937605E+02  0.13176211490E+03  0.32660201400E+02  0.16060647396E+03  0.80076499511E+02 0.  0.
         23    2    1    2    0    0  0.19158438530E+01 -0.15044836855E+03  0.57176089515E+03  0.59832657740E+03  0.91900979017E+02 0.  0.
         11    1    3    3    0    0 -0.38943102668E+02  0.29851260071E+02  0.31618168315E+02  0.58372695165E+02  0.00000000000E+00 0. -1.
        -12    1    3    3    0    0  0.80521650631E+01  0.10191085483E+03  0.10420330847E+01  0.10223377879E+03  0.00000000000E+00 0.  1.
        -11    1    4    4    0    0  0.32974999242E+02 -0.60918119095E+02  0.13890940461E+03  0.15522303469E+03  0.00000000000E+00 0.  1.
         11    1    4    4    0    0 -0.31059155389E+02 -0.89530249455E+02  0.43285149053E+03  0.44310354270E+03  0.00000000000E+00 0. -1.
         21    1    1    2  502  501  0.28975093752E+02  0.18686253654E+02  0.28206629806E+02  0.44545999804E+02  0.00000000000E+00 0. -1.
<scales pt_clust_5="13000.00000" pt_clust_6="13000.00000" pt_clust_7="13000.00000" pt_clust_8="13000.00000" pt_clust_9="34.47799"></scales>
<clustering>
<clus scale="   34.478">  2  9  1 -1</clus>
<clus scale="   80.076">  5  6 -1 -1</clus>
<clus scale="   91.901">  7  8 -1 -1</clus>
<clus scale="  167.744">  2  5  1 -1</clus>
<clus scale="  173.700">  1  5  2 -1</clus>
</clustering>
</event>
<event>
 9    1  0.6106093E-005  0.1099462E+03  0.7546771E-02  0.1262520E+00
          1   -1    0    0  502    0  0.00000000000E+00  0.00000000000E+00  0.28869332129E+03  0.28869332129E+03  0.00000000000E+00 0. -1.
         -2   -1    0    0    0  501 -0.00000000000E+00 -0.00000000000E+00 -0.59481105934E+02  0.59481105934E+02  0.00000000000E+00 0.  1.
        -24    2    1    2    0    0  0.65221715748E+02  0.52764102699E+02  0.88632435841E+02  0.14760439219E+03  0.83026653382E+02 0.  0.
         23    2    1    2    0    0 -0.47757730946E+02 -0.28082523625E+02  0.13404240879E+03  0.16963610016E+03  0.87975053998E+02 0.  0.
         13    1    3    3    0    0  0.44640659732E+02  0.73188964905E+01  0.86566247841E+02  0.97673281978E+02  0.00000000000E+00 0. -1.
        -14    1    3    3    0    0  0.20581056016E+02  0.45445206209E+02  0.20661879999E+01  0.49931110211E+02  0.00000000000E+00 0.  1.
        -13    1    4    4    0    0 -0.69349440197E+02 -0.15754112259E+01  0.82519089024E+02  0.10780179419E+03  0.00000000000E+00 0. -1.
         13    1    4    4    0    0  0.21591709251E+02 -0.26507112399E+02  0.51523319762E+02  0.61834305975E+02  0.00000000000E+00 0.  1.
         21    1    1    2  502  501 -0.17463984802E+02 -0.24681579074E+02  0.65373707294E+01  0.30933934874E+02  0.00000000000E+00 0. -1.
<scales pt_clust_5="13000.00000" pt_clust_6="13000.00000" pt_clust_7="13000.00000" pt_clust_8="13000.00000" pt_clust_9="30.23526"></scales>
<clustering>
<clus scale="   30.235">  2  9  1 -1</clus>
<clus scale="   83.027">  5  6 -1 -1</clus>
<clus scale="   87.975">  7  8 -1 -1</clus>
<clus scale="  106.028">  2  5  1 -1</clus>
<clus scale="  109.946">  1  5  2 -1</clus>
</clustering>
</event>
<event>
 9    1  0.6106093E-005  0.2491639E+03  0.7546771E-02  0.1114592E+00
          1   -1    0    0  502    0  0.00000000000E+00  0.00000000000E+00  0.37763371522E+03  0.37763371522E+03  0.00000000000E+00 0. -1.
         -2   -1    0    0    0  501 -0.00000000000E+00 -0.00000000000E+00 -0.23103538426E+03  0.23103538426E+03  0.00000000000E+00 0.  1.
         23    2    1    2    0    0  0.21710974399E+03 -0.18207618226E+02  0.19223661098E+02  0.23778340017E+03  0.93291146166E+02 0.  0.
        -24    2    1    2    0    0 -0.23703993076E+03  0.29286160820E+02  0.18265236559E+03  0.31108962841E+03  0.79807657873E+02 0.  0.
         11    1    4    4    0    0 -0.91642653466E+02  0.41358549994E+02  0.10669379375E+03  0.14660310780E+03  0.00000000000E+00 0. -1.
        -12    1    4    4    0    0 -0.14539727729E+03 -0.12072389174E+02  0.75958571844E+02  0.16448652061E+03  0.00000000000E+00 0.  1.
        -13    1    3    3    0    0  0.47140598675E+02 -0.22972011668E+01  0.44910412397E+02  0.65149507429E+02  0.00000000000E+00 0. -1.
         13    1    3    3    0    0  0.16996914532E+03 -0.15910417059E+02 -0.25686751299E+02  0.17263389274E+03  0.00000000000E+00 0.  1.
         21    1    1    2  502  501  0.19930186770E+02 -0.11078542595E+02 -0.55277695728E+02  0.59796070905E+02  0.00000000000E+00 0.  1.
<scales pt_clust_5="13000.00000" pt_clust_6="13000.00000" pt_clust_7="13000.00000" pt_clust_8="13000.00000" pt_clust_9="22.80233"></scales>
<clustering>
<clus scale="   22.802">  2  9  1 -1</clus>
<clus scale="   79.808">  5  6 -1 -1</clus>
<clus scale="   93.291">  7  8 -1 -1</clus>
<clus scale="  244.435">  1  5  2 -1</clus>
<clus scale="  244.435">  1  5  2 -1</clus>
</clustering>
</event>
<event>
 9    1  0.6106093E-005  0.1002640E+03  0.7546771E-02  0.1284553E+00
          1   -1    0    0  502    0  0.00000000000E+00  0.00000000000E+00  0.20538516809E+03  0.20538516809E+03  0.00000000000E+00 0. -1.
         -2   -1    0    0    0  501 -0.00000000000E+00 -0.00000000000E+00 -0.18533087056E+03  0.18533087056E+03  0.00000000000E+00 0.  1.
         23    2    1    2    0    0  0.18446254773E+02 -0.18189349464E+02 -0.65697341882E+02  0.11550444483E+03  0.91400324374E+02 0.  0.
        -24    2    1    2    0    0 -0.31075700902E+02 -0.35541561357E+02  0.15815346421E+03  0.18417018609E+03  0.81714364910E+02 0.  0.
         11    1    4    4    0    0 -0.96993637600E+01 -0.60155003563E+02  0.11430044798E+03  0.12952719606E+03  0.00000000000E+00 0. -1.
        -12    1    4    4    0    0 -0.21376337142E+02  0.24613442206E+02  0.43853016223E+02  0.54642990023E+02  0.00000000000E+00 0.  1.
        -13    1    3    3    0    0  0.33234530456E+02 -0.48334196167E+02 -0.27924492976E+02  0.64965420353E+02  0.00000000000E+00 0. -1.
         13    1    3    3    0    0 -0.14788275683E+02  0.30144846703E+02 -0.37772848906E+02  0.50539024475E+02  0.00000000000E+00 0.  1.
         21    1    1    2  502  501  0.12629446129E+02  0.53730910821E+02 -0.72401824802E+02  0.91041407732E+02  0.00000000000E+00 0.  1.
<scales pt_clust_5="13000.00000" pt_clust_6="13000.00000" pt_clust_7="13000.00000" pt_clust_8="13000.00000" pt_clust_9="55.19523"></scales>
<clustering>
<clus scale="   55.195">  2  9  1 -1</clus>
<clus scale="   81.714">  5  6 -1 -1</clus>
<clus scale="   91.400">  7  8 -1 -1</clus>
<clus scale="   91.521">  1  5  2 -1</clus>
<clus scale="   91.521">  1  5  2 -1</clus>
</clustering>
</event>
<event>
 9    1  0.6106093E-005  0.1042679E+03  0.7546771E-02  0.1274392E+00
         -2   -1    0    0    0  501 -0.00000000000E+00  0.00000000000E+00  0.16426605994E+03  0.16426605994E+03  0.00000000000E+00 0.  1.
          1   -1    0    0  502    0  0.00000000000E+00 -0.00000000000E+00 -0.10875014883E+03  0.10875014883E+03  0.00000000000E+00 0. -1.
        -24    2    1    2    0    0  0.47930730552E+02  0.59516650352E+02  0.66524673671E+02  0.12894111606E+03  0.79753950395E+02 0.  0.
         23    2    1    2    0    0 -0.30180999927E+02 -0.42047873072E+02 -0.37660044454E+02  0.10759904655E+03  0.86489071473E+02 0.  0.
         11    1    3    3    0    0  0.21612278995E+02  0.39678606247E+02 -0.94192226700E+01  0.46154134731E+02  0.00000000000E+00 0. -1.
        -12    1    3    3    0    0  0.26318451557E+02  0.19838044105E+02  0.75943896341E+02  0.82786981330E+02  0.00000000000E+00 0.  1.
        -13    1    4    4    0    0 -0.36829180508E+02  0.78751816406E+01 -0.42756240382E+02  0.56978093284E+02  0.00000000000E+00 0. -1.
         13    1    4    4    0    0  0.66481805806E+01 -0.49923054712E+02  0.50961959277E+01  0.50620953268E+02  0.00000000000E+00 0.  1.
         21    1    1    2  502  501 -0.17749730625E+02 -0.17468777280E+02  0.26651281892E+02  0.36476046159E+02  0.00000000000E+00 0. -1.
<scales pt_clust_5="13000.00000" pt_clust_6="13000.00000" pt_clust_7="13000.00000" pt_clust_8="13000.00000" pt_clust_9="24.90404"></scales>
<clustering>
<clus scale="   24.904">  1  9  2 -1</clus>
<clus scale="   79.754">  5  6 -1 -1</clus>
<clus scale="   86.489">  7  8 -1 -1</clus>
<clus scale="   98.753">  1  5  2 -1</clus>
<clus scale="  104.268">  2  5  1 -1</clus>
</clustering>
</event>
<event>
 9    1  0.6106093E-005  0.1424399E+03  0.7546771E-02  0.1212592E+00
          1   -1    0    0  502    0  0.00000000000E+00  0.00000000000E+00  0.54050715570E+02  0.54050715570E+02  0.00000000000E+00 0. -1.
         -2   -1    0    0    0  501 -0.00000000000E+00 -0.00000000000E+00 -0.75354009584E+03  0.75354009584E+03  0.00000000000E+00 0.  1.
        -24    2    1    2    0    0 -0.72398623925E+02 -0.65230486018E+02 -0.49089726264E+03  0.50650658884E+03  0.77924482809E+02 0.  0.
         23    2    1    2    0    0  0.96054200362E+02  0.60531944767E+02 -0.71073039922E+02  0.16146631784E+03  0.90163568302E+02 0.  0.
         13    1    3    3    0    0 -0.31754416136E+02  0.14547959811E+02 -0.15437847484E+03  0.15828044596E+03  0.00000000000E+00 0. -1.
        -14    1    3    3    0    0 -0.40644207789E+02 -0.79778445829E+02 -0.33651878780E+03  0.34822614288E+03  0.00000000000E+00 0.  1.
        -13    1    4    4    0    0  0.73248640026E+02 -0.20537727769E+01 -0.15923058563E+02  0.74987499240E+02  0.00000000000E+00 0. -1.
         13    1    4    4    0    0  0.22805560336E+02  0.62585717544E+02 -0.55149981359E+02  0.86478818601E+02  0.00000000000E+00 0.  1.
         21    1    1    2  502  501 -0.23655576437E+02  0.46985412514E+01 -0.13751907770E+03  0.13961790472E+03  0.00000000000E+00 0. -1.
<scales pt_clust_5="13000.00000" pt_clust_6="13000.00000" pt_clust_7="13000.00000" pt_clust_8="13000.00000" pt_clust_9="24.11768"></scales>
<clustering>
<clus scale="   24.118">  2  9  1 -1</clus>
<clus scale="   77.924">  5  6 -1 -1</clus>
<clus scale="   90.164">  7  8 -1 -1</clus>
<clus scale="  135.026">  2  5  1 -1</clus>
<clus scale="  142.440">  1  5  2 -1</clus>
</clustering>
</event>
<event>
 9    1  0.6106093E-005  0.1475013E+03  0.7546771E-02  0.1205035E+00
          1   -1    0    0  502    0  0.00000000000E+00  0.00000000000E+00  0.17076617659E+03  0.17076617659E+03  0.00000000000E+00 0. -1.
         -2   -1    0    0    0  501 -0.00000000000E+00 -0.00000000000E+00 -0.22774181899E+03  0.22774181899E+03  0.00000000000E+00 0.  1.
         23    2    1    2    0    0 -0.23559108521E+02 -0.96330112366E+02 -0.11449540287E+03  0.17546740904E+03  0.88572525161E+02 0.  0.
        -24    2    1    2    0    0  0.47636003249E+02  0.11387636341E+03  0.94784532734E+02  0.17533072344E+03  0.80744906881E+02 0.  0.
         13    1    4    4    0    0  0.24572008262E+02 -0.26426485834E+01  0.23554560555E+01  0.24825699483E+02  0.00000000000E+00 0. -1.
        -14    1    4    4    0    0  0.23063994986E+02  0.11651901199E+03  0.92429076679E+02  0.15050502396E+03  0.00000000000E+00 0.  1.
        -13    1    3    3    0    0 -0.24130841157E+02  0.98935768590E+01 -0.15950240098E+02  0.30571073209E+02  0.00000000000E+00 0.  1.
         13    1    3    3    0    0  0.57173263578E+00 -0.10622368923E+03 -0.98545162768E+02  0.14489633583E+03  0.00000000000E+00 0. -1.
         21    1    1    2  502  501 -0.24076894728E+02 -0.17546251041E+02 -0.37264772267E+02  0.47709863104E+02  0.00000000000E+00 0. -1.
<scales pt_clust_5="13000.00000" pt_clust_6="13000.00000" pt_clust_7="13000.00000" pt_clust_8="13000.00000" pt_clust_9="29.79208"></scales>
<clustering>
<clus scale="   29.792">  2  9  1 -1</clus>
<clus scale="   80.745">  5  6 -1 -1</clus>
<clus scale="   88.573">  7  8 -1 -1</clus>
<clus scale="  142.938">  1  5  2 -1</clus>
<clus scale="  142.938">  1  5  2 -1</clus>
</clustering>
</event>
<event>
 9    1  0.6106093E-005  0.3524357E+03  0.7546771E-02  0.1112691E+00
         -2   -1    0    0    0  501 -0.00000000000E+00  0.00000000000E+00  0.37860103616E+03  0.37860103616E+03  0.00000000000E+00 0.  1.
          1   -1    0    0  502    0  0.00000000000E+00 -0.00000000000E+00 -0.14203807309E+04  0.14203807309E+04  0.00000000000E+00 0. -1.
         23    2    1    2    0    0  0.49821676697E+01 -0.96309910125E+01  0.92132547615E+02  0.12923651655E+03  0.89978291250E+02 0.  0.
        -24    2    1    2    0    0 -0.28244385530E+03 -0.19470248916E+03 -0.12557657503E+04  0.13042518353E+04  0.80259825611E+02 0.  0.
         13    1    4    4    0    0 -0.85057685242E+02 -0.10447088475E+03 -0.51727165347E+03  0.53452683662E+03  0.00000000000E+00 0. -1.
        -14    1    4    4    0    0 -0.19738617006E+03 -0.90231604409E+02 -0.73849409679E+03  0.76972499866E+03  0.00000000000E+00 0.  1.
        -13    1    3    3    0    0 -0.11762002790E+02 -0.37298274418E+02  0.88421969561E+02  0.96684800694E+02  0.00000000000E+00 0.  1.
         13    1    3    3    0    0  0.16744170460E+02  0.27667283405E+02  0.37105780546E+01  0.32551715852E+02  0.00000000000E+00 0. -1.
         21    1    1    2  502  501  0.27746168763E+03  0.20433348017E+03  0.12185350788E+03  0.36549341527E+03  0.00000000000E+00 0.  1.
<scales pt_clust_5="13000.00000" pt_clust_6="13000.00000" pt_clust_7="13000.00000" pt_clust_8="13000.00000" pt_clust_9="343.17524"></scales>
<clustering>
<clus scale="   80.260">  5  6 -1 -1</clus>
<clus scale="   89.978">  7  8 -1 -1</clus>
<clus scale="   90.629">  1  7  2 -1</clus>
<clus scale="  343.175">  1  9  2 -1</clus>
<clus scale="  352.436">  2  5  1 -1</clus>
</clustering>
</event>
<event>
 9    1  0.6106093E-005  0.9461484E+02  0.7546771E-02  0.1296812E+00
         -2   -1    0    0    0  501 -0.00000000000E+00  0.00000000000E+00  0.84588773870E+02  0.84588773870E+02  0.00000000000E+00 0.  1.
          1   -1    0    0  502    0  0.00000000000E+00 -0.00000000000E+00 -0.38000056295E+03  0.38000056295E+03  0.00000000000E+00 0. -1.
        -24    2    1    2    0    0  0.14765193394E+02 -0.16033631346E+02  0.37112359009E+02  0.93603936472E+02  0.83122087688E+02 0.  0.
         23    2    1    2    0    0 -0.64472267364E+01  0.59369917176E+02 -0.28922814410E+03  0.30916496521E+03  0.91453280854E+02 0.  0.
         13    1    3    3    0    0  0.28252782041E+02  0.27570622226E+02  0.23646102421E+02  0.46016269544E+02  0.00000000000E+00 0. -1.
        -14    1    3    3    0    0 -0.13487588647E+02 -0.43604253573E+02  0.13466256588E+02  0.47587666928E+02  0.00000000000E+00 0.  1.
        -13    1    4    4    0    0 -0.24222628764E+02 -0.33046090955E+01 -0.18362273423E+02  0.30574977854E+02  0.00000000000E+00 0.  1.
         13    1    4    4    0    0  0.17775402027E+02  0.62674526271E+02 -0.27086587067E+03  0.27858998736E+03  0.00000000000E+00 0. -1.
         21    1    1    2  502  501 -0.83179666578E+01 -0.43336285829E+02 -0.43296003998E+02  0.61820435141E+02  0.00000000000E+00 0.  1.
<scales pt_clust_5="13000.00000" pt_clust_6="13000.00000" pt_clust_7="13000.00000" pt_clust_8="13000.00000" pt_clust_9="44.12734"></scales>
<clustering>
<clus scale="   44.127">  2  9  1 -1</clus>
<clus scale="   83.122">  5  6 -1 -1</clus>
<clus scale="   86.588">  1  5  2 -1</clus>
<clus scale="   91.453">  7  8 -1 -1</clus>
<clus scale="   44.127">  2  5  1 -1</clus>
</clustering>
</event>
<event>
 9    1  0.6106093E-005  0.1251394E+03  0.7546771E-02  0.1238500E+00
         -2   -1    0    0    0  501 -0.00000000000E+00  0.00000000000E+00  0.10082099937E+03  0.10082099937E+03  0.00000000000E+00 0.  1.
          1   -1    0    0  502    0  0.00000000000E+00 -0.00000000000E+00 -0.31056224705E+03  0.31056224705E+03  0.00000000000E+00 0. -1.
        -24    2    1    2    0    0 -0.30719296611E+02  0.69002679565E+02  0.23568029051E+02  0.11194632135E+03  0.79192688419E+02 0.  0.
         23    2    1    2    0    0  0.55157949662E+02 -0.68115990244E+02 -0.24216113164E+03  0.27342943930E+03  0.91866517635E+02 0.  0.
         13    1    3    3    0    0  0.16564361209E+02  0.24210473153E+02 -0.18247668777E+02  0.34547105354E+02  0.00000000000E+00 0. -1.
        -14    1    3    3    0    0 -0.47283657819E+02  0.44792206412E+02  0.41815697827E+02  0.77399215996E+02  0.00000000000E+00 0.  1.
        -11    1    4    4    0    0 -0.14861394574E+02 -0.29292811965E+02 -0.22990954241E+02  0.40093813219E+02  0.00000000000E+00 0. -1.
         11    1    4    4    0    0  0.70019344236E+02 -0.38823178279E+02 -0.21917017740E+03  0.23333562608E+03  0.00000000000E+00 0.  1.
         21    1    1    2  502  501 -0.24438653051E+02 -0.88668932097E+00  0.88518549127E+01  0.26007485774E+02  0.00000000000E+00 0.  1.
<scales pt_clust_5="13000.00000" pt_clust_6="13000.00000" pt_clust_7="13000.00000" pt_clust_8="13000.00000" pt_clust_9="24.45473"></scales>
<clustering>
<clus scale="   24.455">  1  9  2 -1</clus>
<clus scale="   79.193">  5  6 -1 -1</clus>
<clus scale="   91.867">  7  8 -1 -1</clus>
<clus scale="  116.155">  1  5  2 -1</clus>
<clus scale="  125.139">  2  5  1 -1</clus>
</clustering>
</event>
<event>
 9    1  0.6106093E-005  0.1189426E+03  0.7546771E-02  0.1248433E+00
         -2   -1    0    0    0  501 -0.00000000000E+00  0.00000000000E+00  0.10671675841E+03  0.10671675841E+03  0.00000000000E+00 0.  1.
          1   -1    0    0  502    0  0.00000000000E+00 -0.00000000000E+00 -0.52746489354E+03  0.52746489354E+03  0.00000000000E+00 0. -1.
         23    2    1    2    0    0  0.52810222343E+02  0.76362618637E+02  0.33732481819E+01  0.13082788242E+03  0.92110731758E+02 0.  0.
        -24    2    1    2    0    0 -0.47487756573E+02 -0.56206193863E+02 -0.45393820459E+03  0.46697172819E+03  0.81169440603E+02 0.  0.
         13    1    4    4    0    0 -0.29416221800E+02 -0.38894788921E+02 -0.91616468980E+02  0.10378678191E+03  0.00000000000E+00 0. -1.
        -14    1    4    4    0    0 -0.18071534772E+02 -0.17311404943E+02 -0.36232173561E+03  0.36318494628E+03  0.00000000000E+00 0.  1.
        -13    1    3    3    0    0 -0.17747716482E+02  0.53851098598E+02  0.27290238562E+00  0.56700941229E+02  0.00000000000E+00 0. -1.
         13    1    3    3    0    0  0.70557938825E+02  0.22511520039E+02  0.31003457963E+01  0.74126941187E+02  0.00000000000E+00 0.  1.
         21    1    1    2  502  501 -0.53224657709E+01 -0.20156424774E+02  0.29816821273E+02  0.36382041344E+02  0.00000000000E+00 0.  1.
<scales pt_clust_5="13000.00000" pt_clust_6="13000.00000" pt_clust_7="13000.00000" pt_clust_8="13000.00000" pt_clust_9="20.84730"></scales>
<clustering>
<clus scale="   20.847">  1  9  2 -1</clus>
<clus scale="   81.169">  5  6 -1 -1</clus>
<clus scale="   92.111">  7  8 -1 -1</clus>
<clus scale="  110.686">  2  5  1 -1</clus>
<clus scale="  110.686">  2  5  1 -1</clus>
</clustering>
</event>
<event>
 9    1  0.6106093E-005  0.2276204E+03  0.7546771E-02  0.1129174E+00
         -2   -1    0    0    0  501 -0.00000000000E+00  0.00000000000E+00  0.12766731526E+03  0.12766731526E+03  0.00000000000E+00 0.  1.
          1   -1    0    0  502    0  0.00000000000E+00 -0.00000000000E+00 -0.95533736666E+03  0.95533736666E+03  0.00000000000E+00 0. -1.
        -24    2    1    2    0    0  0.64686239780E+02  0.20183142162E+03 -0.20088518559E+03  0.30261884010E+03  0.79391890169E+02 0.  0.
         23    2    1    2    0    0 -0.89672980722E+02 -0.18712741238E+03 -0.68160178493E+03  0.71837423216E+03  0.91774900064E+02 0.  0.
         11    1    3    3    0    0 -0.95372120919E+01  0.28945095189E+02 -0.60932334322E+02  0.68128748087E+02  0.00000000000E+00 0. -1.
        -12    1    3    3    0    0  0.74223451872E+02  0.17288632643E+03 -0.13995285127E+03  0.23449009201E+03  0.00000000000E+00 0.  1.
        -13    1    4    4    0    0 -0.24660640543E+02 -0.10652951981E+02 -0.30444777110E+02  0.40601933835E+02  0.00000000000E+00 0.  1.
         13    1    4    4    0    0 -0.65012340180E+02 -0.17647446039E+03 -0.65115700782E+03  0.67777229832E+03  0.00000000000E+00 0. -1.
         21    1    1    2  502  501  0.24986740942E+02 -0.14704009245E+02  0.54816919120E+02  0.62011609660E+02  0.00000000000E+00 0.  1.
<scales pt_clust_5="13000.00000" pt_clust_6="13000.00000" pt_clust_7="13000.00000" pt_clust_8="13000.00000" pt_clust_9="28.99216"></scales>
<clustering>
<clus scale="   28.992">  1  9  2 -1</clus>
<clus scale="   79.392">  5  6 -1 -1</clus>
<clus scale="   91.775">  7  8 -1 -1</clus>
<clus scale="  222.916">  1  5  2 -1</clus>
<clus scale="  227.620">  2  5  1 -1</clus>
</clustering>
</event>
<event>
 9    1  0.6106093E-005  0.1378581E+03  0.7546771E-02  0.1219626E+00
         -2   -1    0    0    0  501 -0.00000000000E+00  0.00000000000E+00  0.23032980289E+03  0.23032980289E+03  0.00000000000E+00 0.  1.
          1   -1    0    0  502    0  0.00000000000E+00 -0.00000000000E+00 -0.25726239032E+03  0.25726239032E+03  0.00000000000E+00 0. -1.
         23    2    1    2    0    0 -0.95519270595E+02  0.64401590398E+02  0.14395618705E+03  0.20700028340E+03  0.94096958688E+02 0.  0.
        -24    2    1    2    0    0  0.91250542692E+02 -0.39480582137E+02 -0.20305701399E+03  0.23967645646E+03  0.79544169735E+02 0.  0.
         11    1    4    4    0    0  0.58317980945E+02 -0.23635281731E+02 -0.19114758044E+03  0.20123869149E+03  0.00000000000E+00 0. -1.
        -12    1    4    4    0    0  0.32932561747E+02 -0.15845300406E+02 -0.11909433558E+02  0.38437764969E+02  0.00000000000E+00 0.  1.
        -13    1    3    3    0    0 -0.16416195808E+02  0.48246418222E+02  0.12083217805E+02  0.52375686235E+02  0.00000000000E+00 0. -1.
         13    1    3    3    0    0 -0.79103074788E+02  0.16155172176E+02  0.13187296925E+03  0.15462459716E+03  0.00000000000E+00 0.  1.
         21    1    1    2  502  501  0.42687279035E+01 -0.24921008261E+02  0.32168239506E+02  0.40915453359E+02  0.00000000000E+00 0. -1.
<scales pt_clust_5="13000.00000" pt_clust_6="13000.00000" pt_clust_7="13000.00000" pt_clust_8="13000.00000" pt_clust_9="25.28396"></scales>
<clustering>
<clus scale="   25.284">  1  9  2 -1</clus>
<clus scale="   79.544">  5  6 -1 -1</clus>
<clus scale="   94.097">  7  8 -1 -1</clus>
<clus scale="  128.366">  2  5  1 -1</clus>
<clus scale="  128.366">  2  5  1 -1</clus>
</clustering>
</event>
<event>
 9    1  0.6106093E-005  0.1252997E+03  0.7546771E-02  0.1243218E+00
         -2   -1    0    0    0  501 -0.00000000000E+00  0.00000000000E+00  0.16903081614E+03  0.16903081614E+03  0.00000000000E+00 0.  1.
          1   -1    0    0  502    0  0.00000000000E+00 -0.00000000000E+00 -0.28980282221E+03  0.28980282221E+03  0.00000000000E+00 0. -1.
         23    2    1    2    0    0 -0.60658796265E+02  0.53327740509E+02  0.77719621921E+02  0.14447232809E+03  0.91151393191E+02 0.  0.
        -24    2    1    2    0    0  0.38742694866E+02  0.56202453638E+02 -0.16864670160E+03  0.19874168147E+03  0.79980208758E+02 0.  0.
         13    1    4    4    0    0  0.38427751325E+02  0.43482055245E+01 -0.12537349607E+03  0.13120256278E+03  0.00000000000E+00 0. -1.
        -14    1    4    4    0    0  0.31494354121E+00  0.51854248113E+02 -0.43273205531E+02  0.67539118692E+02  0.00000000000E+00 0.  1.
        -13    1    3    3    0    0  0.11481432040E+01  0.58848494030E+02  0.46482084144E+02  0.75000317524E+02  0.00000000000E+00 0. -1.
         13    1    3    3    0    0 -0.61806939469E+02 -0.55207535205E+01  0.31237537777E+02  0.69472010568E+02  0.00000000000E+00 0.  1.
         21    1    1    2  502  501  0.21916101400E+02 -0.10953019415E+03 -0.29844926390E+02  0.11561962879E+03  0.00000000000E+00 0.  1.
<scales pt_clust_5="13000.00000" pt_clust_6="13000.00000" pt_clust_7="13000.00000" pt_clust_8="13000.00000" pt_clust_9="85.97349"></scales>
<clustering>
<clus scale="   79.980">  5  6 -1 -1</clus>
<clus scale="   91.151">  7  8 -1 -1</clus>
<clus scale="  105.150">  2  5  1 -1</clus>
<clus scale="   85.973">  2  9  1 -1</clus>
<clus scale="  105.150">  2  5  1 -1</clus>
</clustering>
</event>
<event>
 9    1  0.6106093E-005  0.9928725E+02  0.7546771E-02  0.1287964E+00
         -2   -1    0    0    0  501 -0.00000000000E+00  0.00000000000E+00  0.41222900138E+03  0.41222900138E+03  0.00000000000E+00 0.  1.
          1   -1    0    0  502    0  0.00000000000E+00 -0.00000000000E+00 -0.43045544385E+02  0.43045544385E+02  0.00000000000E+00 0. -1.
         23    2    1    2    0    0 -0.57740746143E+00  0.26754253238E+02  0.23184891036E+03  0.25051029620E+03  0.91023995740E+02 0.  0.
        -24    2    1    2    0    0  0.17895105957E+02 -0.39607915982E+02  0.29593588560E+02  0.94885983407E+02  0.78984476561E+02 0.  0.
         11    1    4    4    0    0 -0.13891515670E+02 -0.37675477562E+02 -0.12543785572E+02  0.42068543754E+02  0.00000000000E+00 0. -1.
        -12    1    4    4    0    0  0.31786621628E+02 -0.19324384204E+01  0.42137374132E+02  0.52817439653E+02  0.00000000000E+00 0.  1.
        -11    1    3    3    0    0  0.26507747415E+02  0.37981049508E+02  0.58087075733E+02  0.74292187759E+02  0.00000000000E+00 0. -1.
         11    1    3    3    0    0 -0.27085154876E+02 -0.11226796270E+02  0.17376183463E+03  0.17621810844E+03  0.00000000000E+00 0.  1.
         21    1    1    2  502  501 -0.17317698496E+02  0.12853662744E+02  0.10774095808E+03  0.10987826616E+03  0.00000000000E+00 0. -1.
<scales pt_clust_5="13000.00000" pt_clust_6="13000.00000" pt_clust_7="13000.00000" pt_clust_8="13000.00000" pt_clust_9="21.56663"></scales>
<clustering>
<clus scale="   21.567">  1  9  2 -1</clus>
<clus scale="   78.984">  5  6 -1 -1</clus>
<clus scale="   88.381">  2  5  1 -1</clus>
<clus scale="   91.024">  7  8 -1 -1</clus>
<clus scale="   88.381">  2  5  1 -1</clus>
</clustering>
</event>
<event>
 9    1  0.6106093E-005  0.1222105E+03  0.7546771E-02  0.1246456E+00
          1   -1    0    0  502    0  0.00000000000E+00  0.00000000000E+00  0.38246771836E+03  0.38246771836E+03  0.00000000000E+00 0. -1.
         -2   -1    0    0    0  501 -0.00000000000E+00 -0.00000000000E+00 -0.18905059411E+03  0.18905059411E+03  0.00000000000E+00 0.  1.
        -24    2    1    2    0    0  0.54257832800E+02 -0.22010964520E+02 -0.93542421072E+01  0.10004573004E+03  0.80580712791E+02 0.  0.
         23    2    1    2    0    0  0.10963194017E+01  0.79276074711E+02  0.31140394885E+03  0.33677138351E+03  0.10078019378E+03 0.  0.
         11    1    3    3    0    0  0.52216359252E+02  0.18596835970E+02  0.76874113721E+01  0.55959688842E+02  0.00000000000E+00 0. -1.
        -12    1    3    3    0    0  0.20414735476E+01 -0.40607800491E+02 -0.17041653479E+02  0.44086041195E+02  0.00000000000E+00 0.  1.
        -13    1    4    4    0    0 -0.20175403258E+02  0.19167657536E+02  0.11411404115E+02  0.30077668392E+02  0.00000000000E+00 0.  1.
         13    1    4    4    0    0  0.21271722660E+02  0.60108417175E+02  0.29999254473E+03  0.30669371512E+03  0.00000000000E+00 0. -1.
         21    1    1    2  502  501 -0.55354152201E+02 -0.57265110191E+02 -0.10863258249E+03  0.13470119892E+03  0.00000000000E+00 0.  1.
<scales pt_clust_5="13000.00000" pt_clust_6="13000.00000" pt_clust_7="13000.00000" pt_clust_8="13000.00000" pt_clust_9="79.64531"></scales>
<clustering>
<clus scale="   79.645">  2  9  1 -1</clus>
<clus scale="   80.581">  5  6 -1 -1</clus>
<clus scale="  100.780">  7  8 -1 -1</clus>
<clus scale="  106.170">  2  5  1 -1</clus>
<clus scale="  122.210">  1  5  2 -1</clus>
</clustering>
</event>
<event>
 9    1  0.6106093E-005  0.1509205E+03  0.7546771E-02  0.1203321E+00
          1   -1    0    0  502    0  0.00000000000E+00  0.00000000000E+00  0.40481799174E+03  0.40481799174E+03  0.00000000000E+00 0. -1.
         -2   -1    0    0    0  501 -0.00000000000E+00 -0.00000000000E+00 -0.13964093582E+03  0.13964093582E+03  0.00000000000E+00 0.  1.
        -24    2    1    2    0    0  0.67097869252E+02 -0.58512258416E+02 -0.57062634317E+02  0.13359923005E+03  0.81650484333E+02 0.  0.
         23    2    1    2    0    0 -0.79970452953E+02  0.83795635602E+02  0.34283760249E+03  0.37579937004E+03  0.10134378596E+03 0.  0.
         11    1    3    3    0    0  0.20645116537E+02 -0.13372363685E+02  0.20873555744E+02  0.32260599448E+02  0.00000000000E+00 0. -1.
        -12    1    3    3    0    0  0.46452752716E+02 -0.45139894731E+02 -0.77936190061E+02  0.10133863060E+03  0.00000000000E+00 0.  1.
        -13    1    4    4    0    0 -0.98940103274E+02  0.47000915628E+02  0.21288196440E+03  0.23940960898E+03  0.00000000000E+00 0. -1.
         13    1    4    4    0    0  0.18969650321E+02  0.36794719975E+02  0.12995563809E+03  0.13638976106E+03  0.00000000000E+00 0.  1.
         21    1    1    2  502  501  0.12872583701E+02 -0.25283377186E+02 -0.20597912256E+02  0.35060327471E+02  0.00000000000E+00 0.  1.
<scales pt_clust_5="13000.00000" pt_clust_6="13000.00000" pt_clust_7="13000.00000" pt_clust_8="13000.00000" pt_clust_9="28.37169"></scales>
<clustering>
<clus scale="   28.372">  2  9  1 -1</clus>
<clus scale="   81.650">  5  6 -1 -1</clus>
<clus scale="  101.344">  7  8 -1 -1</clus>
<clus scale="  138.467">  2  5  1 -1</clus>
<clus scale="  150.920">  1  5  2 -1</clus>
</clustering>
</event>
<event>
 9    1  0.6106093E-005  0.1184260E+03  0.7546771E-02  0.1249054E+00
         -2   -1    0    0    0  501 -0.00000000000E+00  0.00000000000E+00  0.65602639792E+02  0.65602639792E+02  0.00000000000E+00 0.  1.
          1   -1    0    0  502    0  0.00000000000E+00 -0.00000000000E+00 -0.46039598054E+03  0.46039598054E+03  0.00000000000E+00 0. -1.
        -24    2    1    2    0    0 -0.84844113193E+02  0.41320281081E+02 -0.72017052771E+02  0.14405561385E+03  0.81606830712E+02 0.  0.
         23    2    1    2    0    0  0.65073731173E+02 -0.25046397201E+02 -0.33449003169E+03  0.35378418738E+03  0.91748337494E+02 0.  0.
         11    1    3    3    0    0 -0.77437078573E+02  0.61685017305E+02 -0.71949167450E+02  0.12238555958E+03  0.00000000000E+00 0. -1.
        -12    1    3    3    0    0 -0.74070346200E+01 -0.20364736224E+02 -0.67885320690E-01  0.21670054263E+02  0.00000000000E+00 0.  1.
        -11    1    4    4    0    0  0.66291222363E+02  0.11674086329E+02 -0.28060607313E+03  0.28856641997E+03  0.00000000000E+00 0. -1.
         11    1    4    4    0    0 -0.12174911892E+01 -0.36720483530E+02 -0.53883958561E+02  0.65217767408E+02  0.00000000000E+00 0.  1.
         21    1    1    2  502  501  0.19770382019E+02 -0.16273883880E+02  0.11713743718E+02  0.28158819109E+02  0.00000000000E+00 0. -1.
<scales pt_clust_5="13000.00000" pt_clust_6="13000.00000" pt_clust_7="13000.00000" pt_clust_8="13000.00000" pt_clust_9="25.60678"></scales>
<clustering>
<clus scale="   25.607">  1  9  2 -1</clus>
<clus scale="   81.607">  5  6 -1 -1</clus>
<clus scale="   91.748">  7  8 -1 -1</clus>
<clus scale="  110.755">  1  5  2 -1</clus>
<clus scale="  118.426">  2  5  1 -1</clus>
</clustering>
</event>
<event>
 9    1  0.6106093E-005  0.9196420E+02  0.7546771E-02  0.1302986E+00
          1   -1    0    0  502    0  0.00000000000E+00  0.00000000000E+00  0.54328381041E+03  0.54328381041E+03  0.00000000000E+00 0. -1.
         -2   -1    0    0    0  501 -0.00000000000E+00 -0.00000000000E+00 -0.35295438279E+02  0.35295438279E+02  0.00000000000E+00 0.  1.
         23    2    1    2    0    0 -0.11939228507E+02  0.42309299742E+02  0.66663672150E+02  0.11933413836E+03  0.88679024417E+02 0.  0.
        -24    2    1    2    0    0  0.81279930593E+01 -0.19735371302E+02  0.41922420001E+03  0.42742467885E+03  0.80544255291E+02 0.  0.
         13    1    4    4    0    0  0.80755911058E+01 -0.49795440368E+02  0.20572539242E+03  0.21182006075E+03  0.00000000000E+00 0. -1.
        -14    1    4    4    0    0  0.52401953444E-01  0.30060069066E+02  0.21349880760E+03  0.21560461810E+03  0.00000000000E+00 0.  1.
        -11    1    3    3    0    0 -0.84962535780E+01 -0.24934394171E+02  0.27281412346E+01  0.26483071803E+02  0.00000000000E+00 0. -1.
         11    1    3    3    0    0 -0.34429749290E+01  0.67243693913E+02  0.63935530915E+02  0.92851066557E+02  0.00000000000E+00 0.  1.
         21    1    1    2  502  501  0.38112354477E+01 -0.22573928440E+02  0.22100499972E+02  0.31820431485E+02  0.00000000000E+00 0. -1.
<scales pt_clust_5="13000.00000" pt_clust_6="13000.00000" pt_clust_7="13000.00000" pt_clust_8="13000.00000" pt_clust_9="22.89340"></scales>
<clustering>
<clus scale="   22.893">  2  9  1 -1</clus>
<clus scale="   80.544">  5  6 -1 -1</clus>
<clus scale="   84.148">  1  5  2 -1</clus>
<clus scale="   88.679">  7  8 -1 -1</clus>
<clus scale="   84.148">  1  5  2 -1</clus>
</clustering>
</event>
<event>
 9    1  0.6106093E-005  0.1310122E+03  0.7546771E-02  0.1228169E+00
         -2   -1    0    0    0  501 -0.00000000000E+00  0.00000000000E+00  0.24527498791E+02  0.24527498791E+02  0.00000000000E+00 0.  1.
          1   -1    0    0  502    0  0.00000000000E+00 -0.00000000000E+00 -0.13509469691E+04  0.13509469691E+04  0.00000000000E+00 0. -1.
         23    2    1    2    0    0  0.95588329483E+01  0.73283525883E+02 -0.17576203295E+03  0.21179551392E+03  0.92212802999E+02 0.  0.
        -24    2    1    2    0    0  0.41237873981E+01 -0.97200172196E+02 -0.10837487306E+04  0.10913187777E+04  0.83668897368E+02 0.  0.
         13    1    4    4    0    0  0.21451997888E+02 -0.65372496458E+02 -0.35129859985E+03  0.35797270533E+03  0.00000000000E+00 0. -1.
        -14    1    4    4    0    0 -0.17328210490E+02 -0.31827675738E+02 -0.73245013072E+03  0.73334607234E+03  0.00000000000E+00 0.  1.
        -13    1    3    3    0    0  0.37362073272E+02  0.39153699522E+02 -0.15289233853E+03  0.16218817432E+03  0.00000000000E+00 0.  1.
         13    1    3    3    0    0 -0.27803240324E+02  0.34129826360E+02 -0.22869694413E+02  0.49607339603E+02  0.00000000000E+00 0. -1.
         21    1    1    2  502  501 -0.13682620346E+02  0.23916646314E+02 -0.66908706832E+02  0.72360176343E+02  0.00000000000E+00 0.  1.
<scales pt_clust_5="13000.00000" pt_clust_6="13000.00000" pt_clust_7="13000.00000" pt_clust_8="13000.00000" pt_clust_9="27.55395"></scales>
<clustering>
<clus scale="   27.554">  1  9  2 -1</clus>
<clus scale="   83.669">  5  6 -1 -1</clus>
<clus scale="   92.213">  7  8 -1 -1</clus>
<clus scale="  125.146">  2  5  1 -1</clus>
<clus scale="  125.146">  2  5  1 -1</clus>
</clustering>
</event>
<event>
 9    1  0.6106093E-005  0.9303524E+02  0.7546771E-02  0.1301670E+00
         -2   -1    0    0    0  501 -0.00000000000E+00  0.00000000000E+00  0.45247429642E+02  0.45247429642E+02  0.00000000000E+00 0.  1.
          1   -1    0    0  502    0  0.00000000000E+00 -0.00000000000E+00 -0.48380838846E+03  0.48380838846E+03  0.00000000000E+00 0. -1.
        -24    2    1    2    0    0  0.63513115120E+01 -0.21046800404E+02 -0.15642694506E+02  0.84384483330E+02  0.79954613190E+02 0.  0.
         23    2    1    2    0    0  0.20094322929E+02  0.37816750719E+02 -0.36973936525E+03  0.38295749419E+03  0.90085268982E+02 0.  0.
         13    1    3    3    0    0 -0.27440244773E+02 -0.35341353103E+02 -0.64822751534E+00  0.44748167239E+02  0.00000000000E+00 0. -1.
        -14    1    3    3    0    0  0.33791556285E+02  0.14294552699E+02 -0.14994466990E+02  0.39636316092E+02  0.00000000000E+00 0.  1.
        -13    1    4    4    0    0  0.53000107078E+02  0.18794730909E+02 -0.27845446085E+03  0.28407594060E+03  0.00000000000E+00 0.  1.
         13    1    4    4    0    0 -0.32905784149E+02  0.19022019810E+02 -0.91284904405E+02  0.98881553590E+02  0.00000000000E+00 0. -1.
         21    1    1    2  502  501 -0.26445634441E+02 -0.16769950315E+02 -0.53178899058E+02  0.61713840584E+02  0.00000000000E+00 0. -1.
<scales pt_clust_5="13000.00000" pt_clust_6="13000.00000" pt_clust_7="13000.00000" pt_clust_8="13000.00000" pt_clust_9="31.31458"></scales>
<clustering>
<clus scale="   31.315">  2  9  1 -1</clus>
<clus scale="   79.955">  5  6 -1 -1</clus>
<clus scale="   83.264">  1  5  2 -1</clus>
<clus scale="   90.085">  7  8 -1 -1</clus>
<clus scale="   31.315">  2  5  1 -1</clus>
</clustering>
</event>
<event>
 9    1  0.6106093E-005  0.1069150E+03  0.7546771E-02  0.1269351E+00
          1   -1    0    0  502    0  0.00000000000E+00  0.00000000000E+00  0.27801805223E+03  0.27801805223E+03  0.00000000000E+00 0. -1.
         -2   -1    0    0    0  501 -0.00000000000E+00 -0.00000000000E+00 -0.86039290506E+02  0.86039290506E+02  0.00000000000E+00 0.  1.
         23    2    1    2    0    0  0.52484121499E+02  0.55028580329E+02  0.19267961318E+01  0.11479993372E+03  0.85980140589E+02 0.  0.
        -24    2    1    2    0    0 -0.51841047586E+02 -0.32791659650E+02  0.20111254381E+03  0.22441328344E+03  0.78436466959E+02 0.  0.
         13    1    4    4    0    0 -0.42047249252E+02 -0.55298082382E+02  0.11039212741E+03  0.13043109629E+03  0.00000000000E+00 0. -1.
        -14    1    4    4    0    0 -0.97937983349E+01  0.22506422732E+02  0.90720416405E+02  0.93982187156E+02  0.00000000000E+00 0.  1.
        -11    1    3    3    0    0 -0.15590888663E+02  0.29463872033E+02  0.21284723349E+02  0.39550411028E+02  0.00000000000E+00 0. -1.
         11    1    3    3    0    0  0.68075010162E+02  0.25564708296E+02 -0.19357927218E+02  0.75249522689E+02  0.00000000000E+00 0.  1.
         21    1    1    2  502  501 -0.64307391258E+00 -0.22236920678E+02 -0.11060578218E+02  0.24844125580E+02  0.00000000000E+00 0. -1.
<scales pt_clust_5="13000.00000" pt_clust_6="13000.00000" pt_clust_7="13000.00000" pt_clust_8="13000.00000" pt_clust_9="22.24622"></scales>
<clustering>
<clus scale="   22.246">  2  9  1 -1</clus>
<clus scale="   78.436">  5  6 -1 -1</clus>
<clus scale="   85.980">  7  8 -1 -1</clus>
<clus scale="  100.948">  1  5  2 -1</clus>
<clus scale="  100.948">  1  5  2 -1</clus>
</clustering>
</event>
<event>
 9    1  0.6106093E-005  0.1102932E+03  0.7546771E-02  0.1264696E+00
         -2   -1    0    0    0  501 -0.00000000000E+00  0.00000000000E+00  0.39471915442E+02  0.39471915442E+02  0.00000000000E+00 0.  1.
          1   -1    0    0  502    0  0.00000000000E+00 -0.00000000000E+00 -0.66049967542E+03  0.66049967542E+03  0.00000000000E+00 0. -1.
         23    2    1    2    0    0 -0.21577574096E+02  0.44542803396E+02 -0.13206366425E+03  0.16754185796E+03  0.90442300470E+02 0.  0.
        -24    2    1    2    0    0  0.51972306666E+02 -0.44409926611E+02 -0.49106520241E+03  0.50196217518E+03  0.78406823982E+02 0.  0.
         13    1    4    4    0    0  0.41502621861E+02  0.29885847854E+01 -0.10640920033E+03  0.11425549079E+03  0.00000000000E+00 0. -1.
        -14    1    4    4    0    0  0.10469684806E+02 -0.47398511397E+02 -0.38465600208E+03  0.38770668439E+03  0.00000000000E+00 0.  1.
        -11    1    3    3    0    0  0.12098683795E+02  0.61736816841E+02 -0.99081119004E+02  0.11736643833E+03  0.00000000000E+00 0. -1.
         11    1    3    3    0    0 -0.33676257891E+02 -0.17194013445E+02 -0.32982545251E+02  0.50175419631E+02  0.00000000000E+00 0.  1.
         21    1    1    2  502  501 -0.30394732570E+02 -0.13287678454E+00  0.21011066903E+01  0.30467557722E+02  0.00000000000E+00 0. -1.
<scales pt_clust_5="13000.00000" pt_clust_6="13000.00000" pt_clust_7="13000.00000" pt_clust_8="13000.00000" pt_clust_9="30.39502"></scales>
<clustering>
<clus scale="   30.395">  1  9  2 -1</clus>
<clus scale="   78.407">  5  6 -1 -1</clus>
<clus scale="   90.442">  7  8 -1 -1</clus>
<clus scale="  100.660">  2  5  1 -1</clus>
<clus scale="  100.660">  2  5  1 -1</clus>
</clustering>
</event>
<event>
 9    1  0.6106093E-005  0.9823540E+02  0.7546771E-02  0.1290359E+00
         -2   -1    0    0    0  501 -0.00000000000E+00  0.00000000000E+00  0.17312813980E+03  0.17312813980E+03  0.00000000000E+00 0.  1.
          1   -1    0    0  502    0  0.00000000000E+00 -0.00000000000E+00 -0.20400728195E+03  0.20400728195E+03  0.00000000000E+00 0. -1.
        -24    2    1    2    0    0 -0.31173332273E+02  0.44524015522E+02  0.13269416075E+03  0.16418573599E+03  0.79969062775E+02 0.  0.
         23    2    1    2    0    0  0.25020662396E+02 -0.21852723728E+02 -0.16230815266E+03  0.18942430748E+03  0.91837120839E+02 0.  0.
         13    1    3    3    0    0  0.45827981510E+01  0.44546103305E+02  0.26275447281E+02  0.51920674961E+02  0.00000000000E+00 0. -1.
        -14    1    3    3    0    0 -0.35756130424E+02 -0.22087783170E-01  0.10641871347E+03  0.11226506103E+03  0.00000000000E+00 0.  1.
        -13    1    4    4    0    0  0.49506982229E+02  0.15991010534E+02 -0.97004743667E+02  0.11007531059E+03  0.00000000000E+00 0. -1.
         13    1    4    4    0    0 -0.24486319833E+02 -0.37843734262E+02 -0.65303408990E+02  0.79348996891E+02  0.00000000000E+00 0.  1.
         21    1    1    2  502  501  0.61526698769E+01 -0.22671291793E+02 -0.12651502356E+01  0.23525378282E+02  0.00000000000E+00 0.  1.
<scales pt_clust_5="13000.00000" pt_clust_6="13000.00000" pt_clust_7="13000.00000" pt_clust_8="13000.00000" pt_clust_9="23.49133"></scales>
<clustering>
<clus scale="   23.491">  1  9  2 -1</clus>
<clus scale="   79.969">  5  6 -1 -1</clus>
<clus scale="   87.242">  1  5  2 -1</clus>
<clus scale="   91.837">  7  8 -1 -1</clus>
<clus scale="   98.235">  2  5  1 -1</clus>
</clustering>
</event>
<event>
 9    1  0.6106093E-005  0.1728834E+03  0.7546771E-02  0.1177281E+00
          3   -1    0    0  502    0  0.00000000000E+00  0.00000000000E+00  0.17149080702E+03  0.17149080702E+03  0.00000000000E+00 0. -1.
         -4   -1    0    0    0  501 -0.00000000000E+00 -0.00000000000E+00 -0.72287051381E+03  0.72287051381E+03  0.00000000000E+00 0.  1.
        -24    2    1    2    0    0 -0.10859510668E+03 -0.55319830620E+02 -0.43935469066E+03  0.46221693195E+03  0.75886541159E+02 0.  0.
         23    2    1    2    0    0  0.14907495842E+03 -0.18283506369E+01  0.10426564156E+03  0.20479843746E+03  0.94044616448E+02 0.  0.
         13    1    3    3    0    0 -0.13892958908E+02  0.18104422698E+02 -0.91403469571E+02  0.94209228200E+02  0.00000000000E+00 0. -1.
        -14    1    3    3    0    0 -0.94702147770E+02 -0.73424253318E+02 -0.34795122109E+03  0.36800770376E+03  0.00000000000E+00 0.  1.
        -11    1    4    4    0    0  0.15217965497E+02 -0.32824597807E+02  0.80628582114E+01  0.37068185518E+02  0.00000000000E+00 0.  1.
         11    1    4    4    0    0  0.13385699293E+03  0.30996247170E+02  0.96202783348E+02  0.16773025195E+03  0.00000000000E+00 0. -1.
         21    1    1    2  502  501 -0.40479851747E+02  0.57148181257E+02 -0.21629065769E+03  0.22734595141E+03  0.00000000000E+00 0. -1.
<scales pt_clust_5="13000.00000" pt_clust_6="13000.00000" pt_clust_7="13000.00000" pt_clust_8="13000.00000" pt_clust_9="70.03237"></scales>
<clustering>
<clus scale="   70.032">  2  9  1 -1</clus>
<clus scale="   75.887">  5  6 -1 -1</clus>
<clus scale="   94.045">  7  8 -1 -1</clus>
<clus scale="  163.716">  2  5  1 -1</clus>
<clus scale="  172.883">  1  5  2 -1</clus>
</clustering>
</event>
<event>
 9    1  0.6106093E-005  0.1295940E+03  0.7546771E-02  0.1229883E+00
         -2   -1    0    0    0  501 -0.00000000000E+00  0.00000000000E+00  0.49803648643E+03  0.49803648643E+03  0.00000000000E+00 0.  1.
          1   -1    0    0  502    0  0.00000000000E+00 -0.00000000000E+00 -0.61705716688E+02  0.61705716688E+02  0.00000000000E+00 0. -1.
         23    2    1    2    0    0  0.21749124471E+01 -0.62584623797E+02  0.23374552550E+03  0.25830732425E+03  0.90355617947E+02 0.  0.
        -24    2    1    2    0    0  0.17814217941E+02  0.10387750109E+03  0.52086164962E+02  0.14409880571E+03  0.83328360324E+02 0.  0.
         13    1    4    4    0    0  0.34825728028E+02  0.80232250514E+02  0.36036824158E+01  0.87538745034E+02  0.00000000000E+00 0. -1.
        -14    1    4    4    0    0 -0.17011510087E+02  0.23645250575E+02  0.48482482547E+02  0.56560060680E+02  0.00000000000E+00 0.  1.
        -11    1    3    3    0    0 -0.23604297446E+02 -0.48075315588E+02  0.21861639354E+03  0.22508115503E+03  0.00000000000E+00 0.  1.
         11    1    3    3    0    0  0.25779209893E+02 -0.14509308209E+02  0.15129131955E+02  0.33226169221E+02  0.00000000000E+00 0. -1.
         21    1    1    2  502  501 -0.19989130388E+02 -0.41292877291E+02  0.15049907928E+03  0.15733607315E+03  0.00000000000E+00 0. -1.
<scales pt_clust_5="13000.00000" pt_clust_6="13000.00000" pt_clust_7="13000.00000" pt_clust_8="13000.00000" pt_clust_9="45.87665"></scales>
<clustering>
<clus scale="   45.877">  1  9  2 -1</clus>
<clus scale="   83.328">  5  6 -1 -1</clus>
<clus scale="   90.356">  7  8 -1 -1</clus>
<clus scale="  124.796">  2  5  1 -1</clus>
<clus scale="  124.796">  2  5  1 -1</clus>
</clustering>
</event>
<event>
 9    1  0.6106093E-005  0.1092918E+03  0.7546771E-02  0.1262007E+00
         -2   -1    0    0    0  501 -0.00000000000E+00  0.00000000000E+00  0.82212125766E+02  0.82212125766E+02  0.00000000000E+00 0.  1.
          1   -1    0    0  502    0  0.00000000000E+00 -0.00000000000E+00 -0.41974779040E+03  0.41974779040E+03  0.00000000000E+00 0. -1.
        -24    2    1    2    0    0 -0.46015831338E+02  0.79773186477E+02 -0.41162069604E+02  0.13578281778E+03  0.90892461815E+02 0.  0.
         23    2    1    2    0    0  0.38996451560E+02 -0.38292174492E+02 -0.30520061836E+03  0.32319032846E+03  0.91200642015E+02 0.  0.
         11    1    3    3    0    0 -0.48484756908E+02 -0.41464386207E+00 -0.88151868004E+01  0.49281346372E+02  0.00000000000E+00 0. -1.
        -12    1    3    3    0    0  0.24689255697E+01  0.80187830339E+02 -0.32346882803E+02  0.86501471404E+02  0.00000000000E+00 0.  1.
        -13    1    4    4    0    0 -0.89213084629E+01  0.18222040966E+02 -0.19876606568E+02  0.28402676112E+02  0.00000000000E+00 0.  1.
         13    1    4    4    0    0  0.47917760023E+02 -0.56514215458E+02 -0.28532401179E+03  0.29478765235E+03  0.00000000000E+00 0. -1.
         21    1    1    2  502  501  0.70193797783E+01 -0.41481011985E+02  0.88270233286E+01  0.42986769926E+02  0.00000000000E+00 0.  1.
<scales pt_clust_5="13000.00000" pt_clust_6="13000.00000" pt_clust_7="13000.00000" pt_clust_8="13000.00000" pt_clust_9="42.07073"></scales>
<clustering>
<clus scale="   42.071">  1  9  2 -1</clus>
<clus scale="   90.892">  5  6 -1 -1</clus>
<clus scale="   91.201">  7  8 -1 -1</clus>
<clus scale="  109.035">  1  5  2 -1</clus>
<clus scale="  109.292">  2  5  1 -1</clus>
</clustering>
</event>
<event>
 9    1  0.6106093E-005  0.8560760E+02  0.7546771E-02  0.1314626E+00
         -4   -1    0    0    0  501 -0.00000000000E+00  0.00000000000E+00  0.13852347913E+03  0.13852347913E+03  0.00000000000E+00 0.  1.
          3   -1    0    0  502    0  0.00000000000E+00 -0.00000000000E+00 -0.10178098336E+03  0.10178098336E+03  0.00000000000E+00 0. -1.
         23    2    1    2    0    0 -0.63042899440E+00 -0.38389815307E+02  0.75008348166E+02  0.11847432340E+03  0.83281076190E+02 0.  0.
        -24    2    1    2    0    0 -0.44828849174E+01  0.14776132761E+02 -0.47381555323E+02  0.96006738406E+02  0.82060049220E+02 0.  0.
         11    1    4    4    0    0  0.33365900155E+02  0.27084795252E+02 -0.18276190453E+02  0.46699984630E+02  0.00000000000E+00 0. -1.
        -12    1    4    4    0    0 -0.37848785072E+02 -0.12308662491E+02 -0.29105364870E+02  0.49306753776E+02  0.00000000000E+00 0.  1.
        -11    1    3    3    0    0  0.30210284376E+02 -0.49237884304E+02  0.56978567827E+02  0.81139310599E+02  0.00000000000E+00 0.  1.
         11    1    3    3    0    0 -0.30840713370E+02  0.10848068996E+02  0.18029780339E+02  0.37335012806E+02  0.00000000000E+00 0. -1.
         21    1    1    2  502  501  0.51133139118E+01  0.23613682546E+02  0.91157029274E+01  0.25823400675E+02  0.00000000000E+00 0.  1.
<scales pt_clust_5="13000.00000" pt_clust_6="13000.00000" pt_clust_7="13000.00000" pt_clust_8="13000.00000" pt_clust_9="24.16096"></scales>
<clustering>
<clus scale="   24.161">  1  9  2 -1</clus>
<clus scale="   82.060">  5  6 -1 -1</clus>
<clus scale="   83.281">  7  8 -1 -1</clus>
<clus scale="   84.420">  2  5  1 -1</clus>
<clus scale="   84.420">  2  5  1 -1</clus>
</clustering>
</event>
<event>
 9    1  0.6106093E-005  0.9220924E+02  0.7546771E-02  0.1304269E+00
          1   -1    0    0  502    0  0.00000000000E+00  0.00000000000E+00  0.65490560462E+03  0.65490560462E+03  0.00000000000E+00 0. -1.
         -2   -1    0    0    0  501 -0.00000000000E+00 -0.00000000000E+00 -0.25560649552E+02  0.25560649552E+02  0.00000000000E+00 0.  1.
         23    2    1    2    0    0  0.14246680532E+01 -0.11102694453E+02  0.13334821136E+03  0.16157412485E+03  0.90549173629E+02 0.  0.
        -24    2    1    2    0    0 -0.21294871503E+02 -0.12194315034E+01  0.48685228288E+03  0.49378673275E+03  0.79656974147E+02 0.  0.
         13    1    4    4    0    0 -0.40640464271E+02  0.26590159731E+02  0.29217849411E+03  0.29618736697E+03  0.00000000000E+00 0. -1.
        -14    1    4    4    0    0  0.19345592768E+02 -0.27809591234E+02  0.19467378876E+03  0.19759936578E+03  0.00000000000E+00 0.  1.
        -11    1    3    3    0    0  0.12880946101E+02 -0.38631851938E+02  0.21964982238E+02  0.46268771340E+02  0.00000000000E+00 0.  1.
         11    1    3    3    0    0 -0.11456278048E+02  0.27529157484E+02  0.11138322912E+03  0.11530535351E+03  0.00000000000E+00 0. -1.
         21    1    1    2  502  501  0.19870203450E+02  0.12322125957E+02  0.91444608329E+01  0.25105396574E+02  0.00000000000E+00 0.  1.
<scales pt_clust_5="13000.00000" pt_clust_6="13000.00000" pt_clust_7="13000.00000" pt_clust_8="13000.00000" pt_clust_9="23.38076"></scales>
<clustering>
<clus scale="   23.381">  2  9  1 -1</clus>
<clus scale="   79.657">  5  6 -1 -1</clus>
<clus scale="   81.539">  1  5  2 -1</clus>
<clus scale="   90.549">  7  8 -1 -1</clus>
<clus scale="   81.539">  1  5  2 -1</clus>
</clustering>
</event>
<event>
 9    1  0.6106093E-005  0.9159933E+02  0.7546771E-02  0.1300391E+00
          1   -1    0    0  502    0  0.00000000000E+00  0.00000000000E+00  0.40286861525E+03  0.40286861525E+03  0.00000000000E+00 0. -1.
         -2   -1    0    0    0  501 -0.00000000000E+00 -0.00000000000E+00 -0.10367604521E+03  0.10367604521E+03  0.00000000000E+00 0.  1.
         23    2    1    2    0    0  0.31209035752E+02 -0.28004745192E+02 -0.61639463865E+02  0.11160874622E+03  0.83059129910E+02 0.  0.
        -24    2    1    2    0    0 -0.22422897133E+01 -0.10271084830E+02  0.32510827780E+03  0.33510032040E+03  0.80537627199E+02 0.  0.
         13    1    4    4    0    0 -0.36700187940E+02  0.80237471661E+01  0.21563852518E+03  0.21888640400E+03  0.00000000000E+00 0. -1.
        -14    1    4    4    0    0  0.34457898227E+02 -0.18294831996E+02  0.10946975261E+03  0.11621391640E+03  0.00000000000E+00 0.  1.
        -11    1    3    3    0    0  0.49790301847E+02  0.31355474093E+01 -0.55848966019E+02  0.74886666510E+02  0.00000000000E+00 0.  1.
         11    1    3    3    0    0 -0.18581266094E+02 -0.31140292601E+02 -0.57904978453E+01  0.36722079710E+02  0.00000000000E+00 0. -1.
         21    1    1    2  502  501 -0.28966746039E+02  0.38275830022E+02  0.35723756105E+02  0.59835593840E+02  0.00000000000E+00 0. -1.
<scales pt_clust_5="13000.00000" pt_clust_6="13000.00000" pt_clust_7="13000.00000" pt_clust_8="13000.00000" pt_clust_9="48.00116"></scales>
<clustering>
<clus scale="   48.001">  1  9  2 -1</clus>
<clus scale="   80.538">  5  6 -1 -1</clus>
<clus scale="   83.059">  7  8 -1 -1</clus>
<clus scale="   89.319">  1  5  2 -1</clus>
<clus scale="   48.001">  1  5  2 -1</clus>
</clustering>
</event>
<event>
 9    1  0.6106093E-005  0.1770792E+03  0.7546771E-02  0.1183932E+00
         -2   -1    0    0    0  501 -0.00000000000E+00  0.00000000000E+00  0.10974881047E+04  0.10974881047E+04  0.00000000000E+00 0.  1.
          1   -1    0    0  502    0  0.00000000000E+00 -0.00000000000E+00 -0.27111852245E+03  0.27111852245E+03  0.00000000000E+00 0. -1.
        -24    2    1    2    0    0  0.31503309694E+02  0.10091946623E+03 -0.17535273924E+03  0.22039660847E+03  0.81540693384E+02 0.  0.
         23    2    1    2    0    0  0.95905560963E+02 -0.50589422263E+01 -0.26661369351E+01  0.13124471161E+03  0.89412507625E+02 0.  0.
         13    1    3    3    0    0  0.27706425360E+02  0.35007821729E+01 -0.12510465586E+02  0.30600869779E+02  0.00000000000E+00 0. -1.
        -14    1    3    3    0    0  0.37968843339E+01  0.97418684055E+02 -0.16284227366E+03  0.18979573869E+03  0.00000000000E+00 0.  1.
        -13    1    4    4    0    0  0.88674699552E+02 -0.38497833582E+02  0.21542903913E+01  0.96695017960E+02  0.00000000000E+00 0.  1.
         13    1    4    4    0    0  0.72308614108E+01  0.33438891355E+02 -0.48204273264E+01  0.34549693652E+02  0.00000000000E+00 0. -1.
         21    1    1    2  502  501 -0.12740887066E+03 -0.95860524002E+02  0.10043884585E+04  0.10169653071E+04  0.00000000000E+00 0.  1.
<scales pt_clust_5="13000.00000" pt_clust_6="13000.00000" pt_clust_7="13000.00000" pt_clust_8="13000.00000" pt_clust_9="157.18828"></scales>
<clustering>
<clus scale="   81.541">  5  6 -1 -1</clus>
<clus scale="   89.413">  7  8 -1 -1</clus>
<clus scale="  131.218">  2  7  1 -1</clus>
<clus scale="  157.188">  1  9  2 -1</clus>
<clus scale="  131.218">  2  5  1 -1</clus>
</clustering>
</event>
<event>
 9    1  0.6106093E-005  0.1961508E+03  0.7546771E-02  0.1188669E+00
          3   -1    0    0  502    0  0.00000000000E+00  0.00000000000E+00  0.25348351861E+03  0.25348351861E+03  0.00000000000E+00 0. -1.
         -4   -1    0    0    0  501 -0.00000000000E+00 -0.00000000000E+00 -0.23729364194E+03  0.23729364194E+03  0.00000000000E+00 0.  1.
         23    2    1    2    0    0 -0.45236108437E+02  0.15059425253E+03 -0.77629789276E+02  0.21597862771E+03  0.12607715512E+03 0.  0.
        -24    2    1    2    0    0  0.31986861810E+02 -0.65555020590E+01  0.96856406793E+02  0.13011983376E+03  0.80522504086E+02 0.  0.
         13    1    4    4    0    0  0.22325947457E+02 -0.36990497552E+02  0.86260809184E+02  0.96476277085E+02  0.00000000000E+00 0. -1.
        -14    1    4    4    0    0  0.96609143538E+01  0.30434995493E+02  0.10595597608E+02  0.33643556672E+02  0.00000000000E+00 0.  1.
        -13    1    3    3    0    0 -0.87101176639E+02  0.10129370026E+03 -0.33653361776E+02  0.13776638721E+03  0.00000000000E+00 0. -1.
         13    1    3    3    0    0  0.41865068202E+02  0.49300552262E+02 -0.43976427500E+02  0.78212240503E+02  0.00000000000E+00 0.  1.
         21    1    1    2  502  501  0.13249246626E+02 -0.14403875047E+03 -0.30367408495E+01  0.14467869908E+03  0.00000000000E+00 0. -1.
<scales pt_clust_5="13000.00000" pt_clust_6="13000.00000" pt_clust_7="13000.00000" pt_clust_8="13000.00000" pt_clust_9="150.26537"></scales>
<clustering>
<clus scale="   80.523">  5  6 -1 -1</clus>
<clus scale="   86.891">  1  5  2 -1</clus>
<clus scale="  126.077">  7  8 -1 -1</clus>
<clus scale="  150.265">  1  9  2 -1</clus>
<clus scale="   86.891">  1  5  2 -1</clus>
</clustering>
</event>
<event>
 9    1  0.6106093E-005  0.1172871E+03  0.7546771E-02  0.1252717E+00
         -2   -1    0    0    0  501 -0.00000000000E+00  0.00000000000E+00  0.96569147416E+02  0.96569147416E+02  0.00000000000E+00 0.  1.
          1   -1    0    0  502    0  0.00000000000E+00 -0.00000000000E+00 -0.25334446675E+03  0.25334446675E+03  0.00000000000E+00 0. -1.
         23    2    1    2    0    0  0.53095433804E+02 -0.67303091907E+01 -0.17595961688E+02  0.10910034026E+03  0.93428283860E+02 0.  0.
        -24    2    1    2    0    0 -0.11048604851E+03 -0.87216690805E+01 -0.10834725941E+03  0.17385758280E+03  0.78766084389E+02 0.  0.
         13    1    4    4    0    0 -0.15224043650E+02  0.28027236500E+02 -0.39226673015E+02  0.50557189070E+02  0.00000000000E+00 0. -1.
        -14    1    4    4    0    0 -0.95262004861E+02 -0.36748905580E+02 -0.69120586390E+02  0.12330039373E+03  0.00000000000E+00 0.  1.
        -11    1    3    3    0    0  0.31168137345E+02 -0.37393274653E+02  0.22880554136E+02  0.53788749125E+02  0.00000000000E+00 0.  1.
         11    1    3    3    0    0  0.21927296459E+02  0.30662965463E+02 -0.40476515824E+02  0.55311591138E+02  0.00000000000E+00 0. -1.
         21    1    1    2  502  501  0.57390614707E+02  0.15451978271E+02 -0.30832098241E+02  0.66955691102E+02  0.00000000000E+00 0. -1.
<scales pt_clust_5="13000.00000" pt_clust_6="13000.00000" pt_clust_7="13000.00000" pt_clust_8="13000.00000" pt_clust_9="59.43439"></scales>
<clustering>
<clus scale="   59.434">  2  9  1 -1</clus>
<clus scale="   78.766">  5  6 -1 -1</clus>
<clus scale="   93.428">  7  8 -1 -1</clus>
<clus scale="  105.979">  2  5  1 -1</clus>
<clus scale="   59.434">  2  5  1 -1</clus>
</clustering>
</event>
<event>
 9    1  0.6106093E-005  0.1092328E+03  0.7546771E-02  0.1268654E+00
         -4   -1    0    0    0  501 -0.00000000000E+00  0.00000000000E+00  0.71406709947E+02  0.71406709947E+02  0.00000000000E+00 0.  1.
          3   -1    0    0  502    0  0.00000000000E+00 -0.00000000000E+00 -0.27022221878E+03  0.27022221878E+03  0.00000000000E+00 0. -1.
         23    2    1    2    0    0  0.52431040500E+02  0.42956458659E+02 -0.49868309175E+02  0.12755537592E+03  0.95860598360E+02 0.  0.
        -24    2    1    2    0    0 -0.47707003860E+02 -0.10499490566E+02 -0.15442463079E+03  0.18082037924E+03  0.80391824432E+02 0.  0.
         13    1    4    4    0    0 -0.59780327307E+02 -0.32941722345E+02 -0.11893472191E+03  0.13712881783E+03  0.00000000000E+00 0. -1.
        -14    1    4    4    0    0  0.12073323447E+02  0.22442231779E+02 -0.35489908879E+02  0.43691561411E+02  0.00000000000E+00 0.  1.
        -11    1    3    3    0    0 -0.19988708718E+02  0.38604026322E+02 -0.28279966637E+02  0.51861120673E+02  0.00000000000E+00 0. -1.
         11    1    3    3    0    0  0.72419749218E+02  0.43524323375E+01 -0.21588342538E+02  0.75694255248E+02  0.00000000000E+00 0.  1.
         21    1    1    2  502  501 -0.47240366399E+01 -0.32456968093E+02  0.54774311348E+01  0.33253173560E+02  0.00000000000E+00 0.  1.
<scales pt_clust_5="13000.00000" pt_clust_6="13000.00000" pt_clust_7="13000.00000" pt_clust_8="13000.00000" pt_clust_9="32.79895"></scales>
<clustering>
<clus scale="   32.799">  1  9  2 -1</clus>
<clus scale="   80.392">  5  6 -1 -1</clus>
<clus scale="   95.861">  7  8 -1 -1</clus>
<clus scale="   95.945">  2  5  1 -1</clus>
<clus scale="   95.945">  2  5  1 -1</clus>
</clustering>
</event>
<event>
 9    1  0.6106093E-005  0.1085865E+03  0.7546771E-02  0.1268548E+00
          1   -1    0    0  502    0  0.00000000000E+00  0.00000000000E+00  0.29863190325E+03  0.29863190325E+03  0.00000000000E+00 0. -1.
         -2   -1    0    0    0  501 -0.00000000000E+00 -0.00000000000E+00 -0.60243912254E+02  0.60243912254E+02  0.00000000000E+00 0.  1.
        -24    2    1    2    0    0 -0.24113562357E+02 -0.30463159439E+02  0.41245628225E+02  0.96705745908E+02  0.78366647698E+02 0.  0.
         23    2    1    2    0    0  0.22040925830E+02  0.67669823410E+02  0.19243225135E+03  0.22460922808E+03  0.91400911180E+02 0.  0.
         11    1    3    3    0    0  0.74520981419E-02 -0.31740586283E+02 -0.15286198065E+02  0.35229713657E+02  0.00000000000E+00 0. -1.
        -12    1    3    3    0    0 -0.24121014455E+02  0.12774268438E+01  0.56531826290E+02  0.61476032251E+02  0.00000000000E+00 0.  1.
        -11    1    4    4    0    0  0.56145455198E+02  0.35689037472E+02  0.13540907847E+03  0.15086960618E+03  0.00000000000E+00 0.  1.
         11    1    4    4    0    0 -0.34104529367E+02  0.31980785939E+02  0.57023172881E+02  0.73739621900E+02  0.00000000000E+00 0. -1.
         21    1    1    2  502  501  0.20726365263E+01 -0.37206663971E+02  0.47101114169E+01  0.37560841519E+02  0.00000000000E+00 0.  1.
<scales pt_clust_5="13000.00000" pt_clust_6="13000.00000" pt_clust_7="13000.00000" pt_clust_8="13000.00000" pt_clust_9="37.26435"></scales>
<clustering>
<clus scale="   37.264">  2  9  1 -1</clus>
<clus scale="   78.367">  5  6 -1 -1</clus>
<clus scale="   91.401">  7  8 -1 -1</clus>
<clus scale="   97.868">  2  5  1 -1</clus>
<clus scale="  108.586">  1  5  2 -1</clus>
</clustering>
</event>
<event>
 9    1  0.6106093E-005  0.1047483E+03  0.7546771E-02  0.1274184E+00
          1   -1    0    0  502    0  0.00000000000E+00  0.00000000000E+00  0.22590291113E+03  0.22590291113E+03  0.00000000000E+00 0. -1.
         -2   -1    0    0    0  501 -0.00000000000E+00 -0.00000000000E+00 -0.16996868708E+03  0.16996868708E+03  0.00000000000E+00 0.  1.
        -24    2    1    2    0    0  0.96989650568E+01 -0.47613181683E+02 -0.40262611182E+02  0.11020026036E+03  0.90343425495E+02 0.  0.
         23    2    1    2    0    0  0.27707116963E+02  0.27263407664E+02  0.17029653548E+03  0.20020734631E+03  0.97831967136E+02 0.  0.
         13    1    3    3    0    0  0.31698318030E+02  0.32037605603E+01 -0.44426368063E+02  0.54669457899E+02  0.00000000000E+00 0. -1.
        -14    1    3    3    0    0 -0.21999352974E+02 -0.50816942243E+02  0.41637568807E+01  0.55530802457E+02  0.00000000000E+00 0.  1.
        -11    1    4    4    0    0  0.16001329717E+02  0.49327738142E+02  0.16717775163E+03  0.17503619324E+03  0.00000000000E+00 0. -1.
         11    1    4    4    0    0  0.11705787246E+02 -0.22064330479E+02  0.31187838506E+01  0.25171153077E+02  0.00000000000E+00 0.  1.
         21    1    1    2  502  501 -0.37406082020E+02  0.20349774019E+02 -0.74099700248E+02  0.85463991550E+02  0.00000000000E+00 0.  1.
<scales pt_clust_5="13000.00000" pt_clust_6="13000.00000" pt_clust_7="13000.00000" pt_clust_8="13000.00000" pt_clust_9="42.58319"></scales>
<clustering>
<clus scale="   42.583">  2  9  1 -1</clus>
<clus scale="   90.343">  5  6 -1 -1</clus>
<clus scale="   97.791">  2  5  1 -1</clus>
<clus scale="   97.832">  7  8 -1 -1</clus>
<clus scale="  104.748">  1  5  2 -1</clus>
</clustering>
</event>
<event>
 9    1  0.6106093E-005  0.2694789E+03  0.7546771E-02  0.1130095E+00
          1   -1    0    0  502    0  0.00000000000E+00  0.00000000000E+00  0.51250445555E+03  0.51250445555E+03  0.00000000000E+00 0. -1.
         -2   -1    0    0    0  501 -0.00000000000E+00 -0.00000000000E+00 -0.60855846739E+03  0.60855846739E+03  0.00000000000E+00 0.  1.
        -24    2    1    2    0    0  0.21147842151E+02 -0.10240578619E+03 -0.36071242699E+02  0.13619566623E+03  0.79460359154E+02 0.  0.
         23    2    1    2    0    0 -0.12512739907E+03  0.22845318513E+03  0.40571019346E+03  0.49133951640E+03  0.94689151986E+02 0.  0.
         11    1    3    3    0    0  0.51528102587E+02 -0.60318171620E+02 -0.24319362678E+02  0.82975047966E+02  0.00000000000E+00 0. -1.
        -12    1    3    3    0    0 -0.30380260436E+02 -0.42087614567E+02 -0.11751880021E+02  0.53220618261E+02  0.00000000000E+00 0.  1.
        -11    1    4    4    0    0 -0.10270755480E+03  0.20964780725E+03  0.39743565967E+03  0.46092965675E+03  0.00000000000E+00 0. -1.
         11    1    4    4    0    0 -0.22419844271E+02  0.18805377878E+02  0.82745337935E+01  0.30409859648E+02  0.00000000000E+00 0.  1.
         21    1    1    2  502  501  0.10397955692E+03 -0.12604739894E+03 -0.46569296261E+03  0.49352774031E+03  0.00000000000E+00 0.  1.
<scales pt_clust_5="13000.00000" pt_clust_6="13000.00000" pt_clust_7="13000.00000" pt_clust_8="13000.00000" pt_clust_9="252.29513"></scales>
<clustering>
<clus scale="   79.460">  5  6 -1 -1</clus>
<clus scale="   94.689">  7  8 -1 -1</clus>
<clus scale="  131.332">  2  5  1 -1</clus>
<clus scale="  252.295">  2  9  1 -1</clus>
<clus scale="  269.479">  1  5  2 -1</clus>
</clustering>
</event>
<event>
 9    1  0.6106093E-005  0.1188338E+03  0.7546771E-02  0.1248605E+00
          1   -1    0    0  502    0  0.00000000000E+00  0.00000000000E+00  0.24117506525E+03  0.24117506525E+03  0.00000000000E+00 0. -1.
         -2   -1    0    0    0  501 -0.00000000000E+00 -0.00000000000E+00 -0.82754894027E+02  0.82754894027E+02  0.00000000000E+00 0.  1.
        -24    2    1    2    0    0  0.46760258038E+02 -0.33931609371E+02  0.10772008357E+02  0.99370165106E+02  0.80128133030E+02 0.  0.
         23    2    1    2    0    0 -0.79930936898E+02  0.33569413131E+02  0.14397185487E+03  0.19118404905E+03  0.91145956806E+02 0.  0.
         11    1    3    3    0    0  0.47400266546E+02  0.74087768298E+01  0.26885881936E+02  0.54995689742E+02  0.00000000000E+00 0. -1.
        -12    1    3    3    0    0 -0.64000850740E+00 -0.41340386201E+02 -0.16113873579E+02  0.44374475364E+02  0.00000000000E+00 0.  1.
        -13    1    4    4    0    0 -0.69546142242E+02 -0.12650961110E+02  0.52084135376E+02  0.87803586918E+02  0.00000000000E+00 0. -1.
         13    1    4    4    0    0 -0.10384794656E+02  0.46220374241E+02  0.91887719499E+02  0.10338046213E+03  0.00000000000E+00 0.  1.
         21    1    1    2  502  501  0.33170678860E+02  0.36219624009E+00  0.36763079909E+01  0.33375745124E+02  0.00000000000E+00 0. -1.
<scales pt_clust_5="13000.00000" pt_clust_6="13000.00000" pt_clust_7="13000.00000" pt_clust_8="13000.00000" pt_clust_9="33.17266"></scales>
<clustering>
<clus scale="   33.173">  2  9  1 -1</clus>
<clus scale="   80.128">  5  6 -1 -1</clus>
<clus scale="   91.146">  7  8 -1 -1</clus>
<clus scale="  110.609">  2  5  1 -1</clus>
<clus scale="  118.834">  1  5  2 -1</clus>
</clustering>
</event>
<event>
 9    1  0.6106093E-005  0.8019941E+02  0.7546771E-02  0.1328530E+00
          1   -1    0    0  502    0  0.00000000000E+00  0.00000000000E+00  0.84092444098E+02  0.84092444098E+02  0.00000000000E+00 0. -1.
         -2   -1    0    0    0  501 -0.00000000000E+00 -0.00000000000E+00 -0.21986935214E+03  0.21986935214E+03  0.00000000000E+00 0.  1.
        -24    2    1    2    0    0  0.58961250473E+01 -0.12106746716E+01 -0.37412471235E+02  0.88112904147E+02  0.79548481126E+02 0.  0.
         23    2    1    2    0    0  0.13052689381E+02 -0.10136652180E+02  0.29195600449E+02  0.86390858351E+02  0.79610758717E+02 0.  0.
         13    1    3    3    0    0  0.91230936069E+01 -0.39871579169E+02 -0.21153414205E+02  0.46048242040E+02  0.00000000000E+00 0. -1.
        -14    1    3    3    0    0 -0.32269685596E+01  0.38660904498E+02 -0.16259057030E+02  0.42064662107E+02  0.00000000000E+00 0.  1.
        -11    1    4    4    0    0  0.34614498975E+02 -0.11271978205E+02 -0.13273650403E+02  0.38748042879E+02  0.00000000000E+00 0.  1.
         11    1    4    4    0    0 -0.21561809594E+02  0.11353260250E+01  0.42469250852E+02  0.47642815472E+02  0.00000000000E+00 0. -1.
         21    1    1    2  502  501 -0.18948814428E+02  0.11347326851E+02 -0.12756003726E+03  0.12945803374E+03  0.00000000000E+00 0.  1.
<scales pt_clust_5="13000.00000" pt_clust_6="13000.00000" pt_clust_7="13000.00000" pt_clust_8="13000.00000" pt_clust_9="22.08663"></scales>
<clustering>
<clus scale="   22.087">  2  9  1 -1</clus>
<clus scale="   79.548">  5  6 -1 -1</clus>
<clus scale="   79.611">  7  8 -1 -1</clus>
<clus scale="   80.138">  2  5  1 -1</clus>
<clus scale="   80.199">  1  5  2 -1</clus>
</clustering>
</event>
<event>
 9    1  0.6106093E-005  0.1356694E+03  0.7546771E-02  0.1221858E+00
         -2   -1    0    0    0  501 -0.00000000000E+00  0.00000000000E+00  0.93794918523E+02  0.93794918523E+02  0.00000000000E+00 0.  1.
          1   -1    0    0  502    0  0.00000000000E+00 -0.00000000000E+00 -0.28219548864E+03  0.28219548864E+03  0.00000000000E+00 0. -1.
         23    2    1    2    0    0 -0.12292102728E+02 -0.89393125320E+02 -0.54608731976E+02  0.14086603230E+03  0.93375043801E+02 0.  0.
        -24    2    1    2    0    0 -0.54563907256E+01  0.10354271053E+03 -0.15505839013E+03  0.20401993764E+03  0.82644815340E+02 0.  0.
         11    1    4    4    0    0 -0.22041475436E+02  0.10721108820E+03 -0.15110193175E+03  0.18657930714E+03  0.00000000000E+00 0. -1.
        -12    1    4    4    0    0  0.16585084710E+02 -0.36683776681E+01 -0.39564583757E+01  0.17440630506E+02  0.00000000000E+00 0.  1.
        -11    1    3    3    0    0  0.55908206890E+01 -0.65969277859E+02  0.12677986974E+02  0.67408710498E+02  0.00000000000E+00 0.  1.
         11    1    3    3    0    0 -0.17882923417E+02 -0.23423847461E+02 -0.67286718949E+02  0.73457321805E+02  0.00000000000E+00 0. -1.
         21    1    1    2  502  501  0.17748493453E+02 -0.14149585213E+02  0.21266551983E+02  0.31104437221E+02  0.00000000000E+00 0.  1.
<scales pt_clust_5="13000.00000" pt_clust_6="13000.00000" pt_clust_7="13000.00000" pt_clust_8="13000.00000" pt_clust_9="22.69845"></scales>
<clustering>
<clus scale="   22.698">  1  9  2 -1</clus>
<clus scale="   82.645">  5  6 -1 -1</clus>
<clus scale="   93.375">  7  8 -1 -1</clus>
<clus scale="  128.520">  2  5  1 -1</clus>
<clus scale="  128.520">  2  5  1 -1</clus>
</clustering>
</event>
<event>
 9    1  0.6106093E-005  0.1588645E+03  0.7546771E-02  0.1190445E+00
         -2   -1    0    0    0  501 -0.00000000000E+00  0.00000000000E+00  0.39624330089E+03  0.39624330089E+03  0.00000000000E+00 0.  1.
          1   -1    0    0  502    0  0.00000000000E+00 -0.00000000000E+00 -0.23698469725E+03  0.23698469725E+03  0.00000000000E+00 0. -1.
         23    2    1    2    0    0  0.12663537582E+03  0.14049911177E+03  0.54581575542E+02  0.21464474735E+03  0.85537713075E+02 0.  0.
        -24    2    1    2    0    0 -0.98860810550E+02 -0.68517261211E+02 -0.11500275955E+03  0.18574849740E+03  0.82515420588E+02 0.  0.
         13    1    4    4    0    0 -0.57194698536E+02  0.40768111723E+00 -0.78990433032E+02  0.97523783023E+02  0.00000000000E+00 0. -1.
        -14    1    4    4    0    0 -0.41666112014E+02 -0.68924942328E+02 -0.36012326520E+02  0.88224714376E+02  0.00000000000E+00 0.  1.
        -13    1    3    3    0    0  0.36227727289E+02  0.99427155066E+02  0.11647277118E+02  0.10646063335E+03  0.00000000000E+00 0. -1.
         13    1    3    3    0    0  0.90407648533E+02  0.41071956708E+02  0.42934298423E+02  0.10818411400E+03  0.00000000000E+00 0.  1.
         21    1    1    2  502  501 -0.27774565272E+02 -0.71981850563E+02  0.21967978765E+03  0.23283475339E+03  0.00000000000E+00 0.  1.
<scales pt_clust_5="13000.00000" pt_clust_6="13000.00000" pt_clust_7="13000.00000" pt_clust_8="13000.00000" pt_clust_9="77.15448"></scales>
<clustering>
<clus scale="   77.154">  1  9  2 -1</clus>
<clus scale="   82.515">  5  6 -1 -1</clus>
<clus scale="   85.538">  7  8 -1 -1</clus>
<clus scale="  157.258">  2  5  1 -1</clus>
<clus scale="  157.258">  2  5  1 -1</clus>
</clustering>
</event>
<event>
 9    1  0.6106093E-005  0.1009626E+03  0.7546771E-02  0.1285749E+00
         -2   -1    0    0    0  501 -0.00000000000E+00  0.00000000000E+00  0.21191257596E+03  0.21191257596E+03  0.00000000000E+00 0.  1.
          1   -1    0    0  502    0  0.00000000000E+00 -0.00000000000E+00 -0.18916087405E+03  0.18916087405E+03  0.00000000000E+00 0. -1.
         23    2    1    2    0    0  0.54471533673E+01  0.24448523010E+02  0.12810567220E+03  0.16120754223E+03  0.94601303712E+02 0.  0.
        -24    2    1    2    0    0  0.29514065210E+02 -0.22683743016E+02 -0.15539417845E+03  0.17879690021E+03  0.80220624447E+02 0.  0.
         11    1    4    4    0    0 -0.17115106562E+01 -0.32622092014E+02 -0.13776841136E+03  0.14158836578E+03  0.00000000000E+00 0. -1.
        -12    1    4    4    0    0  0.31225575866E+02  0.99383489972E+01 -0.17625767092E+02  0.37208534432E+02  0.00000000000E+00 0.  1.
        -13    1    3    3    0    0 -0.34716987989E+02  0.33915283000E+02  0.10036860775E+03  0.11148709834E+03  0.00000000000E+00 0.  1.
         13    1    3    3    0    0  0.40164141356E+02 -0.94667599908E+01  0.27737064456E+02  0.49720443886E+02  0.00000000000E+00 0. -1.
         21    1    1    2  502  501 -0.34961218577E+02 -0.17647799932E+01  0.50040208161E+02  0.61069007570E+02  0.00000000000E+00 0. -1.
<scales pt_clust_5="13000.00000" pt_clust_6="13000.00000" pt_clust_7="13000.00000" pt_clust_8="13000.00000" pt_clust_9="35.00573"></scales>
<clustering>
<clus scale="   35.006">  1  9  2 -1</clus>
<clus scale="   80.221">  5  6 -1 -1</clus>
<clus scale="   87.632">  2  5  1 -1</clus>
<clus scale="   94.601">  7  8 -1 -1</clus>
<clus scale="   87.632">  2  5  1 -1</clus>
</clustering>
</event>
<event>
 9    1  0.6106093E-005  0.1262640E+03  0.7546771E-02  0.1235758E+00
          3   -1    0    0  502    0  0.00000000000E+00  0.00000000000E+00  0.60151619911E+03  0.60151619911E+03  0.00000000000E+00 0. -1.
         -4   -1    0    0    0  501 -0.00000000000E+00 -0.00000000000E+00 -0.58428110023E+02  0.58428110023E+02  0.00000000000E+00 0.  1.
        -24    2    1    2    0    0  0.55253655270E+02  0.94277882312E+02  0.11377646864E+03  0.17772483184E+03  0.81851973229E+02 0.  0.
         23    2    1    2    0    0 -0.32329346316E+02 -0.74817705745E+02  0.43475589816E+03  0.45166031218E+03  0.91331653253E+02 0.  0.
         13    1    3    3    0    0 -0.16282487013E+02  0.19530283067E+02  0.21409190522E+01  0.25517344580E+02  0.00000000000E+00 0. -1.
        -14    1    3    3    0    0  0.71536142283E+02  0.74747599245E+02  0.11163554958E+03  0.15220748726E+03  0.00000000000E+00 0.  1.
        -11    1    4    4    0    0 -0.51253239431E+02 -0.10358594684E+02  0.24041533255E+03  0.24603602818E+03  0.00000000000E+00 0. -1.
         11    1    4    4    0    0  0.18923893115E+02 -0.64459111062E+02  0.19434056561E+03  0.20562428400E+03  0.00000000000E+00 0.  1.
         21    1    1    2  502  501 -0.22924308954E+02 -0.19460176567E+02 -0.54442777088E+01  0.30559165119E+02  0.00000000000E+00 0.  1.
<scales pt_clust_5="13000.00000" pt_clust_6="13000.00000" pt_clust_7="13000.00000" pt_clust_8="13000.00000" pt_clust_9="30.07029"></scales>
<clustering>
<clus scale="   30.070">  2  9  1 -1</clus>
<clus scale="   81.852">  5  6 -1 -1</clus>
<clus scale="   91.332">  7  8 -1 -1</clus>
<clus scale="  119.586">  2  5  1 -1</clus>
<clus scale="  126.264">  1  5  2 -1</clus>
</clustering>
</event>
<event>
 9    1  0.6106093E-005  0.1095465E+03  0.7546771E-02  0.1268757E+00
          1   -1    0    0  502    0  0.00000000000E+00  0.00000000000E+00  0.11714879636E+03  0.11714879636E+03  0.00000000000E+00 0. -1.
         -2   -1    0    0    0  501 -0.00000000000E+00 -0.00000000000E+00 -0.39999431355E+03  0.39999431355E+03  0.00000000000E+00 0.  1.
         23    2    1    2    0    0 -0.27040559944E+02  0.64596366767E+01 -0.30790902834E+03  0.32160387385E+03  0.88589859210E+02 0.  0.
        -24    2    1    2    0    0  0.17661705681E+02 -0.30704188995E+02  0.79181581735E+02  0.13550152468E+03  0.10409734499E+03 0.  0.
         13    1    4    4    0    0 -0.30736011123E+02 -0.33206787920E+02  0.74034035717E+02  0.86766534956E+02  0.00000000000E+00 0. -1.
        -14    1    4    4    0    0  0.48397716804E+02  0.25025989242E+01  0.51475460181E+01  0.48734989722E+02  0.00000000000E+00 0.  1.
        -11    1    3    3    0    0  0.30953371381E+02 -0.15283109388E+01 -0.15058483172E+03  0.15374081591E+03  0.00000000000E+00 0.  1.
         11    1    3    3    0    0 -0.57993931325E+02  0.79879476155E+01 -0.15732419663E+03  0.16786305794E+03  0.00000000000E+00 0. -1.
         21    1    1    2  502  501  0.93788542631E+01  0.24244552319E+02 -0.54118070576E+02  0.60037711376E+02  0.00000000000E+00 0.  1.
<scales pt_clust_5="13000.00000" pt_clust_6="13000.00000" pt_clust_7="13000.00000" pt_clust_8="13000.00000" pt_clust_9="25.99541"></scales>
<clustering>
<clus scale="   25.995">  2  9  1 -1</clus>
<clus scale="   88.590">  7  8 -1 -1</clus>
<clus scale="   94.933">  2  7  1 -1</clus>
<clus scale="  104.097">  5  6 -1 -1</clus>
<clus scale="  109.547">  1  5  2 -1</clus>
</clustering>
</event>
<event>
 9    1  0.6106093E-005  0.1311021E+03  0.7546771E-02  0.1236460E+00
          1   -1    0    0  502    0  0.00000000000E+00  0.00000000000E+00  0.55865052011E+03  0.55865052011E+03  0.00000000000E+00 0. -1.
         -2   -1    0    0    0  501 -0.00000000000E+00 -0.00000000000E+00 -0.46375688782E+02  0.46375688782E+02  0.00000000000E+00 0.  1.
        -24    2    1    2    0    0  0.44875393155E+02 -0.33946878169E+02  0.11227280847E+03  0.14965650415E+03  0.81398367701E+02 0.  0.
         23    2    1    2    0    0 -0.43903829231E+02  0.59413974937E+02  0.40715300581E+03  0.42889984430E+03  0.11280044176E+03 0.  0.
         11    1    3    3    0    0  0.28981843678E+02  0.18286334721E+02  0.77992598235E+02  0.85189099537E+02  0.00000000000E+00 0. -1.
        -12    1    3    3    0    0  0.15893549477E+02 -0.52233212890E+02  0.34280210235E+02  0.64467404613E+02  0.00000000000E+00 0.  1.
        -11    1    4    4    0    0 -0.11671948135E+02  0.67747973686E+02  0.37933964129E+03  0.38551859328E+03  0.00000000000E+00 0. -1.
         11    1    4    4    0    0 -0.32231881095E+02 -0.83339987486E+01  0.27813364523E+02  0.43381251021E+02  0.00000000000E+00 0.  1.
         21    1    1    2  502  501 -0.97156392425E+00 -0.25467096768E+02 -0.71509829584E+01  0.26469860436E+02  0.00000000000E+00 0.  1.
<scales pt_clust_5="13000.00000" pt_clust_6="13000.00000" pt_clust_7="13000.00000" pt_clust_8="13000.00000" pt_clust_9="25.48562"></scales>
<clustering>
<clus scale="   25.486">  2  9  1 -1</clus>
<clus scale="   81.398">  5  6 -1 -1</clus>
<clus scale="  105.307">  2  5  1 -1</clus>
<clus scale="  112.800">  7  8 -1 -1</clus>
<clus scale="  131.102">  1  5  2 -1</clus>
</clustering>
</event>
<event>
 9    1  0.6106093E-005  0.1456650E+03  0.7546771E-02  0.1207978E+00
          1   -1    0    0  502    0  0.00000000000E+00  0.00000000000E+00  0.48438056358E+03  0.48438056358E+03  0.00000000000E+00 0. -1.
         -2   -1    0    0    0  501 -0.00000000000E+00 -0.00000000000E+00 -0.17630892772E+03  0.17630892772E+03  0.00000000000E+00 0.  1.
         23    2    1    2    0    0  0.86669734128E+00  0.11555562460E+03 -0.62327311641E+02  0.16021021327E+03  0.91808306374E+02 0.  0.
        -24    2    1    2    0    0  0.82202704715E+02 -0.82383204994E+02  0.38453896462E+03  0.40992059504E+03  0.81365851559E+02 0.  0.
         13    1    4    4    0    0  0.21948929451E+02 -0.71208499085E+02  0.26907644068E+03  0.27920339678E+03  0.00000000000E+00 0. -1.
        -14    1    4    4    0    0  0.60253775264E+02 -0.11174705909E+02  0.11546252394E+03  0.13071719825E+03  0.00000000000E+00 0.  1.
        -13    1    3    3    0    0  0.19421472616E+02  0.93079300369E+01 -0.46439753816E+02  0.51190642647E+02  0.00000000000E+00 0. -1.
         13    1    3    3    0    0 -0.18554775275E+02  0.10624769456E+03 -0.15887557825E+02  0.10901957063E+03  0.00000000000E+00 0.  1.
         21    1    1    2  502  501 -0.83069402056E+02 -0.33172419607E+02 -0.14140017114E+02  0.90558682988E+02  0.00000000000E+00 0.  1.
<scales pt_clust_5="13000.00000" pt_clust_6="13000.00000" pt_clust_7="13000.00000" pt_clust_8="13000.00000" pt_clust_9="89.44795"></scales>
<clustering>
<clus scale="   81.366">  5  6 -1 -1</clus>
<clus scale="   89.448">  2  9  1 -1</clus>
<clus scale="   91.808">  7  8 -1 -1</clus>
<clus scale="  139.319">  1  5  2 -1</clus>
<clus scale="  139.319">  1  5  2 -1</clus>
</clustering>
</event>
<event>
 9    1  0.6106093E-005  0.1088569E+03  0.7546771E-02  0.1266686E+00
         -2   -1    0    0    0  501 -0.00000000000E+00  0.00000000000E+00  0.70296151740E+02  0.70296151740E+02  0.00000000000E+00 0.  1.
          1   -1    0    0  502    0  0.00000000000E+00 -0.00000000000E+00 -0.36759214821E+03  0.36759214821E+03  0.00000000000E+00 0. -1.
         23    2    1    2    0    0  0.38292094065E+02  0.41153389307E+02 -0.76625103842E+01  0.10762414636E+03  0.91456858103E+02 0.  0.
        -24    2    1    2    0    0 -0.55566611029E+02 -0.23350819461E+02 -0.28806769572E+03  0.30540872906E+03  0.81600155869E+02 0.  0.
         11    1    4    4    0    0 -0.51918036230E+02  0.95444116369E+01 -0.24743063320E+03  0.25299900499E+03  0.00000000000E+00 0. -1.
        -12    1    4    4    0    0 -0.36485747985E+01 -0.32895231098E+02 -0.40637062523E+02  0.52409724074E+02  0.00000000000E+00 0.  1.
        -13    1    3    3    0    0  0.51823610634E+02  0.88388110172E+01  0.26341379429E+02  0.58802036271E+02  0.00000000000E+00 0.  1.
         13    1    3    3    0    0 -0.13531516569E+02  0.32314578290E+02 -0.34003889813E+02  0.48822110085E+02  0.00000000000E+00 0. -1.
         21    1    1    2  502  501  0.17274516963E+02 -0.17802569846E+02 -0.15657903678E+01  0.24855424537E+02  0.00000000000E+00 0.  1.
<scales pt_clust_5="13000.00000" pt_clust_6="13000.00000" pt_clust_7="13000.00000" pt_clust_8="13000.00000" pt_clust_9="24.80606"></scales>
<clustering>
<clus scale="   24.806">  1  9  2 -1</clus>
<clus scale="   81.600">  5  6 -1 -1</clus>
<clus scale="   91.457">  7  8 -1 -1</clus>
<clus scale="  100.718">  2  5  1 -1</clus>
<clus scale="  100.718">  2  5  1 -1</clus>
</clustering>
</event>
<event>
 9    1  0.6106093E-005  0.9621012E+02  0.7546771E-02  0.1291631E+00
         -2   -1    0    0    0  501 -0.00000000000E+00  0.00000000000E+00  0.12687743237E+03  0.12687743237E+03  0.00000000000E+00 0.  1.
          1   -1    0    0  502    0  0.00000000000E+00 -0.00000000000E+00 -0.24074298784E+03  0.24074298784E+03  0.00000000000E+00 0. -1.
        -24    2    1    2    0    0 -0.62597894608E+02  0.96708731494E+01  0.50523285675E+02  0.11459149535E+03  0.81034475468E+02 0.  0.
         23    2    1    2    0    0  0.37760537595E+02  0.47511903901E+00 -0.19219317125E+03  0.21439065065E+03  0.87172541973E+02 0.  0.
         13    1    3    3    0    0 -0.13002186547E+02 -0.28881597490E+02  0.39800715207E+02  0.50865513460E+02  0.00000000000E+00 0. -1.
        -14    1    3    3    0    0 -0.49595708061E+02  0.38552470639E+02  0.10722570468E+02  0.63725981890E+02  0.00000000000E+00 0.  1.
        -13    1    4    4    0    0  0.83644242035E+01 -0.40301857221E+02 -0.11621350675E+03  0.12328739773E+03  0.00000000000E+00 0.  1.
         13    1    4    4    0    0  0.29396113391E+02  0.40776976260E+02 -0.75979664502E+02  0.91103252923E+02  0.00000000000E+00 0. -1.
         21    1    1    2  502  501  0.24837357013E+02 -0.10145992188E+02  0.27804330108E+02  0.38638274206E+02  0.00000000000E+00 0. -1.
<scales pt_clust_5="13000.00000" pt_clust_6="13000.00000" pt_clust_7="13000.00000" pt_clust_8="13000.00000" pt_clust_9="26.82975"></scales>
<clustering>
<clus scale="   26.830">  1  9  2 -1</clus>
<clus scale="   81.034">  5  6 -1 -1</clus>
<clus scale="   87.173">  7  8 -1 -1</clus>
<clus scale="   90.686">  1  5  2 -1</clus>
<clus scale="   96.210">  2  5  1 -1</clus>
</clustering>
</event>
<event>
 9    1  0.6106093E-005  0.1131526E+03  0.7546771E-02  0.1258633E+00
         -2   -1    0    0    0  501 -0.00000000000E+00  0.00000000000E+00  0.87273646821E+02  0.87273646821E+02  0.00000000000E+00 0.  1.
          1   -1    0    0  502    0  0.00000000000E+00 -0.00000000000E+00 -0.21724097710E+03  0.21724097710E+03  0.00000000000E+00 0. -1.
        -24    2    1    2    0    0 -0.85471568745E+02 -0.12007687577E+02 -0.38425967499E+02  0.12484366698E+03  0.81607674768E+02 0.  0.
         23    2    1    2    0    0  0.46034675057E+02  0.32427416339E+02 -0.78706594032E+02  0.13344363607E+03  0.91878982499E+02 0.  0.
         11    1    3    3    0    0 -0.75810637787E+02 -0.42386869523E+02 -0.26512991345E+02  0.90812103927E+02  0.00000000000E+00 0. -1.
        -12    1    3    3    0    0 -0.96609309581E+01  0.30379181946E+02 -0.11912976153E+02  0.34031563048E+02  0.00000000000E+00 0.  1.
        -13    1    4    4    0    0  0.19476970229E+02  0.44692705636E+02  0.76572048257E+00  0.48758349379E+02  0.00000000000E+00 0.  1.
         13    1    4    4    0    0  0.26557704828E+02 -0.12265289297E+02 -0.79472314514E+02  0.84685286689E+02  0.00000000000E+00 0. -1.
         21    1    1    2  502  501  0.39436893689E+02 -0.20419728762E+02 -0.12834768747E+02  0.46227320875E+02  0.00000000000E+00 0.  1.
<scales pt_clust_5="13000.00000" pt_clust_6="13000.00000" pt_clust_7="13000.00000" pt_clust_8="13000.00000" pt_clust_9="44.40984"></scales>
<clustering>
<clus scale="   44.410">  1  9  2 -1</clus>
<clus scale="   81.608">  5  6 -1 -1</clus>
<clus scale="   91.879">  7  8 -1 -1</clus>
<clus scale="  104.984">  1  5  2 -1</clus>
<clus scale="  113.153">  2  5  1 -1</clus>
</clustering>
</event>
<event>
 9    1  0.6106093E-005  0.1901374E+03  0.7546771E-02  0.1159196E+00
          1   -1    0    0  502    0  0.00000000000E+00  0.00000000000E+00  0.59186463360E+03  0.59186463360E+03  0.00000000000E+00 0. -1.
         -2   -1    0    0    0  501 -0.00000000000E+00 -0.00000000000E+00 -0.96374854016E+02  0.96374854016E+02  0.00000000000E+00 0.  1.
         23    2    1    2    0    0  0.65376522363E+02  0.15777571890E+03  0.21995197704E+03  0.29273053569E+03  0.90249804260E+02 0.  0.
        -24    2    1    2    0    0 -0.45543589677E+01 -0.16960172116E+03  0.27521349825E+03  0.33354690658E+03  0.82009653490E+02 0.  0.
         13    1    4    4    0    0  0.10765364361E+02 -0.12050278382E+03  0.24662757704E+03  0.27470343233E+03  0.00000000000E+00 0. -1.
        -14    1    4    4    0    0 -0.15319723329E+02 -0.49098937337E+02  0.28585921215E+02  0.58843474253E+02  0.00000000000E+00 0.  1.
        -11    1    3    3    0    0  0.41657352822E+02  0.95824405414E+01  0.41765534958E+02  0.59762179689E+02  0.00000000000E+00 0. -1.
         11    1    3    3    0    0  0.23719169542E+02  0.14819327836E+03  0.17818644208E+03  0.23296835600E+03  0.00000000000E+00 0.  1.
         21    1    1    2  502  501 -0.60822163396E+02  0.11826002255E+02  0.32430428828E+00  0.61962045340E+02  0.00000000000E+00 0.  1.
<scales pt_clust_5="13000.00000" pt_clust_6="13000.00000" pt_clust_7="13000.00000" pt_clust_8="13000.00000" pt_clust_9="61.96120"></scales>
<clustering>
<clus scale="   61.961">  2  9  1 -1</clus>
<clus scale="   82.010">  5  6 -1 -1</clus>
<clus scale="   90.250">  7  8 -1 -1</clus>
<clus scale="  186.367">  1  5  2 -1</clus>
<clus scale="  186.367">  1  5  2 -1</clus>
</clustering>
</event>
<event>
 9    1  0.6106093E-005  0.1863558E+03  0.7546771E-02  0.1162999E+00
         -2   -1    0    0    0  501 -0.00000000000E+00  0.00000000000E+00  0.39657444769E+02  0.39657444769E+02  0.00000000000E+00 0.  1.
          1   -1    0    0  502    0  0.00000000000E+00 -0.00000000000E+00 -0.18522394556E+04  0.18522394556E+04  0.00000000000E+00 0. -1.
         23    2    1    2    0    0  0.19656824746E+01 -0.14868394527E+03 -0.28692277315E+03  0.33576803923E+03  0.91130230623E+02 0.  0.
        -24    2    1    2    0    0 -0.23156709296E+02  0.21735049055E+03 -0.12324455808E+04  0.12542374855E+04  0.80075537047E+02 0.  0.
         13    1    4    4    0    0 -0.13588881636E+02  0.21849966069E+03 -0.12122683667E+04  0.12318771661E+04  0.00000000000E+00 0. -1.
        -14    1    4    4    0    0 -0.95678276603E+01 -0.11491701334E+01 -0.20177214046E+02  0.22360319425E+02  0.00000000000E+00 0.  1.
        -13    1    3    3    0    0 -0.11272715686E+02 -0.11560812724E+03 -0.12777409439E+03  0.17268043432E+03  0.00000000000E+00 0.  1.
         13    1    3    3    0    0  0.13238398160E+02 -0.33075818030E+02 -0.15914867876E+03  0.16308760491E+03  0.00000000000E+00 0. -1.
         21    1    1    2  502  501  0.21191026822E+02 -0.68666545287E+02 -0.29321365689E+03  0.30189137558E+03  0.00000000000E+00 0.  1.
<scales pt_clust_5="13000.00000" pt_clust_6="13000.00000" pt_clust_7="13000.00000" pt_clust_8="13000.00000" pt_clust_9="71.86205"></scales>
<clustering>
<clus scale="   71.862">  2  9  1 -1</clus>
<clus scale="   80.076">  5  6 -1 -1</clus>
<clus scale="   91.130">  7  8 -1 -1</clus>
<clus scale="  181.207">  2  5  1 -1</clus>
<clus scale="   71.862">  2  5  1 -1</clus>
</clustering>
</event>
<event>
 9    1  0.6106093E-005  0.8876044E+02  0.7546771E-02  0.1309126E+00
          1   -1    0    0  502    0  0.00000000000E+00  0.00000000000E+00  0.10826615825E+03  0.10826615825E+03  0.00000000000E+00 0. -1.
         -2   -1    0    0    0  501 -0.00000000000E+00 -0.00000000000E+00 -0.13055084683E+03  0.13055084683E+03  0.00000000000E+00 0.  1.
         23    2    1    2    0    0  0.16858648795E+02 -0.51496336627E+02 -0.37403534083E+02  0.99455876261E+02  0.74540997014E+02 0.  0.
        -24    2    1    2    0    0 -0.23890259977E+02  0.23111628448E+02  0.44788622641E+02  0.97702625612E+02  0.80217768868E+02 0.  0.
         11    1    4    4    0    0  0.90933346284E+01  0.43206822235E+02  0.38479326119E+02  0.58567710907E+02  0.00000000000E+00 0. -1.
        -12    1    4    4    0    0 -0.32983594605E+02 -0.20095193787E+02  0.63092965222E+01  0.39134914705E+02  0.00000000000E+00 0.  1.
        -11    1    3    3    0    0 -0.26106557879E+02 -0.24695481163E+02  0.92313044738E+00  0.35948175530E+02  0.00000000000E+00 0. -1.
         11    1    3    3    0    0  0.42965206673E+02 -0.26800855465E+02 -0.38326664531E+02  0.63507700731E+02  0.00000000000E+00 0.  1.
         21    1    1    2  502  501  0.70316111819E+01  0.28384708179E+02 -0.29669777132E+02  0.41658503205E+02  0.00000000000E+00 0. -1.
<scales pt_clust_5="13000.00000" pt_clust_6="13000.00000" pt_clust_7="13000.00000" pt_clust_8="13000.00000" pt_clust_9="29.24270"></scales>
<clustering>
<clus scale="   29.243">  2  9  1 -1</clus>
<clus scale="   74.541">  7  8 -1 -1</clus>
<clus scale="   80.218">  5  6 -1 -1</clus>
<clus scale="   83.665">  2  7  1 -1</clus>
<clus scale="   88.760">  1  5  2 -1</clus>
</clustering>
</event>
<event>
 9    1  0.6106093E-005  0.2841664E+03  0.7546771E-02  0.1093883E+00
          1   -1    0    0  502    0  0.00000000000E+00  0.00000000000E+00  0.55082162434E+03  0.55082162434E+03  0.00000000000E+00 0. -1.
         -2   -1    0    0    0  501 -0.00000000000E+00 -0.00000000000E+00 -0.18465390564E+03  0.18465390564E+03  0.00000000000E+00 0.  1.
         23    2    1    2    0    0  0.11163786145E+03 -0.26904021612E+03  0.20615458972E+03  0.36810558633E+03  0.90312556311E+02 0.  0.
        -24    2    1    2    0    0 -0.10029723077E+03  0.22999186007E+03  0.18314627482E+03  0.32058825437E+03  0.79236864287E+02 0.  0.
         11    1    4    4    0    0 -0.62820110588E+02  0.11805493044E+03  0.14328715452E+03  0.19599627941E+03  0.00000000000E+00 0. -1.
        -12    1    4    4    0    0 -0.37477120186E+02  0.11193692963E+03  0.39859120307E+02  0.12459197496E+03  0.00000000000E+00 0.  1.
        -11    1    3    3    0    0  0.88583996453E+02 -0.20449447720E+03  0.10609424208E+03  0.24682200841E+03  0.00000000000E+00 0.  1.
         11    1    3    3    0    0  0.23053864998E+02 -0.64545738922E+02  0.10006034764E+03  0.12128357792E+03  0.00000000000E+00 0. -1.
         21    1    1    2  502  501 -0.11340630676E+02  0.39048356054E+02 -0.23133145843E+02  0.46781689273E+02  0.00000000000E+00 0. -1.
<scales pt_clust_5="13000.00000" pt_clust_6="13000.00000" pt_clust_7="13000.00000" pt_clust_8="13000.00000" pt_clust_9="40.66183"></scales>
<clustering>
<clus scale="   40.662">  2  9  1 -1</clus>
<clus scale="   79.237">  5  6 -1 -1</clus>
<clus scale="   90.313">  7  8 -1 -1</clus>
<clus scale="  280.843">  1  5  2 -1</clus>
<clus scale="  280.843">  1  5  2 -1</clus>
</clustering>
</event>
<event>
 9    1  0.6106093E-005  0.1632738E+03  0.7546771E-02  0.1190591E+00
          1   -1    0    0  502    0  0.00000000000E+00  0.00000000000E+00  0.50609716751E+03  0.50609716751E+03  0.00000000000E+00 0. -1.
         -2   -1    0    0    0  501 -0.00000000000E+00 -0.00000000000E+00 -0.64231048021E+02  0.64231048021E+02  0.00000000000E+00 0.  1.
        -24    2    1    2    0    0 -0.33742243027E+02  0.10626122033E+03  0.14245273119E+03  0.20230542825E+03  0.90579908187E+02 0.  0.
         23    2    1    2    0    0  0.64899109835E+01 -0.11441960331E+03  0.29678487992E+03  0.33945431040E+03  0.11838073888E+03 0.  0.
         13    1    3    3    0    0 -0.64239633383E+02  0.83199810640E+02  0.11009027282E+03  0.15221303215E+03  0.00000000000E+00 0. -1.
        -14    1    3    3    0    0  0.30497390356E+02  0.23061409694E+02  0.32362458365E+02  0.50092396100E+02  0.00000000000E+00 0.  1.
        -11    1    4    4    0    0  0.37476359848E+02 -0.26392695703E+02  0.25252766449E+02  0.52333107564E+02  0.00000000000E+00 0.  1.
         11    1    4    4    0    0 -0.30986448864E+02 -0.88026907610E+02  0.27153211347E+03  0.28712120284E+03  0.00000000000E+00 0. -1.
         21    1    1    2  502  501  0.27252332044E+02  0.81583829788E+01  0.26285083883E+01  0.28568476876E+02  0.00000000000E+00 0. -1.
<scales pt_clust_5="13000.00000" pt_clust_6="13000.00000" pt_clust_7="13000.00000" pt_clust_8="13000.00000" pt_clust_9="28.44730"></scales>
<clustering>
<clus scale="   28.447">  2  9  1 -1</clus>
<clus scale="   90.580">  5  6 -1 -1</clus>
<clus scale="  118.381">  7  8 -1 -1</clus>
<clus scale="  144.392">  2  5  1 -1</clus>
<clus scale="  163.274">  1  5  2 -1</clus>
</clustering>
</event>
<event>
 9    1  0.6106093E-005  0.4401606E+03  0.7546771E-02  0.1065302E+00
         -2   -1    0    0    0  501 -0.00000000000E+00  0.00000000000E+00  0.34505527446E+03  0.34505527446E+03  0.00000000000E+00 0.  1.
          1   -1    0    0  502    0  0.00000000000E+00 -0.00000000000E+00 -0.10302808618E+04  0.10302808618E+04  0.00000000000E+00 0. -1.
         23    2    1    2    0    0 -0.34327057859E+03 -0.16829761776E+03 -0.38252400691E+03  0.54834976650E+03  0.90576334063E+02 0.  0.
        -24    2    1    2    0    0  0.47733877950E+01 -0.14079566015E+03 -0.32956528707E+03  0.36781247960E+03  0.82622869475E+02 0.  0.
         13    1    4    4    0    0 -0.30891762073E+02 -0.53469450102E+02 -0.18642338221E+03  0.19638472571E+03  0.00000000000E+00 0. -1.
        -14    1    4    4    0    0  0.35665149868E+02 -0.87326210050E+02 -0.14314190486E+03  0.17142775389E+03  0.00000000000E+00 0.  1.
        -11    1    3    3    0    0 -0.25574095129E+03 -0.11051077059E+03 -0.32729898173E+03  0.42981471360E+03  0.00000000000E+00 0. -1.
         11    1    3    3    0    0 -0.87529627300E+02 -0.57786847169E+02 -0.55225025177E+02  0.11853505290E+03  0.00000000000E+00 0.  1.
         21    1    1    2  502  501  0.33849719079E+03  0.30909327791E+03  0.26863706682E+02  0.45917389011E+03  0.00000000000E+00 0.  1.
<scales pt_clust_5="13000.00000" pt_clust_6="13000.00000" pt_clust_7="13000.00000" pt_clust_8="13000.00000" pt_clust_9="430.74034"></scales>
<clustering>
<clus scale="   82.623">  5  6 -1 -1</clus>
<clus scale="   90.576">  7  8 -1 -1</clus>
<clus scale="  163.318">  2  5  1 -1</clus>
<clus scale="  430.740">  1  9  2 -1</clus>
<clus scale="  163.318">  2  5  1 -1</clus>
</clustering>
</event>
<event>
 9    1  0.6106093E-005  0.2523129E+03  0.7546771E-02  0.1112392E+00
         -2   -1    0    0    0  501 -0.00000000000E+00  0.00000000000E+00  0.10589798437E+03  0.10589798437E+03  0.00000000000E+00 0.  1.
          1   -1    0    0  502    0  0.00000000000E+00 -0.00000000000E+00 -0.92883950415E+03  0.92883950415E+03  0.00000000000E+00 0. -1.
        -24    2    1    2    0    0 -0.38519747868E+02 -0.20493848514E+03 -0.90167671237E+02  0.24060754163E+03  0.79235260373E+02 0.  0.
         23    2    1    2    0    0  0.43248357920E+02  0.24068537514E+03 -0.69371550840E+03  0.74097212684E+03  0.89434981398E+02 0.  0.
         13    1    3    3    0    0  0.13224285107E+02 -0.95153921133E+02 -0.13398384485E+02  0.96998284162E+02  0.00000000000E+00 0. -1.
        -14    1    3    3    0    0 -0.51744032975E+02 -0.10978456401E+03 -0.76769286751E+02  0.14360925747E+03  0.00000000000E+00 0.  1.
        -11    1    4    4    0    0  0.33049120896E+02  0.18555746384E+02 -0.93445941753E+02  0.10083999279E+03  0.00000000000E+00 0.  1.
         11    1    4    4    0    0  0.10199237024E+02  0.22212962876E+03 -0.60026956664E+03  0.64013213405E+03  0.00000000000E+00 0. -1.
         21    1    1    2  502  501 -0.47286100516E+01 -0.35746889996E+02 -0.39058340138E+02  0.53157820043E+02  0.00000000000E+00 0. -1.
<scales pt_clust_5="13000.00000" pt_clust_6="13000.00000" pt_clust_7="13000.00000" pt_clust_8="13000.00000" pt_clust_9="36.05828"></scales>
<clustering>
<clus scale="   36.058">  1  9  2 -1</clus>
<clus scale="   79.235">  5  6 -1 -1</clus>
<clus scale="   89.435">  7  8 -1 -1</clus>
<clus scale="  248.880">  1  5  2 -1</clus>
<clus scale="  252.313">  2  5  1 -1</clus>
</clustering>
</event>
<event>
 9    1  0.6106093E-005  0.9875514E+02  0.7546771E-02  0.1287946E+00
         -2   -1    0    0    0  501 -0.00000000000E+00  0.00000000000E+00  0.25201177366E+03  0.25201177366E+03  0.00000000000E+00 0.  1.
          1   -1    0    0  502    0  0.00000000000E+00 -0.00000000000E+00 -0.16322503788E+03  0.16322503788E+03  0.00000000000E+00 0. -1.
        -24    2    1    2    0    0  0.83661802273E+02  0.29048485268E+02  0.24583745828E+02  0.12223252668E+03  0.80581129086E+02 0.  0.
         23    2    1    2    0    0 -0.27229411383E+02  0.63692535507E+01 -0.86513517860E+02  0.12821806973E+03  0.90406174559E+02 0.  0.
         11    1    3    3    0    0  0.95982485472E+02  0.36282317879E+02  0.30072646054E+02  0.10692711606E+03  0.00000000000E+00 0. -1.
        -12    1    3    3    0    0 -0.12320683198E+02 -0.72338326111E+01 -0.54889002261E+01  0.15305410626E+02  0.00000000000E+00 0.  1.
        -11    1    4    4    0    0  0.10061309739E+02  0.41714212352E+02 -0.44825647397E+02  0.62053558564E+02  0.00000000000E+00 0. -1.
         11    1    4    4    0    0 -0.37290721122E+02 -0.35344958801E+02 -0.41687870462E+02  0.66164511169E+02  0.00000000000E+00 0.  1.
         21    1    1    2  502  501 -0.56432390890E+02 -0.35417738819E+02  0.15071650781E+03  0.16478621511E+03  0.00000000000E+00 0.  1.
<scales pt_clust_5="13000.00000" pt_clust_6="13000.00000" pt_clust_7="13000.00000" pt_clust_8="13000.00000" pt_clust_9="66.62605"></scales>
<clustering>
<clus scale="   66.626">  1  9  2 -1</clus>
<clus scale="   80.581">  5  6 -1 -1</clus>
<clus scale="   89.848">  1  5  2 -1</clus>
<clus scale="   90.406">  7  8 -1 -1</clus>
<clus scale="   98.755">  2  5  1 -1</clus>
</clustering>
</event>
<event>
 9    1  0.6106093E-005  0.9380036E+02  0.7546771E-02  0.1301386E+00
          1   -1    0    0  502    0  0.00000000000E+00  0.00000000000E+00  0.31521395949E+02  0.31521395949E+02  0.00000000000E+00 0. -1.
         -2   -1    0    0    0  501 -0.00000000000E+00 -0.00000000000E+00 -0.60142863653E+03  0.60142863653E+03  0.00000000000E+00 0.  1.
         23    2    1    2    0    0  0.36853518976E+02  0.23429317083E+02 -0.34541199862E+03  0.36022954963E+03  0.92459530989E+02 0.  0.
        -24    2    1    2    0    0 -0.87128956782E+01 -0.50808552872E+01 -0.49916354906E+02  0.94938738756E+02  0.80124852498E+02 0.  0.
         11    1    4    4    0    0  0.69515527395E+01 -0.40992375835E+02 -0.25566079320E+02  0.48809050123E+02  0.00000000000E+00 0. -1.
        -12    1    4    4    0    0 -0.15664448418E+02  0.35911520548E+02 -0.24350275585E+02  0.46129688633E+02  0.00000000000E+00 0.  1.
        -11    1    3    3    0    0 -0.39257962233E+01  0.44821421425E+02 -0.89122275523E+02  0.99835623347E+02  0.00000000000E+00 0.  1.
         11    1    3    3    0    0  0.40779315199E+02 -0.21392104343E+02 -0.25628972310E+03  0.26039392628E+03  0.00000000000E+00 0. -1.
         21    1    1    2  502  501 -0.28140623298E+02 -0.18348461795E+02 -0.17457888705E+03  0.17778174410E+03  0.00000000000E+00 0.  1.
<scales pt_clust_5="13000.00000" pt_clust_6="13000.00000" pt_clust_7="13000.00000" pt_clust_8="13000.00000" pt_clust_9="33.59406"></scales>
<clustering>
<clus scale="   33.594">  2  9  1 -1</clus>
<clus scale="   80.125">  5  6 -1 -1</clus>
<clus scale="   81.668">  1  5  2 -1</clus>
<clus scale="   92.460">  7  8 -1 -1</clus>
<clus scale="   81.668">  1  5  2 -1</clus>
</clustering>
</event>
<event>
 9    1  0.6106093E-005  0.9047211E+02  0.7546771E-02  0.1306872E+00
          1   -1    0    0  502    0  0.00000000000E+00  0.00000000000E+00  0.20027099273E+03  0.20027099273E+03  0.00000000000E+00 0. -1.
         -2   -1    0    0    0  501 -0.00000000000E+00 -0.00000000000E+00 -0.25604679959E+03  0.25604679959E+03  0.00000000000E+00 0.  1.
         23    2    1    2    0    0  0.47311414335E+02 -0.11960991298E+02 -0.19162579767E+03  0.21691560069E+03  0.89165555303E+02 0.  0.
        -24    2    1    2    0    0 -0.30368378746E+01  0.14590390934E+02  0.16635421659E+03  0.18557227752E+03  0.80877950734E+02 0.  0.
         11    1    4    4    0    0 -0.32118763497E+02 -0.34818060569E+01  0.13609752207E+03  0.13987949619E+03  0.00000000000E+00 0. -1.
        -12    1    4    4    0    0  0.29081925622E+02  0.18072196990E+02  0.30256694518E+02  0.45692781324E+02  0.00000000000E+00 0.  1.
        -11    1    3    3    0    0  0.29241474275E+02 -0.50633197454E+02 -0.10011122842E+03  0.11593551034E+03  0.00000000000E+00 0.  1.
         11    1    3    3    0    0  0.18069940060E+02  0.38672206156E+02 -0.91514569249E+02  0.10098009035E+03  0.00000000000E+00 0. -1.
         21    1    1    2  502  501 -0.44274576461E+02 -0.26293996356E+01 -0.30504225772E+02  0.53829914111E+02  0.00000000000E+00 0. -1.
<scales pt_clust_5="13000.00000" pt_clust_6="13000.00000" pt_clust_7="13000.00000" pt_clust_8="13000.00000" pt_clust_9="44.35259"></scales>
<clustering>
<clus scale="   44.353">  2  9  1 -1</clus>
<clus scale="   80.878">  5  6 -1 -1</clus>
<clus scale="   82.316">  1  5  2 -1</clus>
<clus scale="   89.166">  7  8 -1 -1</clus>
<clus scale="   82.316">  1  5  2 -1</clus>
</clustering>
</event>
<event>
 9    1  0.6106093E-005  0.1185282E+03  0.7546771E-02  0.1249006E+00
         -2   -1    0    0    0  501 -0.00000000000E+00  0.00000000000E+00  0.11693453699E+03  0.11693453699E+03  0.00000000000E+00 0.  1.
          1   -1    0    0  502    0  0.00000000000E+00 -0.00000000000E+00 -0.38251666543E+03  0.38251666543E+03  0.00000000000E+00 0. -1.
         23    2    1    2    0    0 -0.21469544023E+02 -0.49611835914E+02  0.62343589071E+02  0.12319537425E+03  0.91477328099E+02 0.  0.
        -24    2    1    2    0    0  0.30409289083E+02  0.71255273737E+02 -0.33381591336E+03  0.35210936156E+03  0.80906733865E+02 0.  0.
         11    1    4    4    0    0  0.47658701251E+02  0.73653239069E+02 -0.31251792575E+03  0.32459760526E+03  0.00000000000E+00 0. -1.
        -12    1    4    4    0    0 -0.17249412168E+02 -0.23979653314E+01 -0.21297987615E+02  0.27511756293E+02  0.00000000000E+00 0.  1.
        -11    1    3    3    0    0  0.21579413854E+02 -0.10636545794E+02  0.60485164840E+02  0.65094257614E+02  0.00000000000E+00 0.  1.
         11    1    3    3    0    0 -0.43048957876E+02 -0.38975290120E+02  0.18584242310E+01  0.58101116640E+02  0.00000000000E+00 0. -1.
         21    1    1    2  502  501 -0.89397450602E+01 -0.21643437824E+02  0.58901958470E+01  0.24146466609E+02  0.00000000000E+00 0. -1.
<scales pt_clust_5="13000.00000" pt_clust_6="13000.00000" pt_clust_7="13000.00000" pt_clust_8="13000.00000" pt_clust_9="23.41703"></scales>
<clustering>
<clus scale="   23.417">  1  9  2 -1</clus>
<clus scale="   80.907">  5  6 -1 -1</clus>
<clus scale="   91.477">  7  8 -1 -1</clus>
<clus scale="  110.575">  2  5  1 -1</clus>
<clus scale="  110.575">  2  5  1 -1</clus>
</clustering>
</event>
<event>
 9    1  0.6106093E-005  0.1285795E+03  0.7546771E-02  0.1239524E+00
          3   -1    0    0  502    0  0.00000000000E+00  0.00000000000E+00  0.75602401577E+02  0.75602401577E+02  0.00000000000E+00 0. -1.
         -4   -1    0    0    0  501 -0.00000000000E+00 -0.00000000000E+00 -0.37747842429E+03  0.37747842429E+03  0.00000000000E+00 0.  1.
         23    2    1    2    0    0  0.10176304932E+02  0.89755677536E+02 -0.14030496266E+03  0.19689162179E+03  0.10450449442E+03 0.  0.
        -24    2    1    2    0    0  0.65914749909E+02 -0.50015977215E+02 -0.71156795489E+02  0.13151430025E+03  0.73391889146E+02 0.  0.
         13    1    4    4    0    0  0.74849474238E+01 -0.47362497103E+02 -0.50101926164E+02  0.69350079849E+02  0.00000000000E+00 0. -1.
        -14    1    4    4    0    0  0.58429802485E+02 -0.26534801121E+01 -0.21054869326E+02  0.62164220396E+02  0.00000000000E+00 0.  1.
        -11    1    3    3    0    0  0.56402379123E+02  0.42152749895E+02 -0.58391852235E+02  0.91475084596E+02  0.00000000000E+00 0. -1.
         11    1    3    3    0    0 -0.46226074191E+02  0.47602927641E+02 -0.81913110426E+02  0.10541653720E+03  0.00000000000E+00 0.  1.
         21    1    1    2  502  501 -0.76091054841E+02 -0.39739700322E+02 -0.90414264567E+02  0.12467490383E+03  0.00000000000E+00 0. -1.
<scales pt_clust_5="13000.00000" pt_clust_6="13000.00000" pt_clust_7="13000.00000" pt_clust_8="13000.00000" pt_clust_9="85.84342"></scales>
<clustering>
<clus scale="   73.392">  5  6 -1 -1</clus>
<clus scale="   85.843">  2  9  1 -1</clus>
<clus scale="  104.504">  7  8 -1 -1</clus>
<clus scale="  104.871">  1  5  2 -1</clus>
<clus scale="  104.871">  1  5  2 -1</clus>
</clustering>
</event>
<event>
 9    1  0.6106093E-005  0.9733693E+02  0.7546771E-02  0.1292538E+00
          1   -1    0    0  502    0  0.00000000000E+00  0.00000000000E+00  0.59191342581E+02  0.59191342581E+02  0.00000000000E+00 0. -1.
         -2   -1    0    0    0  501 -0.00000000000E+00 -0.00000000000E+00 -0.22132449304E+03  0.22132449304E+03  0.00000000000E+00 0.  1.
        -24    2    1    2    0    0  0.70988741190E+01  0.19992221451E+02 -0.81879078250E+02  0.11700226768E+03  0.80840981288E+02 0.  0.
         23    2    1    2    0    0  0.28395849598E+02 -0.31851377997E+02 -0.43137865100E+02  0.11080561943E+03  0.92715561462E+02 0.  0.
         13    1    3    3    0    0 -0.11479063873E+02 -0.27560107635E+02 -0.16697187828E+02  0.34207082916E+02  0.00000000000E+00 0. -1.
        -14    1    3    3    0    0  0.18577937992E+02  0.47552329086E+02 -0.65181890421E+02  0.82795184766E+02  0.00000000000E+00 0.  1.
        -13    1    4    4    0    0  0.38213264978E+02 -0.12023634895E+02 -0.67126577053E+02  0.78171598188E+02  0.00000000000E+00 0.  1.
         13    1    4    4    0    0 -0.98174153798E+01 -0.19827743102E+02  0.23988711954E+02  0.32634021242E+02  0.00000000000E+00 0. -1.
         21    1    1    2  502  501 -0.35494723717E+02  0.11859156546E+02 -0.37116207109E+02  0.52707948507E+02  0.00000000000E+00 0.  1.
<scales pt_clust_5="13000.00000" pt_clust_6="13000.00000" pt_clust_7="13000.00000" pt_clust_8="13000.00000" pt_clust_9="37.42346"></scales>
<clustering>
<clus scale="   37.423">  2  9  1 -1</clus>
<clus scale="   80.841">  5  6 -1 -1</clus>
<clus scale="   86.102">  2  5  1 -1</clus>
<clus scale="   92.716">  7  8 -1 -1</clus>
<clus scale="   97.337">  1  5  2 -1</clus>
</clustering>
</event>
<event>
 9    1  0.6106093E-005  0.9927595E+02  0.7546771E-02  0.1289060E+00
          1   -1    0    0  502    0  0.00000000000E+00  0.00000000000E+00  0.30889396495E+03  0.30889396495E+03  0.00000000000E+00 0. -1.
         -2   -1    0    0    0  501 -0.00000000000E+00 -0.00000000000E+00 -0.17607446397E+03  0.17607446397E+03  0.00000000000E+00 0.  1.
        -24    2    1    2    0    0  0.32187808743E+02  0.39751673095E+02 -0.10939238131E+03  0.14439892840E+03  0.79171376703E+02 0.  0.
         23    2    1    2    0    0 -0.27943678683E+02 -0.19660871922E+02  0.28032647669E+03  0.29727544507E+03  0.92856651048E+02 0.  0.
         11    1    3    3    0    0  0.44834241203E+01  0.29624405243E+02  0.11548125483E+01  0.29983996896E+02  0.00000000000E+00 0. -1.
        -12    1    3    3    0    0  0.27704384623E+02  0.10127267852E+02 -0.11054719385E+03  0.11441493150E+03  0.00000000000E+00 0.  1.
        -13    1    4    4    0    0 -0.22419194332E+02  0.31864324347E+02  0.18206242943E+03  0.18618454192E+03  0.00000000000E+00 0.  1.
         13    1    4    4    0    0 -0.55244843506E+01 -0.51525196269E+02  0.98264047256E+02  0.11109090314E+03  0.00000000000E+00 0. -1.
         21    1    1    2  502  501 -0.42441300604E+01 -0.20090801172E+02 -0.38114594398E+02  0.43294055456E+02  0.00000000000E+00 0.  1.
<scales pt_clust_5="13000.00000" pt_clust_6="13000.00000" pt_clust_7="13000.00000" pt_clust_8="13000.00000" pt_clust_9="20.53419"></scales>
<clustering>
<clus scale="   20.534">  2  9  1 -1</clus>
<clus scale="   79.171">  5  6 -1 -1</clus>
<clus scale="   86.611">  2  5  1 -1</clus>
<clus scale="   92.857">  7  8 -1 -1</clus>
<clus scale="   99.276">  1  5  2 -1</clus>
</clustering>
</event>
<event>
 9    1  0.6106093E-005  0.1188060E+03  0.7546771E-02  0.1248336E+00
          1   -1    0    0  502    0  0.00000000000E+00  0.00000000000E+00  0.22194033184E+03  0.22194033184E+03  0.00000000000E+00 0. -1.
         -2   -1    0    0    0  501 -0.00000000000E+00 -0.00000000000E+00 -0.50440718848E+03  0.50440718848E+03  0.00000000000E+00 0.  1.
         23    2    1    2    0    0  0.79348472833E+02  0.31648269349E+02 -0.42577388174E+03  0.44369009488E+03  0.90992905401E+02 0.  0.
        -24    2    1    2    0    0 -0.53474536646E+02 -0.54451114927E+02  0.19264893082E+03  0.22245730915E+03  0.80927089773E+02 0.  0.
         13    1    4    4    0    0 -0.54924208734E+02 -0.29677240546E+02  0.18680716514E+03  0.19696274841E+03  0.00000000000E+00 0. -1.
        -14    1    4    4    0    0  0.14496720883E+01 -0.24773874381E+02  0.58417656803E+01  0.25494560739E+02  0.00000000000E+00 0.  1.
        -13    1    3    3    0    0  0.90507395776E+02  0.49290880889E+02 -0.37182300031E+03  0.38584131866E+03  0.00000000000E+00 0.  1.
         13    1    3    3    0    0 -0.11158922943E+02 -0.17642611540E+02 -0.53950881433E+02  0.57848776223E+02  0.00000000000E+00 0. -1.
         21    1    1    2  502  501 -0.25873936187E+02  0.22802845578E+02 -0.49341905725E+02  0.60200116286E+02  0.00000000000E+00 0. -1.
<scales pt_clust_5="13000.00000" pt_clust_6="13000.00000" pt_clust_7="13000.00000" pt_clust_8="13000.00000" pt_clust_9="34.48812"></scales>
<clustering>
<clus scale="   34.488">  2  9  1 -1</clus>
<clus scale="   80.927">  5  6 -1 -1</clus>
<clus scale="   90.993">  7  8 -1 -1</clus>
<clus scale="  111.285">  1  5  2 -1</clus>
<clus scale="  111.285">  1  5  2 -1</clus>
</clustering>
</event>
<event>
 9    1  0.6106093E-005  0.1239795E+03  0.7546771E-02  0.1239892E+00
         -2   -1    0    0    0  501 -0.00000000000E+00  0.00000000000E+00  0.33371077205E+03  0.33371077205E+03  0.00000000000E+00 0.  1.
          1   -1    0    0  502    0  0.00000000000E+00 -0.00000000000E+00 -0.14560066863E+03  0.14560066863E+03  0.00000000000E+00 0. -1.
        -24    2    1    2    0    0  0.63701566586E+02  0.93225832955E+02  0.25667687015E+03  0.29143122454E+03  0.79373783178E+02 0.  0.
         23    2    1    2    0    0 -0.37266209232E+02 -0.72599545709E+02 -0.86897602721E+02  0.14966645694E+03  0.90495251742E+02 0.  0.
         11    1    3    3    0    0  0.74304574379E+02  0.41323557022E+02  0.15560312337E+03  0.17731649146E+03  0.00000000000E+00 0. -1.
        -12    1    3    3    0    0 -0.10603007793E+02  0.51902275933E+02  0.10107374677E+03  0.11411473309E+03  0.00000000000E+00 0.  1.
        -13    1    4    4    0    0 -0.24249194329E+02 -0.35596415816E+02 -0.99535596949E+02  0.10845489064E+03  0.00000000000E+00 0. -1.
         13    1    4    4    0    0 -0.13017014903E+02 -0.37003129893E+02  0.12637994228E+02  0.41211566301E+02  0.00000000000E+00 0.  1.
         21    1    1    2  502  501 -0.26435357354E+02 -0.20626287246E+02  0.18330835995E+02  0.38213759201E+02  0.00000000000E+00 0. -1.
<scales pt_clust_5="13000.00000" pt_clust_6="13000.00000" pt_clust_7="13000.00000" pt_clust_8="13000.00000" pt_clust_9="33.53016"></scales>
<clustering>
<clus scale="   33.530">  1  9  2 -1</clus>
<clus scale="   79.374">  5  6 -1 -1</clus>
<clus scale="   90.495">  7  8 -1 -1</clus>
<clus scale="  116.111">  1  5  2 -1</clus>
<clus scale="  123.979">  2  5  1 -1</clus>
</clustering>
</event>
<event>
 9    1  0.6106093E-005  0.2446325E+03  0.7546771E-02  0.1117909E+00
          1   -1    0    0  502    0  0.00000000000E+00  0.00000000000E+00  0.14261133205E+04  0.14261133205E+04  0.00000000000E+00 0. -1.
         -2   -1    0    0    0  501 -0.00000000000E+00 -0.00000000000E+00 -0.46850217034E+02  0.46850217034E+02  0.00000000000E+00 0.  1.
        -24    2    1    2    0    0  0.13877571663E+03 -0.15366741162E+03  0.59818771930E+03  0.63853009886E+03  0.83784048005E+02 0.  0.
         23    2    1    2    0    0 -0.16160496411E+03  0.17726477750E+03  0.68764207904E+03  0.73539913794E+03  0.10208475619E+03 0.  0.
         11    1    3    3    0    0  0.74482411595E+02 -0.86684015376E+02  0.20678961557E+03  0.23627038169E+03  0.00000000000E+00 0. -1.
        -12    1    3    3    0    0  0.64293305040E+02 -0.66983396239E+02  0.39139810373E+03  0.40225971716E+03  0.00000000000E+00 0.  1.
        -13    1    4    4    0    0 -0.92105484793E+02  0.16562133916E+03  0.47619180067E+03  0.51251583326E+03  0.00000000000E+00 0.  1.
         13    1    4    4    0    0 -0.69499479316E+02  0.11643438333E+02  0.21145027836E+03  0.22288330467E+03  0.00000000000E+00 0. -1.
         21    1    1    2  502  501  0.22829247475E+02 -0.23597365882E+02  0.93433305094E+02  0.99034300713E+02  0.00000000000E+00 0.  1.
<scales pt_clust_5="13000.00000" pt_clust_6="13000.00000" pt_clust_7="13000.00000" pt_clust_8="13000.00000" pt_clust_9="32.83307"></scales>
<clustering>
<clus scale="   32.833">  1  9  2 -1</clus>
<clus scale="   83.784">  5  6 -1 -1</clus>
<clus scale="  102.085">  7  8 -1 -1</clus>
<clus scale="  237.578">  2  5  1 -1</clus>
<clus scale="   32.833">  1  5  2 -1</clus>
</clustering>
</event>
<event>
 9    1  0.6106093E-005  0.1620946E+03  0.7546771E-02  0.1187312E+00
          3   -1    0    0  502    0  0.00000000000E+00  0.00000000000E+00  0.54628387892E+03  0.54628387892E+03  0.00000000000E+00 0. -1.
         -4   -1    0    0    0  501 -0.00000000000E+00 -0.00000000000E+00 -0.97348076585E+02  0.97348076585E+02  0.00000000000E+00 0.  1.
        -24    2    1    2    0    0 -0.13477048838E+01 -0.19576020573E+03  0.16374193753E+03  0.26963080916E+03  0.86979748710E+02 0.  0.
         23    2    1    2    0    0  0.48973705100E+01  0.10828875584E+03  0.22919448777E+03  0.27007913279E+03  0.93070864753E+02 0.  0.
         13    1    3    3    0    0 -0.43383285125E+02 -0.84928974751E+02  0.65763691384E+02  0.11584430623E+03  0.00000000000E+00 0. -1.
        -14    1    3    3    0    0  0.42035580241E+02 -0.11083123098E+03  0.97978246141E+02  0.15378650293E+03  0.00000000000E+00 0.  1.
        -11    1    4    4    0    0  0.37995583226E+02  0.35600321434E+02  0.14482883192E+03  0.15390398885E+03  0.00000000000E+00 0.  1.
         11    1    4    4    0    0 -0.33098212716E+02  0.72688434407E+02  0.84365655858E+02  0.11617514394E+03  0.00000000000E+00 0. -1.
         21    1    1    2  502  501 -0.35496656262E+01  0.87471449892E+02  0.55999377032E+02  0.10392201355E+03  0.00000000000E+00 0.  1.
<scales pt_clust_5="13000.00000" pt_clust_6="13000.00000" pt_clust_7="13000.00000" pt_clust_8="13000.00000" pt_clust_9="87.54344"></scales>
<clustering>
<clus scale="   86.980">  5  6 -1 -1</clus>
<clus scale="   87.543">  2  9  1 -1</clus>
<clus scale="   93.071">  7  8 -1 -1</clus>
<clus scale="  158.676">  2  5  1 -1</clus>
<clus scale="  162.095">  1  5  2 -1</clus>
</clustering>
</event>
<event>
 9    1  0.6106093E-005  0.1575325E+03  0.7546771E-02  0.1193505E+00
          1   -1    0    0  502    0  0.00000000000E+00  0.00000000000E+00  0.57298999637E+03  0.57298999637E+03  0.00000000000E+00 0. -1.
         -2   -1    0    0    0  501 -0.00000000000E+00 -0.00000000000E+00 -0.32387506288E+03  0.32387506288E+03  0.00000000000E+00 0.  1.
         23    2    1    2    0    0  0.75301677647E+02  0.74332466216E+02 -0.25405847769E+03  0.29007591185E+03  0.91666058925E+02 0.  0.
        -24    2    1    2    0    0 -0.93194358896E+02 -0.89151437392E+02  0.54132250398E+03  0.56212256895E+03  0.79489382260E+02 0.  0.
         11    1    4    4    0    0 -0.48908727817E+02 -0.73641022832E+02  0.21533166298E+03  0.23277196777E+03  0.00000000000E+00 0. -1.
        -12    1    4    4    0    0 -0.44285631079E+02 -0.15510414559E+02  0.32599084100E+03  0.32935060118E+03  0.00000000000E+00 0.  1.
        -13    1    3    3    0    0  0.29734480823E+02  0.86695855501E+02 -0.18443820733E+03  0.20595573077E+03  0.00000000000E+00 0.  1.
         13    1    3    3    0    0  0.45567196824E+02 -0.12363389285E+02 -0.69620270355E+02  0.84120181082E+02  0.00000000000E+00 0. -1.
         21    1    1    2  502  501  0.17892681249E+02  0.14818971175E+02 -0.38149092797E+02  0.44666578447E+02  0.00000000000E+00 0.  1.
<scales pt_clust_5="13000.00000" pt_clust_6="13000.00000" pt_clust_7="13000.00000" pt_clust_8="13000.00000" pt_clust_9="23.23252"></scales>
<clustering>
<clus scale="   23.233">  2  9  1 -1</clus>
<clus scale="   79.489">  5  6 -1 -1</clus>
<clus scale="   91.666">  7  8 -1 -1</clus>
<clus scale="  150.773">  1  5  2 -1</clus>
<clus scale="  150.773">  1  5  2 -1</clus>
</clustering>
</event>
<event>
 9    1  0.6780355E-005  0.1072180E+03  0.7546771E-02  0.1276158E+00
          1   -1    0    0  502    0  0.00000000000E+00  0.00000000000E+00  0.13262510137E+03  0.13262510137E+03  0.00000000000E+00 0. -1.
         -2   -1    0    0    0  501 -0.00000000000E+00 -0.00000000000E+00 -0.65151276891E+03  0.65151276891E+03  0.00000000000E+00 0.  1.
        -24    2    1    2    0    0  0.25865575415E+02 -0.28867761765E+02 -0.54055102067E+03  0.54786086996E+03  0.80335242716E+02 0.  0.
         23    2    1    2    0    0 -0.34056498016E+02 -0.12568704232E+02  0.10028835727E+03  0.14702475552E+03  0.10119637715E+03 0.  0.
         11    1    3    3    0    0  0.14957924158E+02 -0.52384040370E+02 -0.23589002790E+03  0.24209901372E+03  0.00000000000E+00 0. -1.
        -12    1    3    3    0    0  0.10907651256E+02  0.23516278605E+02 -0.30466099277E+03  0.30576185624E+03  0.00000000000E+00 0.  1.
        -11    1    4    4    0    0  0.34778813759E+01 -0.24689821346E+02 -0.12245777439E+02  0.27778444918E+02  0.00000000000E+00 0.  1.
         11    1    4    4    0    0 -0.37534379392E+02  0.12121117114E+02  0.11253413471E+03  0.11924631060E+03  0.00000000000E+00 0. -1.
         21    1    1    2  502  501  0.81909226015E+01  0.41436465997E+02 -0.78625004144E+02  0.89252244812E+02  0.00000000000E+00 0.  1.
<scales pt_clust_5="13000.00000" pt_clust_6="13000.00000" pt_clust_7="13000.00000" pt_clust_8="13000.00000" pt_clust_9="42.23828"></scales>
<clustering>
<clus scale="   42.238">  2  9  1 -1</clus>
<clus scale="   80.335">  5  6 -1 -1</clus>
<clus scale="   87.799">  2  5  1 -1</clus>
<clus scale="  101.196">  7  8 -1 -1</clus>
<clus scale="  107.218">  1  5  2 -1</clus>
</clustering>
</event>
<event>
 9    1  0.6106093E-005  0.2669963E+03  0.7546771E-02  0.1103011E+00
         -2   -1    0    0    0  501 -0.00000000000E+00  0.00000000000E+00  0.12967560020E+03  0.12967560020E+03  0.00000000000E+00 0.  1.
          1   -1    0    0  502    0  0.00000000000E+00 -0.00000000000E+00 -0.62218081615E+03  0.62218081615E+03  0.00000000000E+00 0. -1.
        -24    2    1    2    0    0  0.50543187569E+02  0.85373664566E+02 -0.20304134457E+03  0.24036497800E+03  0.81891749474E+02 0.  0.
         23    2    1    2    0    0  0.52593017003E+02  0.80678762798E+02 -0.28503385700E+03  0.31596622168E+03  0.96515622597E+02 0.  0.
         11    1    3    3    0    0  0.26971861834E+02  0.79291007812E+02 -0.19871010226E+03  0.21563916618E+03  0.00000000000E+00 0. -1.
        -12    1    3    3    0    0  0.23571325735E+02  0.60826567538E+01 -0.43312423103E+01  0.24725811818E+02  0.00000000000E+00 0.  1.
        -11    1    4    4    0    0  0.13671444944E+02  0.69242529963E+02 -0.25735122784E+03  0.26685406280E+03  0.00000000000E+00 0.  1.
         11    1    4    4    0    0  0.38921572059E+02  0.11436232835E+02 -0.27682629159E+02  0.49112158883E+02  0.00000000000E+00 0. -1.
         21    1    1    2  502  501 -0.10313620457E+03 -0.16605242736E+03 -0.44300143909E+01  0.19552521667E+03  0.00000000000E+00 0.  1.
<scales pt_clust_5="13000.00000" pt_clust_6="13000.00000" pt_clust_7="13000.00000" pt_clust_8="13000.00000" pt_clust_9="195.47502"></scales>
<clustering>
<clus scale="   81.892">  5  6 -1 -1</clus>
<clus scale="   96.516">  7  8 -1 -1</clus>
<clus scale="  102.572">  5  7 -1 -1</clus>
<clus scale="  195.475">  1  9  2 -1</clus>
<clus scale="  266.996">  2  5  1 -1</clus>
</clustering>
</event>
<event>
 9    1  0.6106093E-005  0.1689248E+03  0.7546771E-02  0.1182016E+00
          3   -1    0    0  502    0  0.00000000000E+00  0.00000000000E+00  0.18681531704E+03  0.18681531704E+03  0.00000000000E+00 0. -1.
         -4   -1    0    0    0  501 -0.00000000000E+00 -0.00000000000E+00 -0.53395005567E+03  0.53395005567E+03  0.00000000000E+00 0.  1.
        -24    2    1    2    0    0  0.11137016276E+03 -0.10906068770E+03 -0.45108197149E+03  0.48121702157E+03  0.61622480402E+02 0.  0.
         23    2    1    2    0    0 -0.83940311783E+02  0.11756017182E+03  0.11999122567E+03  0.20665385827E+03  0.86264436231E+02 0.  0.
         11    1    3    3    0    0  0.46668073669E+02 -0.33417878804E+02 -0.90664232684E+02  0.10730641552E+03  0.00000000000E+00 0. -1.
        -12    1    3    3    0    0  0.64702089094E+02 -0.75642808894E+02 -0.36041773881E+03  0.37391060605E+03  0.00000000000E+00 0.  1.
        -13    1    4    4    0    0  0.62611709517E+01  0.39430366566E+02  0.38119076523E+01  0.40105943564E+02  0.00000000000E+00 0.  1.
         13    1    4    4    0    0 -0.90201482734E+02  0.78129805254E+02  0.11617931802E+03  0.16654791471E+03  0.00000000000E+00 0. -1.
         21    1    1    2  502  501 -0.27429850981E+02 -0.84994841231E+01 -0.16043992817E+02  0.32894492863E+02  0.00000000000E+00 0.  1.
<scales pt_clust_5="13000.00000" pt_clust_6="13000.00000" pt_clust_7="13000.00000" pt_clust_8="13000.00000" pt_clust_9="28.71651"></scales>
<clustering>
<clus scale="   28.717">  2  9  1 -1</clus>
<clus scale="   61.622">  5  6 -1 -1</clus>
<clus scale="   86.264">  7  8 -1 -1</clus>
<clus scale="  157.770">  2  5  1 -1</clus>
<clus scale="  168.925">  1  5  2 -1</clus>
</clustering>
</event>
<event>
 9    1  0.6106093E-005  0.1399987E+03  0.7546771E-02  0.1235827E+00
         -2   -1    0    0    0  501 -0.00000000000E+00  0.00000000000E+00  0.98616165328E+02  0.98616165328E+02  0.00000000000E+00 0.  1.
          1   -1    0    0  502    0  0.00000000000E+00 -0.00000000000E+00 -0.31071278834E+03  0.31071278834E+03  0.00000000000E+00 0. -1.
         23    2    1    2    0    0 -0.90079513616E+02  0.28316752795E+02 -0.10097247075E+03  0.16755493956E+03  0.94673442215E+02 0.  0.
        -24    2    1    2    0    0  0.37237045612E+01  0.38160883475E+02 -0.98884287186E+02  0.13210899608E+03  0.78769064936E+02 0.  0.
         13    1    4    4    0    0  0.12293449447E+02  0.42342777560E+02 -0.10937768129E+03  0.11793013557E+03  0.00000000000E+00 0. -1.
        -14    1    4    4    0    0 -0.85697448853E+01 -0.41818940851E+01  0.10493394108E+02  0.14178860513E+02  0.00000000000E+00 0.  1.
        -13    1    3    3    0    0 -0.39516337577E+02 -0.33162946982E+02 -0.55949472547E+02  0.76102992493E+02  0.00000000000E+00 0. -1.
         13    1    3    3    0    0 -0.50563176039E+02  0.61479699777E+02 -0.45022998199E+02  0.91451947069E+02  0.00000000000E+00 0.  1.
         21    1    1    2  502  501  0.86355809055E+02 -0.66477636270E+02 -0.12239865085E+02  0.10966501803E+03  0.00000000000E+00 0. -1.
<scales pt_clust_5="13000.00000" pt_clust_6="13000.00000" pt_clust_7="13000.00000" pt_clust_8="13000.00000" pt_clust_9="103.13372"></scales>
<clustering>
<clus scale="   78.769">  5  6 -1 -1</clus>
<clus scale="   87.605">  2  5  1 -1</clus>
<clus scale="   94.673">  7  8 -1 -1</clus>
<clus scale="  103.134">  1  9  2 -1</clus>
<clus scale="   87.605">  2  5  1 -1</clus>
</clustering>
</event>
<event>
 9    1  0.6106093E-005  0.1376428E+03  0.7546771E-02  0.1217378E+00
          1   -1    0    0  502    0  0.00000000000E+00  0.00000000000E+00  0.10380745241E+04  0.10380745241E+04  0.00000000000E+00 0. -1.
         -2   -1    0    0    0  501 -0.00000000000E+00 -0.00000000000E+00 -0.23289609852E+02  0.23289609852E+02  0.00000000000E+00 0.  1.
        -24    2    1    2    0    0  0.49742205124E+02 -0.92878349286E+02  0.37663897538E+03  0.39882022866E+03  0.78102383266E+02 0.  0.
         23    2    1    2    0    0 -0.27515228913E+02  0.11564565238E+03  0.48274851718E+03  0.50392250942E+03  0.82223840387E+02 0.  0.
         13    1    3    3    0    0 -0.16839433945E+02 -0.29538041877E+02  0.15864892405E+03  0.16225148245E+03  0.00000000000E+00 0. -1.
        -14    1    3    3    0    0  0.66581639070E+02 -0.63340307410E+02  0.21799005133E+03  0.23656874621E+03  0.00000000000E+00 0.  1.
        -13    1    4    4    0    0  0.25083085120E+02  0.42146560734E+02  0.23843847305E+03  0.24343048119E+03  0.00000000000E+00 0. -1.
         13    1    4    4    0    0 -0.52598314032E+02  0.73499091645E+02  0.24431004413E+03  0.26049202823E+03  0.00000000000E+00 0.  1.
         21    1    1    2  502  501 -0.22226976212E+02 -0.22767303093E+02  0.15539742165E+03  0.15862139584E+03  0.00000000000E+00 0. -1.
<scales pt_clust_5="13000.00000" pt_clust_6="13000.00000" pt_clust_7="13000.00000" pt_clust_8="13000.00000" pt_clust_9="31.81805"></scales>
<clustering>
<clus scale="   31.818">  1  9  2 -1</clus>
<clus scale="   78.102">  5  6 -1 -1</clus>
<clus scale="   82.224">  7  8 -1 -1</clus>
<clus scale="  135.221">  2  5  1 -1</clus>
<clus scale="   31.818">  1  5  2 -1</clus>
</clustering>
</event>
<event>
 9    1  0.6106093E-005  0.9968731E+02  0.7546771E-02  0.1287409E+00
         -2   -1    0    0    0  501 -0.00000000000E+00  0.00000000000E+00  0.23893201969E+03  0.23893201969E+03  0.00000000000E+00 0.  1.
          1   -1    0    0  502    0  0.00000000000E+00 -0.00000000000E+00 -0.15284468684E+03  0.15284468684E+03  0.00000000000E+00 0. -1.
        -24    2    1    2    0    0 -0.53241421730E+02 -0.23127558613E+02 -0.16570608681E+02  0.10000951909E+03  0.79735725246E+02 0.  0.
         23    2    1    2    0    0  0.21609899047E+02  0.14529501894E+02 -0.68298804626E+02  0.11769625688E+03  0.92247428198E+02 0.  0.
         13    1    3    3    0    0  0.21178496540E+02 -0.28821481996E+01 -0.14999336292E+01  0.21426275804E+02  0.00000000000E+00 0. -1.
        -14    1    3    3    0    0 -0.74419918271E+02 -0.20245410413E+02 -0.15070675051E+02  0.78583243282E+02  0.00000000000E+00 0.  1.
        -11    1    4    4    0    0  0.46701200564E+02  0.38462300339E+02 -0.50007230762E+02  0.78492507986E+02  0.00000000000E+00 0.  1.
         11    1    4    4    0    0 -0.25091301517E+02 -0.23932798446E+02 -0.18291573864E+02  0.39203748898E+02  0.00000000000E+00 0. -1.
         21    1    1    2  502  501  0.31631522684E+02  0.85980567188E+01  0.17095674616E+03  0.17407093056E+03  0.00000000000E+00 0.  1.
<scales pt_clust_5="13000.00000" pt_clust_6="13000.00000" pt_clust_7="13000.00000" pt_clust_8="13000.00000" pt_clust_9="32.77926"></scales>
<clustering>
<clus scale="   32.779">  1  9  2 -1</clus>
<clus scale="   79.736">  5  6 -1 -1</clus>
<clus scale="   88.237">  1  5  2 -1</clus>
<clus scale="   92.247">  7  8 -1 -1</clus>
<clus scale="   99.687">  2  5  1 -1</clus>
</clustering>
</event>
<event>
 9    1  0.6106093E-005  0.9420924E+02  0.7546771E-02  0.1298954E+00
          1   -1    0    0  502    0  0.00000000000E+00  0.00000000000E+00  0.47436322179E+03  0.47436322179E+03  0.00000000000E+00 0. -1.
         -2   -1    0    0    0  501 -0.00000000000E+00 -0.00000000000E+00 -0.36649771148E+02  0.36649771148E+02  0.00000000000E+00 0.  1.
        -24    2    1    2    0    0  0.86450819256E+00 -0.24057361471E+02  0.36100420282E+02  0.91832872633E+02  0.80935357762E+02 0.  0.
         23    2    1    2    0    0 -0.23967302803E+02  0.18371923244E+02  0.33137903754E+03  0.34502570659E+03  0.91206976248E+02 0.  0.
         13    1    3    3    0    0 -0.36190628351E+02 -0.66542504641E+01  0.35143565909E+02  0.50883306246E+02  0.00000000000E+00 0. -1.
        -14    1    3    3    0    0  0.37055136544E+02 -0.17403111007E+02  0.95685437350E+00  0.40949566387E+02  0.00000000000E+00 0.  1.
        -11    1    4    4    0    0 -0.27127952710E+02 -0.27546150774E+02  0.73265100189E+02  0.82840154191E+02  0.00000000000E+00 0.  1.
         11    1    4    4    0    0  0.31606499067E+01  0.45918074018E+02  0.25811393735E+03  0.26218555240E+03  0.00000000000E+00 0. -1.
         21    1    1    2  502  501  0.23102794611E+02  0.56854382274E+01  0.70233992819E+02  0.74154413718E+02  0.00000000000E+00 0. -1.
<scales pt_clust_5="13000.00000" pt_clust_6="13000.00000" pt_clust_7="13000.00000" pt_clust_8="13000.00000" pt_clust_9="23.79209"></scales>
<clustering>
<clus scale="   23.792">  1  9  2 -1</clus>
<clus scale="   80.935">  5  6 -1 -1</clus>
<clus scale="   84.304">  2  5  1 -1</clus>
<clus scale="   91.207">  7  8 -1 -1</clus>
<clus scale="   23.792">  1  5  2 -1</clus>
</clustering>
</event>
<event>
 9    1  0.6106093E-005  0.1002531E+03  0.7546771E-02  0.1288552E+00
          1   -1    0    0  502    0  0.00000000000E+00  0.00000000000E+00  0.34453521177E+03  0.34453521177E+03  0.00000000000E+00 0. -1.
         -2   -1    0    0    0  501 -0.00000000000E+00 -0.00000000000E+00 -0.52998064928E+02  0.52998064928E+02  0.00000000000E+00 0.  1.
        -24    2    1    2    0    0  0.25572798170E+02 -0.23618974498E+02  0.91826606142E+01  0.86956340183E+02  0.79153394617E+02 0.  0.
         23    2    1    2    0    0 -0.11849466324E+02 -0.33812312658E+00  0.25105130817E+03  0.26883773049E+03  0.95427678468E+02 0.  0.
         11    1    3    3    0    0  0.13126533834E+02 -0.48901421897E+02  0.22952513674E+02  0.55592021352E+02  0.00000000000E+00 0. -1.
        -12    1    3    3    0    0  0.12446264335E+02  0.25282447399E+02 -0.13769853060E+02  0.31364318830E+02  0.00000000000E+00 0.  1.
        -13    1    4    4    0    0 -0.37490771946E+02 -0.30098962133E+02  0.80016546404E+02  0.93349628821E+02  0.00000000000E+00 0. -1.
         13    1    4    4    0    0  0.25641305623E+02  0.29760839006E+02  0.17103476177E+03  0.17548810167E+03  0.00000000000E+00 0.  1.
         21    1    1    2  502  501 -0.13723331846E+02  0.23957097625E+02  0.31303178051E+02  0.41739206026E+02  0.00000000000E+00 0.  1.
<scales pt_clust_5="13000.00000" pt_clust_6="13000.00000" pt_clust_7="13000.00000" pt_clust_8="13000.00000" pt_clust_9="27.60928"></scales>
<clustering>
<clus scale="   27.609">  1  9  2 -1</clus>
<clus scale="   79.153">  5  6 -1 -1</clus>
<clus scale="   84.909">  2  5  1 -1</clus>
<clus scale="   95.428">  7  8 -1 -1</clus>
<clus scale="   27.609">  1  5  2 -1</clus>
</clustering>
</event>
<event>
 9    1  0.6106093E-005  0.1020040E+03  0.7546771E-02  0.1290890E+00
          1   -1    0    0  502    0  0.00000000000E+00  0.00000000000E+00  0.86297841525E+02  0.86297841525E+02  0.00000000000E+00 0. -1.
         -2   -1    0    0    0  501 -0.00000000000E+00 -0.00000000000E+00 -0.26771990628E+03  0.26771990628E+03  0.00000000000E+00 0.  1.
         23    2    1    2    0    0 -0.85706443720E+02 -0.84306072279E+00 -0.72517491261E+02  0.14157998553E+03  0.86254278261E+02 0.  0.
        -24    2    1    2    0    0  0.46653621139E+02  0.30518977768E+01  0.22475676447E+02  0.75358325495E+02  0.54661199622E+02 0.  0.
         13    1    4    4    0    0  0.52014468894E+02  0.15608083584E+02  0.27422867927E+02  0.60836920803E+02  0.00000000000E+00 0. -1.
        -14    1    4    4    0    0 -0.53608477545E+01 -0.12556185807E+02 -0.49471914796E+01  0.14521404691E+02  0.00000000000E+00 0.  1.
        -13    1    3    3    0    0 -0.54888666156E+01  0.21601809144E+02 -0.50834088394E+02  0.55505588529E+02  0.00000000000E+00 0.  1.
         13    1    3    3    0    0 -0.80217577104E+02 -0.22444869867E+02 -0.21683402867E+02  0.86074397005E+02  0.00000000000E+00 0. -1.
         21    1    1    2  502  501  0.39052822581E+02 -0.22088370540E+01 -0.13138024994E+03  0.13707943677E+03  0.00000000000E+00 0.  1.
<scales pt_clust_5="13000.00000" pt_clust_6="13000.00000" pt_clust_7="13000.00000" pt_clust_8="13000.00000" pt_clust_9="39.11524"></scales>
<clustering>
<clus scale="   39.115">  2  9  1 -1</clus>
<clus scale="   54.661">  5  6 -1 -1</clus>
<clus scale="   77.155">  1  5  2 -1</clus>
<clus scale="   86.254">  7  8 -1 -1</clus>
<clus scale="   77.155">  1  5  2 -1</clus>
</clustering>
</event>
<event>
 9    1  0.6106093E-005  0.9460605E+02  0.7546771E-02  0.1292762E+00
          1   -1    0    0  502    0  0.00000000000E+00  0.00000000000E+00  0.33985099066E+03  0.33985099066E+03  0.00000000000E+00 0. -1.
         -2   -1    0    0    0  501 -0.00000000000E+00 -0.00000000000E+00 -0.84808325423E+02  0.84808325423E+02  0.00000000000E+00 0.  1.
         23    2    1    2    0    0 -0.23689869534E+02 -0.48939893068E+02 -0.24141406299E+02  0.99644271557E+02  0.79936539230E+02 0.  0.
        -24    2    1    2    0    0 -0.80594594171E+01  0.50576854478E+02  0.27781192057E+03  0.29319394571E+03  0.78487282393E+02 0.  0.
         11    1    4    4    0    0  0.26339800289E+02  0.49058601310E+02  0.12997768741E+03  0.14140272511E+03  0.00000000000E+00 0. -1.
        -12    1    4    4    0    0 -0.34399259706E+02  0.15182531680E+01  0.14783423315E+03  0.15179122060E+03  0.00000000000E+00 0.  1.
        -13    1    3    3    0    0 -0.24288676709E+00 -0.53614412553E+02  0.13282033523E+02  0.55235646478E+02  0.00000000000E+00 0. -1.
         13    1    3    3    0    0 -0.23446982767E+02  0.46745194844E+01 -0.37423439822E+02  0.44408625079E+02  0.00000000000E+00 0.  1.
         21    1    1    2  502  501  0.31749328951E+02 -0.16369614100E+01  0.13721509692E+01  0.31821098815E+02  0.00000000000E+00 0. -1.
<scales pt_clust_5="13000.00000" pt_clust_6="13000.00000" pt_clust_7="13000.00000" pt_clust_8="13000.00000" pt_clust_9="31.79150"></scales>
<clustering>
<clus scale="   31.792">  2  9  1 -1</clus>
<clus scale="   78.487">  5  6 -1 -1</clus>
<clus scale="   79.937">  7  8 -1 -1</clus>
<clus scale="   93.385">  1  5  2 -1</clus>
<clus scale="   93.385">  1  5  2 -1</clus>
</clustering>
</event>
<event>
 9    1  0.6106093E-005  0.2108056E+03  0.7546771E-02  0.1141977E+00
          1   -1    0    0  502    0  0.00000000000E+00  0.00000000000E+00  0.68814955363E+03  0.68814955363E+03  0.00000000000E+00 0. -1.
         -2   -1    0    0    0  501 -0.00000000000E+00 -0.00000000000E+00 -0.21248684819E+03  0.21248684819E+03  0.00000000000E+00 0.  1.
         23    2    1    2    0    0 -0.12761825233E+03 -0.43359398241E+02 -0.13642593202E+03  0.21343870079E+03  0.93688784414E+02 0.  0.
        -24    2    1    2    0    0  0.18425217195E+03  0.62412931056E+02  0.58455917804E+03  0.62140781502E+03  0.81203467296E+02 0.  0.
         11    1    4    4    0    0  0.96092571187E+02  0.20088315956E+02  0.40728210562E+03  0.41894634052E+03  0.00000000000E+00 0. -1.
        -12    1    4    4    0    0  0.88159600765E+02  0.42324615100E+02  0.17727707242E+03  0.20246147450E+03  0.00000000000E+00 0.  1.
        -11    1    3    3    0    0 -0.10170726015E+03 -0.27482459720E+02 -0.14735562557E+03  0.18114450792E+03  0.00000000000E+00 0.  1.
         11    1    3    3    0    0 -0.25910992176E+02 -0.15876938521E+02  0.10929693554E+02  0.32294192877E+02  0.00000000000E+00 0. -1.
         21    1    1    2  502  501 -0.56633919621E+02 -0.19053532815E+02  0.27529459414E+02  0.65789886001E+02  0.00000000000E+00 0.  1.
<scales pt_clust_5="13000.00000" pt_clust_6="13000.00000" pt_clust_7="13000.00000" pt_clust_8="13000.00000" pt_clust_9="59.75314"></scales>
<clustering>
<clus scale="   59.753">  2  9  1 -1</clus>
<clus scale="   81.203">  5  6 -1 -1</clus>
<clus scale="   93.689">  7  8 -1 -1</clus>
<clus scale="  205.561">  1  5  2 -1</clus>
<clus scale="  205.561">  1  5  2 -1</clus>
</clustering>
</event>
<event>
 9    1  0.6106093E-005  0.1407332E+03  0.7546771E-02  0.1213711E+00
         -2   -1    0    0    0  501 -0.00000000000E+00  0.00000000000E+00  0.35231929346E+03  0.35231929346E+03  0.00000000000E+00 0.  1.
          1   -1    0    0  502    0  0.00000000000E+00 -0.00000000000E+00 -0.41917531635E+03  0.41917531635E+03  0.00000000000E+00 0. -1.
        -24    2    1    2    0    0 -0.17138368036E+03  0.41966436197E+02  0.97356463855E+02  0.21780192087E+03  0.82618690496E+02 0.  0.
         23    2    1    2    0    0  0.10247838767E+03 -0.13205695080E+02 -0.33802256978E+03  0.36452328191E+03  0.89116525153E+02 0.  0.
         13    1    3    3    0    0 -0.13359604436E+03  0.13078482464E+02  0.33812404987E+02  0.13842770136E+03  0.00000000000E+00 0. -1.
        -14    1    3    3    0    0 -0.37787635996E+02  0.28887953733E+02  0.63544058868E+02  0.79374219508E+02  0.00000000000E+00 0.  1.
        -11    1    4    4    0    0  0.47441662065E+02 -0.45133309679E+02 -0.11221682827E+03  0.12992437604E+03  0.00000000000E+00 0.  1.
         11    1    4    4    0    0  0.55036725605E+02  0.31927614599E+02 -0.22580574151E+03  0.23459890588E+03  0.00000000000E+00 0. -1.
         21    1    1    2  502  501  0.68905292689E+02 -0.28760741117E+02  0.17381008303E+03  0.18916940702E+03  0.00000000000E+00 0. -1.
<scales pt_clust_5="13000.00000" pt_clust_6="13000.00000" pt_clust_7="13000.00000" pt_clust_8="13000.00000" pt_clust_9="74.66672"></scales>
<clustering>
<clus scale="   74.667">  1  9  2 -1</clus>
<clus scale="   82.619">  5  6 -1 -1</clus>
<clus scale="   89.117">  7  8 -1 -1</clus>
<clus scale="  136.711">  1  5  2 -1</clus>
<clus scale="  140.733">  2  5  1 -1</clus>
</clustering>
</event>
<event>
 9    1  0.6106093E-005  0.9497379E+02  0.7546771E-02  0.1294966E+00
          1   -1    0    0  502    0  0.00000000000E+00  0.00000000000E+00  0.20052224288E+03  0.20052224288E+03  0.00000000000E+00 0. -1.
         -2   -1    0    0    0  501 -0.00000000000E+00 -0.00000000000E+00 -0.13084807748E+03  0.13084807748E+03  0.00000000000E+00 0.  1.
         23    2    1    2    0    0 -0.20189022925E+02  0.70063164787E+02 -0.30239939536E+02  0.11974786492E+03  0.90048062189E+02 0.  0.
        -24    2    1    2    0    0 -0.34252718948E+01 -0.23058355193E+02  0.12606014399E+03  0.15287977587E+03  0.83292531085E+02 0.  0.
         11    1    4    4    0    0 -0.35547195325E+02 -0.27414045300E+02  0.37230113777E+02  0.58319930959E+02  0.00000000000E+00 0. -1.
        -12    1    4    4    0    0  0.32121923431E+02  0.43556901073E+01  0.88830030216E+02  0.94559844910E+02  0.00000000000E+00 0.  1.
        -13    1    3    3    0    0 -0.54229509544E+02  0.58828900774E+02 -0.21604069458E+02  0.82875901738E+02  0.00000000000E+00 0.  1.
         13    1    3    3    0    0  0.34040486619E+02  0.11234264013E+02 -0.86358700778E+01  0.36871963186E+02  0.00000000000E+00 0. -1.
         21    1    1    2  502  501  0.23614294820E+02 -0.47004809594E+02 -0.26146039056E+02  0.58742679570E+02  0.00000000000E+00 0. -1.
<scales pt_clust_5="13000.00000" pt_clust_6="13000.00000" pt_clust_7="13000.00000" pt_clust_8="13000.00000" pt_clust_9="52.60311"></scales>
<clustering>
<clus scale="   52.603">  2  9  1 -1</clus>
<clus scale="   83.293">  5  6 -1 -1</clus>
<clus scale="   88.595">  1  5  2 -1</clus>
<clus scale="   90.048">  7  8 -1 -1</clus>
<clus scale="   88.595">  1  5  2 -1</clus>
</clustering>
</event>
<event>
 9    1  0.6106093E-005  0.1094135E+03  0.7546771E-02  0.1265860E+00
         -2   -1    0    0    0  501 -0.00000000000E+00  0.00000000000E+00  0.14077284518E+03  0.14077284518E+03  0.00000000000E+00 0.  1.
          1   -1    0    0  502    0  0.00000000000E+00 -0.00000000000E+00 -0.40952322518E+03  0.40952322518E+03  0.00000000000E+00 0. -1.
        -24    2    1    2    0    0  0.45077401353E+01  0.44620031721E+02  0.92553843724E+02  0.13190392582E+03  0.82590342698E+02 0.  0.
         23    2    1    2    0    0  0.11818364575E+02 -0.57619090098E+02 -0.37672305380E+03  0.39244493785E+03  0.92914674292E+02 0.  0.
         11    1    3    3    0    0 -0.16388118849E+02  0.35896487592E+02  0.30477436077E+01  0.39577986330E+02  0.00000000000E+00 0. -1.
        -12    1    3    3    0    0  0.20895858984E+02  0.87235441295E+01  0.89506100116E+02  0.92325939491E+02  0.00000000000E+00 0.  1.
        -11    1    4    4    0    0 -0.33194832911E+02 -0.51286041747E+01 -0.65239458847E+02  0.73378378991E+02  0.00000000000E+00 0.  1.
         11    1    4    4    0    0  0.45013197485E+02 -0.52490485923E+02 -0.31148359495E+03  0.31906655886E+03  0.00000000000E+00 0. -1.
         21    1    1    2  502  501 -0.16326104710E+02  0.12999058376E+02  0.15418830080E+02  0.25947206684E+02  0.00000000000E+00 0.  1.
<scales pt_clust_5="13000.00000" pt_clust_6="13000.00000" pt_clust_7="13000.00000" pt_clust_8="13000.00000" pt_clust_9="20.86905"></scales>
<clustering>
<clus scale="   20.869">  1  9  2 -1</clus>
<clus scale="   82.590">  5  6 -1 -1</clus>
<clus scale="   92.915">  7  8 -1 -1</clus>
<clus scale="  100.794">  1  5  2 -1</clus>
<clus scale="  109.414">  2  5  1 -1</clus>
</clustering>
</event>
<event>
 9    1  0.6106093E-005  0.1218525E+03  0.7546771E-02  0.1243767E+00
          1   -1    0    0  502    0  0.00000000000E+00  0.00000000000E+00  0.30632670206E+03  0.30632670206E+03  0.00000000000E+00 0. -1.
         -2   -1    0    0    0  501 -0.00000000000E+00 -0.00000000000E+00 -0.71991585769E+02  0.71991585769E+02  0.00000000000E+00 0.  1.
         23    2    1    2    0    0  0.74130431315E+02 -0.54019812641E+02  0.13203917391E+03  0.18634067881E+03  0.94207452606E+02 0.  0.
        -24    2    1    2    0    0 -0.69258191008E+02  0.69639689331E+01  0.95578397944E+02  0.14419564008E+03  0.82534590205E+02 0.  0.
         13    1    4    4    0    0 -0.63900993814E+02  0.38910952324E+02  0.74284352079E+02  0.10543037601E+03  0.00000000000E+00 0. -1.
        -14    1    4    4    0    0 -0.53571971943E+01 -0.31946983391E+02  0.21294045865E+02  0.38765264075E+02  0.00000000000E+00 0.  1.
        -13    1    3    3    0    0 -0.24227139130E+01 -0.53357782173E+02  0.40641618673E+02  0.67116790965E+02  0.00000000000E+00 0.  1.
         13    1    3    3    0    0  0.76553145228E+02 -0.66203046819E+00  0.91397555237E+02  0.11922388784E+03  0.00000000000E+00 0. -1.
         21    1    1    2  502  501 -0.48722403071E+01  0.47055843708E+02  0.67175444390E+01  0.47781968942E+02  0.00000000000E+00 0. -1.
<scales pt_clust_5="13000.00000" pt_clust_6="13000.00000" pt_clust_7="13000.00000" pt_clust_8="13000.00000" pt_clust_9="47.30741"></scales>
<clustering>
<clus scale="   47.307">  2  9  1 -1</clus>
<clus scale="   82.535">  5  6 -1 -1</clus>
<clus scale="   94.207">  7  8 -1 -1</clus>
<clus scale="  113.071">  1  5  2 -1</clus>
<clus scale="  113.071">  1  5  2 -1</clus>
</clustering>
</event>
<event>
 9    1  0.6106093E-005  0.9279024E+02  0.7546771E-02  0.1301935E+00
         -2   -1    0    0    0  501 -0.00000000000E+00  0.00000000000E+00  0.11848896431E+03  0.11848896431E+03  0.00000000000E+00 0.  1.
          1   -1    0    0  502    0  0.00000000000E+00 -0.00000000000E+00 -0.30880244355E+03  0.30880244355E+03  0.00000000000E+00 0. -1.
        -24    2    1    2    0    0 -0.63676310078E+01 -0.14271814171E+02  0.28517871528E+02  0.87781780787E+02  0.81536130871E+02 0.  0.
         23    2    1    2    0    0  0.19657648530E+02 -0.16825864721E+01 -0.26929426647E+03  0.28494156566E+03  0.91011206147E+02 0.  0.
         13    1    3    3    0    0 -0.25640589476E+02  0.13369955033E+01 -0.20494438227E+02  0.32851931205E+02  0.00000000000E+00 0. -1.
        -14    1    3    3    0    0  0.19272958468E+02 -0.15608809674E+02  0.49012309756E+02  0.54929849582E+02  0.00000000000E+00 0.  1.
        -13    1    4    4    0    0 -0.26757305161E+02 -0.26190132914E+02 -0.77122298726E+02  0.85730539497E+02  0.00000000000E+00 0.  1.
         13    1    4    4    0    0  0.46414953691E+02  0.24507546442E+02 -0.19217196774E+03  0.19921102616E+03  0.00000000000E+00 0. -1.
         21    1    1    2  502  501 -0.13290017522E+02  0.15954400643E+02  0.50462915703E+02  0.54568061418E+02  0.00000000000E+00 0.  1.
<scales pt_clust_5="13000.00000" pt_clust_6="13000.00000" pt_clust_7="13000.00000" pt_clust_8="13000.00000" pt_clust_9="20.76457"></scales>
<clustering>
<clus scale="   20.765">  1  9  2 -1</clus>
<clus scale="   81.536">  5  6 -1 -1</clus>
<clus scale="   83.517">  1  5  2 -1</clus>
<clus scale="   91.011">  7  8 -1 -1</clus>
<clus scale="   92.790">  2  5  1 -1</clus>
</clustering>
</event>
<event>
 9    1  0.6106093E-005  0.1089860E+03  0.7546771E-02  0.1267034E+00
         -2   -1    0    0    0  501 -0.00000000000E+00  0.00000000000E+00  0.50441527508E+02  0.50441527508E+02  0.00000000000E+00 0.  1.
          1   -1    0    0  502    0  0.00000000000E+00 -0.00000000000E+00 -0.38993175140E+03  0.38993175140E+03  0.00000000000E+00 0. -1.
         23    2    1    2    0    0  0.10613822074E+02  0.42295519910E+02 -0.11260074513E+03  0.14981903217E+03  0.88686246803E+02 0.  0.
        -24    2    1    2    0    0 -0.43299818416E+02 -0.28761752787E+02 -0.22927260138E+03  0.25509699808E+03  0.99027470853E+02 0.  0.
         11    1    4    4    0    0 -0.10506830998E+02  0.34686563891E+02 -0.11270452925E+03  0.11838860640E+03  0.00000000000E+00 0. -1.
        -12    1    4    4    0    0 -0.32792987418E+02 -0.63448316678E+02 -0.11656807213E+03  0.13670839167E+03  0.00000000000E+00 0.  1.
        -13    1    3    3    0    0 -0.32017520319E+02 -0.15450404795E+00 -0.67236791153E+02  0.74471011565E+02  0.00000000000E+00 0. -1.
         13    1    3    3    0    0  0.42631342394E+02  0.42450023958E+02 -0.45363953981E+02  0.75348020605E+02  0.00000000000E+00 0.  1.
         21    1    1    2  502  501  0.32685996342E+02 -0.13533767123E+02  0.23831226239E+01  0.35457248664E+02  0.00000000000E+00 0.  1.
<scales pt_clust_5="13000.00000" pt_clust_6="13000.00000" pt_clust_7="13000.00000" pt_clust_8="13000.00000" pt_clust_9="35.37707"></scales>
<clustering>
<clus scale="   35.377">  1  9  2 -1</clus>
<clus scale="   88.686">  7  8 -1 -1</clus>
<clus scale="   99.027">  5  6 -1 -1</clus>
<clus scale="   99.683">  1  7  2 -1</clus>
<clus scale="  108.986">  2  5  1 -1</clus>
</clustering>
</event>
<event>
 9    1  0.6106093E-005  0.3869226E+03  0.7546771E-02  0.1048404E+00
         -2   -1    0    0    0  501 -0.00000000000E+00  0.00000000000E+00  0.47023699645E+03  0.47023699645E+03  0.00000000000E+00 0.  1.
          1   -1    0    0  502    0  0.00000000000E+00 -0.00000000000E+00 -0.66584505717E+03  0.66584505717E+03  0.00000000000E+00 0. -1.
        -24    2    1    2    0    0  0.22564466421E+03 -0.89474362253E+02 -0.52191499445E+03  0.58136377740E+03  0.81654174730E+02 0.  0.
         23    2    1    2    0    0  0.10726809918E+02 -0.12244478009E+02 -0.43757622608E+02  0.10397891461E+03  0.92907983802E+02 0.  0.
         13    1    3    3    0    0  0.90883638943E+02 -0.10442506367E+02 -0.26856635082E+03  0.28371952094E+03  0.00000000000E+00 0. -1.
        -14    1    3    3    0    0  0.13476102526E+03 -0.79031855886E+02 -0.25334864363E+03  0.29764425646E+03  0.00000000000E+00 0.  1.
        -13    1    4    4    0    0 -0.31721483197E+02 -0.25799509018E+02  0.89190446588E+00  0.40898198681E+02  0.00000000000E+00 0. -1.
         13    1    4    4    0    0  0.42448293115E+02  0.13555031009E+02 -0.44649527074E+02  0.63080715928E+02  0.00000000000E+00 0.  1.
         21    1    1    2  502  501 -0.23637147412E+03  0.10171884026E+03  0.37006455634E+03  0.45073936161E+03  0.00000000000E+00 0.  1.
<scales pt_clust_5="13000.00000" pt_clust_6="13000.00000" pt_clust_7="13000.00000" pt_clust_8="13000.00000" pt_clust_9="257.32897"></scales>
<clustering>
<clus scale="   81.654">  5  6 -1 -1</clus>
<clus scale="   92.908">  7  8 -1 -1</clus>
<clus scale="   93.230">  5  7 -1 -1</clus>
<clus scale="  257.329">  1  9  2 -1</clus>
<clus scale="  386.923">  2  5  1 -1</clus>
</clustering>
</event>
<event>
 9    1  0.6106093E-005  0.1001833E+03  0.7546771E-02  0.1286058E+00
         -2   -1    0    0    0  501 -0.00000000000E+00  0.00000000000E+00  0.47965503299E+02  0.47965503299E+02  0.00000000000E+00 0.  1.
          1   -1    0    0  502    0  0.00000000000E+00 -0.00000000000E+00 -0.71134912121E+03  0.71134912121E+03  0.00000000000E+00 0. -1.
        -24    2    1    2    0    0 -0.24242331308E+00 -0.16146153226E+02 -0.15959841638E+03  0.17989125711E+03  0.81415310833E+02 0.  0.
         23    2    1    2    0    0  0.44952829735E-01  0.46521982748E+02 -0.52946942539E+03  0.53964385799E+03  0.93345188115E+02 0.  0.
         13    1    3    3    0    0 -0.31257607674E+02  0.67355042440E+01 -0.12172682720E+03  0.12585636859E+03  0.00000000000E+00 0. -1.
        -14    1    3    3    0    0  0.31015184361E+02 -0.22881657470E+02 -0.37871589185E+02  0.54034888516E+02  0.00000000000E+00 0.  1.
        -11    1    4    4    0    0 -0.15580992719E+02  0.71194335009E+02 -0.42344097724E+03  0.42966691970E+03  0.00000000000E+00 0. -1.
         11    1    4    4    0    0  0.15625945549E+02 -0.24672352261E+02 -0.10602844815E+03  0.10997693829E+03  0.00000000000E+00 0.  1.
         21    1    1    2  502  501  0.19747048334E+00 -0.30375829522E+02  0.25684223862E+02  0.39779509413E+02  0.00000000000E+00 0.  1.
<scales pt_clust_5="13000.00000" pt_clust_6="13000.00000" pt_clust_7="13000.00000" pt_clust_8="13000.00000" pt_clust_9="30.37647"></scales>
<clustering>
<clus scale="   30.376">  1  9  2 -1</clus>
<clus scale="   81.415">  5  6 -1 -1</clus>
<clus scale="   89.173">  1  5  2 -1</clus>
<clus scale="   93.345">  7  8 -1 -1</clus>
<clus scale="  100.183">  2  5  1 -1</clus>
</clustering>
</event>
<event>
 9    1  0.6106093E-005  0.1170048E+03  0.7546771E-02  0.1251737E+00
         -2   -1    0    0    0  501 -0.00000000000E+00  0.00000000000E+00  0.96318119276E+02  0.96318119276E+02  0.00000000000E+00 0.  1.
          1   -1    0    0  502    0  0.00000000000E+00 -0.00000000000E+00 -0.17174613456E+03  0.17174613456E+03  0.00000000000E+00 0. -1.
         23    2    1    2    0    0 -0.67450740140E+02  0.32701549082E+02 -0.41918424636E+02  0.12619141100E+03  0.92456066478E+02 0.  0.
        -24    2    1    2    0    0  0.70926037052E+02 -0.55147214533E+01 -0.36138082356E+02  0.11433904081E+03  0.81893469661E+02 0.  0.
         13    1    4    4    0    0  0.39460624411E+02  0.27945752031E+02  0.98447714707E+01  0.49345977149E+02  0.00000000000E+00 0. -1.
        -14    1    4    4    0    0  0.31465412641E+02 -0.33460473484E+02 -0.45982853827E+02  0.64993063664E+02  0.00000000000E+00 0.  1.
        -13    1    3    3    0    0 -0.43594354067E+02  0.31243886082E+02 -0.70724130594E+02  0.88761200827E+02  0.00000000000E+00 0. -1.
         13    1    3    3    0    0 -0.23856386072E+02  0.14576629995E+01  0.28805705958E+02  0.37430210173E+02  0.00000000000E+00 0.  1.
         21    1    1    2  502  501 -0.34752969118E+01 -0.27186827628E+02  0.26284917087E+01  0.27533802022E+02  0.00000000000E+00 0.  1.
<scales pt_clust_5="13000.00000" pt_clust_6="13000.00000" pt_clust_7="13000.00000" pt_clust_8="13000.00000" pt_clust_9="27.40805"></scales>
<clustering>
<clus scale="   27.408">  1  9  2 -1</clus>
<clus scale="   81.893">  5  6 -1 -1</clus>
<clus scale="   92.456">  7  8 -1 -1</clus>
<clus scale="  108.851">  2  5  1 -1</clus>
<clus scale="  108.851">  2  5  1 -1</clus>
</clustering>
</event>
<event>
 9    1  0.6106093E-005  0.9668889E+02  0.7546771E-02  0.1297156E+00
         -2   -1    0    0    0  501 -0.00000000000E+00  0.00000000000E+00  0.77811465672E+02  0.77811465672E+02  0.00000000000E+00 0.  1.
          1   -1    0    0  502    0  0.00000000000E+00 -0.00000000000E+00 -0.42454277221E+03  0.42454277221E+03  0.00000000000E+00 0. -1.
        -24    2    1    2    0    0 -0.14003747977E+02 -0.57908264176E+01  0.38454116134E+01  0.81139155302E+02  0.79618695698E+02 0.  0.
         23    2    1    2    0    0 -0.16592346845E+02 -0.14256627024E+01 -0.37112082451E+03  0.38366166675E+03  0.95855462353E+02 0.  0.
         11    1    3    3    0    0  0.12675970865E+02  0.18296690702E+02  0.29516685909E+02  0.36968687765E+02  0.00000000000E+00 0. -1.
        -12    1    3    3    0    0 -0.26679718842E+02 -0.24087517119E+02 -0.25671274296E+02  0.44170467537E+02  0.00000000000E+00 0.  1.
        -13    1    4    4    0    0 -0.16660571043E+02  0.46347580516E+02 -0.17417225437E+03  0.18100178739E+03  0.00000000000E+00 0.  1.
         13    1    4    4    0    0  0.68224198735E-01 -0.47773243218E+02 -0.19694857014E+03  0.20265987936E+03  0.00000000000E+00 0. -1.
         21    1    1    2  502  501  0.30596094822E+02  0.72164891200E+01  0.20544106364E+02  0.37553415822E+02  0.00000000000E+00 0.  1.
<scales pt_clust_5="13000.00000" pt_clust_6="13000.00000" pt_clust_7="13000.00000" pt_clust_8="13000.00000" pt_clust_9="31.43563"></scales>
<clustering>
<clus scale="   31.436">  1  9  2 -1</clus>
<clus scale="   79.619">  5  6 -1 -1</clus>
<clus scale="   80.620">  1  5  2 -1</clus>
<clus scale="   95.855">  7  8 -1 -1</clus>
<clus scale="   96.689">  2  5  1 -1</clus>
</clustering>
</event>
<event>
 9    1  0.6106093E-005  0.2696924E+03  0.7546771E-02  0.1101988E+00
          1   -1    0    0  502    0  0.00000000000E+00  0.00000000000E+00  0.15817775278E+03  0.15817775278E+03  0.00000000000E+00 0. -1.
         -2   -1    0    0    0  501 -0.00000000000E+00 -0.00000000000E+00 -0.50188160483E+03  0.50188160483E+03  0.00000000000E+00 0.  1.
         23    2    1    2    0    0  0.23873739084E+03  0.63356477349E+02 -0.15993486806E+03  0.30906966404E+03  0.94526769746E+02 0.  0.
        -24    2    1    2    0    0 -0.24411918662E+03 -0.84661992472E+02 -0.14861336245E+03  0.30953120317E+03  0.83437425579E+02 0.  0.
         13    1    4    4    0    0 -0.19311956986E+03 -0.42091509281E+02 -0.77743113852E+02  0.21239316177E+03  0.00000000000E+00 0. -1.
        -14    1    4    4    0    0 -0.50999616764E+02 -0.42570483191E+02 -0.70870248601E+02  0.97138041395E+02  0.00000000000E+00 0.  1.
        -11    1    3    3    0    0  0.77183271162E+02  0.48723298591E+02 -0.10185864252E+03  0.13677134286E+03  0.00000000000E+00 0.  1.
         11    1    3    3    0    0  0.16155411968E+03  0.14633178757E+02 -0.58076225539E+02  0.17229832117E+03  0.00000000000E+00 0. -1.
         21    1    1    2  502  501  0.53817957811E+01  0.21305515123E+02 -0.35155621539E+02  0.41458490401E+02  0.00000000000E+00 0. -1.
<scales pt_clust_5="13000.00000" pt_clust_6="13000.00000" pt_clust_7="13000.00000" pt_clust_8="13000.00000" pt_clust_9="21.97473"></scales>
<clustering>
<clus scale="   21.975">  2  9  1 -1</clus>
<clus scale="   83.437">  5  6 -1 -1</clus>
<clus scale="   94.527">  7  8 -1 -1</clus>
<clus scale="  266.008">  1  5  2 -1</clus>
<clus scale="  266.008">  1  5  2 -1</clus>
</clustering>
</event>
<event>
 9    1  0.6106093E-005  0.1071851E+03  0.7546771E-02  0.1277721E+00
          1   -1    0    0  502    0  0.00000000000E+00  0.00000000000E+00  0.33231053139E+03  0.33231053139E+03  0.00000000000E+00 0. -1.
         -2   -1    0    0    0  501 -0.00000000000E+00 -0.00000000000E+00 -0.89315201459E+02  0.89315201459E+02  0.00000000000E+00 0.  1.
         23    2    1    2    0    0 -0.23856495033E+02  0.49577757212E+02  0.28902600775E+02  0.10972933727E+03  0.90432741646E+02 0.  0.
        -24    2    1    2    0    0  0.30284894108E+01 -0.58552185826E+02  0.25279772422E+03  0.26703635958E+03  0.62961875413E+02 0.  0.
         11    1    4    4    0    0 -0.22104501735E+02  0.19765821368E+00  0.62042851000E+02  0.65863217549E+02  0.00000000000E+00 0. -1.
        -12    1    4    4    0    0  0.25132991146E+02 -0.58749844040E+02  0.19075487322E+03  0.20117314203E+03  0.00000000000E+00 0.  1.
        -11    1    3    3    0    0  0.22132124610E+02  0.54264976318E+02  0.85684321226E+01  0.59227836560E+02  0.00000000000E+00 0.  1.
         11    1    3    3    0    0 -0.45988619643E+02 -0.46872191060E+01  0.20334168652E+02  0.50501500714E+02  0.00000000000E+00 0. -1.
         21    1    1    2  502  501  0.20828005622E+02  0.89744286143E+01 -0.38704995059E+02  0.44860035997E+02  0.00000000000E+00 0.  1.
<scales pt_clust_5="13000.00000" pt_clust_6="13000.00000" pt_clust_7="13000.00000" pt_clust_8="13000.00000" pt_clust_9="22.67920"></scales>
<clustering>
<clus scale="   22.679">  2  9  1 -1</clus>
<clus scale="   62.962">  5  6 -1 -1</clus>
<clus scale="   85.292">  1  5  2 -1</clus>
<clus scale="   90.433">  7  8 -1 -1</clus>
<clus scale="   85.292">  1  5  2 -1</clus>
</clustering>
</event>
<event>
 9    1  0.6106093E-005  0.9964947E+02  0.7546771E-02  0.1285909E+00
         -4   -1    0    0    0  501 -0.00000000000E+00  0.00000000000E+00  0.63492136612E+02  0.63492136612E+02  0.00000000000E+00 0.  1.
          3   -1    0    0  502    0  0.00000000000E+00 -0.00000000000E+00 -0.21000770595E+03  0.21000770595E+03  0.00000000000E+00 0. -1.
        -24    2    1    2    0    0  0.96666976442E+01  0.35714194634E+02 -0.34382433228E+02  0.95522562218E+02  0.81076873622E+02 0.  0.
         23    2    1    2    0    0 -0.30867753023E+02 -0.33132710178E+02 -0.11819204750E+03  0.15577684750E+03  0.90810084595E+02 0.  0.
         11    1    3    3    0    0 -0.21465444609E+02  0.19436682904E+02  0.16773833828E+02  0.33465078154E+02  0.00000000000E+00 0. -1.
        -12    1    3    3    0    0  0.31132142253E+02  0.16277511731E+02 -0.51156267055E+02  0.62057484065E+02  0.00000000000E+00 0.  1.
        -11    1    4    4    0    0  0.83633399701E+01  0.27359331992E+02 -0.25330615101E+02  0.38211497797E+02  0.00000000000E+00 0.  1.
         11    1    4    4    0    0 -0.39231092993E+02 -0.60492042170E+02 -0.92861432402E+02  0.11756534970E+03  0.00000000000E+00 0. -1.
         21    1    1    2  502  501  0.21201055379E+02 -0.25814844562E+01  0.60589113921E+01  0.22200432843E+02  0.00000000000E+00 0.  1.
<scales pt_clust_5="13000.00000" pt_clust_6="13000.00000" pt_clust_7="13000.00000" pt_clust_8="13000.00000" pt_clust_9="21.35764"></scales>
<clustering>
<clus scale="   21.358">  1  9  2 -1</clus>
<clus scale="   81.077">  5  6 -1 -1</clus>
<clus scale="   90.810">  7  8 -1 -1</clus>
<clus scale="   90.868">  1  5  2 -1</clus>
<clus scale="   99.649">  2  5  1 -1</clus>
</clustering>
</event>
<event>
 9    1  0.6106093E-005  0.9798684E+02  0.7546771E-02  0.1290057E+00
         -2   -1    0    0    0  501 -0.00000000000E+00  0.00000000000E+00  0.15372324860E+02  0.15372324860E+02  0.00000000000E+00 0.  1.
          1   -1    0    0  502    0  0.00000000000E+00 -0.00000000000E+00 -0.11880246023E+04  0.11880246023E+04  0.00000000000E+00 0. -1.
        -24    2    1    2    0    0  0.12831601417E+02  0.17614650096E+02 -0.24307943556E+03  0.25688541844E+03  0.80172191671E+02 0.  0.
         23    2    1    2    0    0 -0.64670943030E+02 -0.44447000294E+02 -0.63048722120E+03  0.64178293959E+03  0.90627472308E+02 0.  0.
         11    1    3    3    0    0  0.41071357587E+02  0.17666377028E+02 -0.20294419782E+03  0.20781074255E+03  0.00000000000E+00 0. -1.
        -12    1    3    3    0    0 -0.28239756170E+02 -0.51726932353E-01 -0.40135237747E+02  0.49074675885E+02  0.00000000000E+00 0.  1.
        -13    1    4    4    0    0 -0.78750964319E+02 -0.62894413516E+01 -0.43367252290E+03  0.44080962849E+03  0.00000000000E+00 0.  1.
         13    1    4    4    0    0  0.14080021289E+02 -0.38157558942E+02 -0.19681469830E+03  0.20097331110E+03  0.00000000000E+00 0. -1.
         21    1    1    2  502  501  0.51839341614E+02  0.26832350198E+02 -0.29908562064E+03  0.30472856911E+03  0.00000000000E+00 0. -1.
<scales pt_clust_5="13000.00000" pt_clust_6="13000.00000" pt_clust_7="13000.00000" pt_clust_8="13000.00000" pt_clust_9="58.37202"></scales>
<clustering>
<clus scale="   58.372">  2  9  1 -1</clus>
<clus scale="   80.172">  5  6 -1 -1</clus>
<clus scale="   88.406">  1  5  2 -1</clus>
<clus scale="   90.627">  7  8 -1 -1</clus>
<clus scale="   58.372">  2  5  1 -1</clus>
</clustering>
</event>
<event>
 9    1  0.6106093E-005  0.9537001E+02  0.7546771E-02  0.1297758E+00
         -2   -1    0    0    0  501 -0.00000000000E+00  0.00000000000E+00  0.19525158201E+03  0.19525158201E+03  0.00000000000E+00 0.  1.
          1   -1    0    0  502    0  0.00000000000E+00 -0.00000000000E+00 -0.12367962871E+03  0.12367962871E+03  0.00000000000E+00 0. -1.
        -24    2    1    2    0    0 -0.74767058044E+01  0.17782493196E+02  0.13448474265E+03  0.15814514874E+03  0.80942101980E+02 0.  0.
         23    2    1    2    0    0  0.20363064964E+02  0.19010740245E+01 -0.85370006815E+02  0.12826179891E+03  0.93513541798E+02 0.  0.
         13    1    3    3    0    0  0.35340151890E+02  0.10251765766E+02  0.41278332383E+02  0.55298515000E+02  0.00000000000E+00 0. -1.
        -14    1    3    3    0    0 -0.42816857694E+02  0.75307274302E+01  0.93206410263E+02  0.10284663374E+03  0.00000000000E+00 0.  1.
        -11    1    4    4    0    0  0.48870583874E+02 -0.12023496563E+02 -0.82192049826E+02  0.96376509028E+02  0.00000000000E+00 0. -1.
         11    1    4    4    0    0 -0.28507518910E+02  0.13924570588E+02 -0.31779569890E+01  0.31885289885E+02  0.00000000000E+00 0.  1.
         21    1    1    2  502  501 -0.12886359160E+02 -0.19683567220E+02  0.22457217472E+02  0.32524263058E+02  0.00000000000E+00 0.  1.
<scales pt_clust_5="13000.00000" pt_clust_6="13000.00000" pt_clust_7="13000.00000" pt_clust_8="13000.00000" pt_clust_9="23.52660"></scales>
<clustering>
<clus scale="   23.527">  1  9  2 -1</clus>
<clus scale="   80.942">  5  6 -1 -1</clus>
<clus scale="   83.080">  1  5  2 -1</clus>
<clus scale="   93.514">  7  8 -1 -1</clus>
<clus scale="   95.370">  2  5  1 -1</clus>
</clustering>
</event>
<event>
 9    1  0.6106093E-005  0.1078283E+03  0.7546771E-02  0.1269737E+00
          1   -1    0    0  502    0  0.00000000000E+00  0.00000000000E+00  0.56456833784E+03  0.56456833784E+03  0.00000000000E+00 0. -1.
         -2   -1    0    0    0  501 -0.00000000000E+00 -0.00000000000E+00 -0.66678206003E+02  0.66678206003E+02  0.00000000000E+00 0.  1.
         23    2    1    2    0    0  0.28512103797E+02  0.29834029659E+02  0.16082476886E+03  0.18939184925E+03  0.91113428735E+02 0.  0.
        -24    2    1    2    0    0 -0.64602147814E+02 -0.20403310426E+02  0.37470963249E+03  0.38885921582E+03  0.78831773231E+02 0.  0.
         13    1    4    4    0    0 -0.70772325952E+02 -0.23034263753E+02  0.37483280302E+03  0.38215040187E+03  0.00000000000E+00 0. -1.
        -14    1    4    4    0    0  0.61701781374E+01  0.26309533270E+01 -0.12317053407E+00  0.67088139516E+01  0.00000000000E+00 0.  1.
        -13    1    3    3    0    0 -0.87712897000E+01  0.33543438161E+02  0.13220235194E+02  0.37106231084E+02  0.00000000000E+00 0.  1.
         13    1    3    3    0    0  0.37283393497E+02 -0.37094085028E+01  0.14760453367E+03  0.15228561817E+03  0.00000000000E+00 0. -1.
         21    1    1    2  502  501  0.36090044018E+02 -0.94307192327E+01 -0.37644269514E+02  0.52995478766E+02  0.00000000000E+00 0.  1.
<scales pt_clust_5="13000.00000" pt_clust_6="13000.00000" pt_clust_7="13000.00000" pt_clust_8="13000.00000" pt_clust_9="37.30187"></scales>
<clustering>
<clus scale="   37.302">  2  9  1 -1</clus>
<clus scale="   78.832">  5  6 -1 -1</clus>
<clus scale="   91.113">  7  8 -1 -1</clus>
<clus scale="   97.672">  1  5  2 -1</clus>
<clus scale="   97.672">  1  5  2 -1</clus>
</clustering>
</event>
<event>
 9    1  0.6106093E-005  0.1120570E+03  0.7546771E-02  0.1260620E+00
         -2   -1    0    0    0  501 -0.00000000000E+00  0.00000000000E+00  0.53059201994E+02  0.53059201994E+02  0.00000000000E+00 0.  1.
          1   -1    0    0  502    0  0.00000000000E+00 -0.00000000000E+00 -0.78994878383E+03  0.78994878383E+03  0.00000000000E+00 0. -1.
        -24    2    1    2    0    0 -0.17091576265E+02  0.91323262355E+02 -0.31937884424E+03  0.34223477775E+03  0.80558902226E+02 0.  0.
         23    2    1    2    0    0 -0.43439245904E+01 -0.51788986696E+02 -0.43874379437E+03  0.45104110226E+03  0.90779898691E+02 0.  0.
         11    1    3    3    0    0 -0.24492345096E+02  0.59923878352E+02 -0.29440388388E+03  0.30143721238E+03  0.00000000000E+00 0. -1.
        -12    1    3    3    0    0  0.74007688315E+01  0.31399384002E+02 -0.24974960359E+02  0.40797565368E+02  0.00000000000E+00 0.  1.
        -11    1    4    4    0    0  0.99066002283E+01  0.24756350328E+02 -0.10447606108E+03  0.10782515917E+03  0.00000000000E+00 0.  1.
         11    1    4    4    0    0 -0.14250524819E+02 -0.76545337024E+02 -0.33426773329E+03  0.34321594310E+03  0.00000000000E+00 0. -1.
         21    1    1    2  502  501  0.21435500855E+02 -0.39534275659E+02  0.21233056772E+02  0.49732105814E+02  0.00000000000E+00 0.  1.
<scales pt_clust_5="13000.00000" pt_clust_6="13000.00000" pt_clust_7="13000.00000" pt_clust_8="13000.00000" pt_clust_9="44.97154"></scales>
<clustering>
<clus scale="   44.972">  1  9  2 -1</clus>
<clus scale="   80.559">  5  6 -1 -1</clus>
<clus scale="   90.780">  7  8 -1 -1</clus>
<clus scale="  103.950">  1  5  2 -1</clus>
<clus scale="  112.057">  2  5  1 -1</clus>
</clustering>
</event>
<event>
 9    1  0.6106093E-005  0.9222987E+02  0.7546771E-02  0.1299362E+00
         -2   -1    0    0    0  501 -0.00000000000E+00  0.00000000000E+00  0.82885852778E+02  0.82885852778E+02  0.00000000000E+00 0.  1.
          1   -1    0    0  502    0  0.00000000000E+00 -0.00000000000E+00 -0.17988877211E+03  0.17988877211E+03  0.00000000000E+00 0. -1.
        -24    2    1    2    0    0  0.36859988052E+02  0.11017833815E+02 -0.14752682608E+01  0.94675695985E+02  0.86494275029E+02 0.  0.
         23    2    1    2    0    0 -0.12761617468E+02 -0.10025247130E+02 -0.10771874111E+03  0.14107413714E+03  0.89639391587E+02 0.  0.
         11    1    3    3    0    0 -0.11246532750E+02  0.29932159019E+02 -0.22261718235E+02  0.38961554656E+02  0.00000000000E+00 0. -1.
        -12    1    3    3    0    0  0.48106520802E+02 -0.18914325204E+02  0.20786449974E+02  0.55714141330E+02  0.00000000000E+00 0.  1.
        -11    1    4    4    0    0  0.30750823912E+02 -0.65155011747E+01 -0.83261562522E+01  0.32517530729E+02  0.00000000000E+00 0.  1.
         11    1    4    4    0    0 -0.43512441380E+02 -0.35097459548E+01 -0.99392584858E+02  0.10855660641E+03  0.00000000000E+00 0. -1.
         21    1    1    2  502  501 -0.24098370584E+02 -0.99258668537E+00  0.12191090040E+02  0.27024791757E+02  0.00000000000E+00 0. -1.
<scales pt_clust_5="13000.00000" pt_clust_6="13000.00000" pt_clust_7="13000.00000" pt_clust_8="13000.00000" pt_clust_9="24.11880"></scales>
<clustering>
<clus scale="   24.119">  1  9  2 -1</clus>
<clus scale="   86.494">  5  6 -1 -1</clus>
<clus scale="   89.176">  1  5  2 -1</clus>
<clus scale="   89.639">  7  8 -1 -1</clus>
<clus scale="   92.230">  2  5  1 -1</clus>
</clustering>
</event>
<event>
 9    1  0.6106093E-005  0.1427792E+03  0.7546771E-02  0.1211664E+00
         -2   -1    0    0    0  501 -0.00000000000E+00  0.00000000000E+00  0.20536959863E+02  0.20536959863E+02  0.00000000000E+00 0.  1.
          1   -1    0    0  502    0  0.00000000000E+00 -0.00000000000E+00 -0.11912294782E+04  0.11912294782E+04  0.00000000000E+00 0. -1.
         23    2    1    2    0    0 -0.44327017199E+02 -0.83163905185E+02 -0.36305883005E+03  0.38625649802E+03  0.92202215831E+02 0.  0.
        -24    2    1    2    0    0  0.50269737633E+02  0.10674023441E+03 -0.73321166627E+03  0.74721692256E+03  0.82542459625E+02 0.  0.
         13    1    4    4    0    0  0.33848771768E+02  0.11870466664E+03 -0.64371666947E+03  0.65544464891E+03  0.00000000000E+00 0. -1.
        -14    1    4    4    0    0  0.16420965865E+02 -0.11964432228E+02 -0.89494996795E+02  0.91772273644E+02  0.00000000000E+00 0.  1.
        -13    1    3    3    0    0 -0.69834754696E+02 -0.52194659512E+02 -0.19718601949E+03  0.21560032868E+03  0.00000000000E+00 0.  1.
         13    1    3    3    0    0  0.25507737496E+02 -0.30969245673E+02 -0.16587281055E+03  0.17065616933E+03  0.00000000000E+00 0. -1.
         21    1    1    2  502  501 -0.59427204338E+01 -0.23576329223E+02 -0.74422021974E+02  0.78293017444E+02  0.00000000000E+00 0.  1.
<scales pt_clust_5="13000.00000" pt_clust_6="13000.00000" pt_clust_7="13000.00000" pt_clust_8="13000.00000" pt_clust_9="24.31377"></scales>
<clustering>
<clus scale="   24.314">  1  9  2 -1</clus>
<clus scale="   82.542">  5  6 -1 -1</clus>
<clus scale="   92.202">  7  8 -1 -1</clus>
<clus scale="  136.740">  2  5  1 -1</clus>
<clus scale="  136.740">  2  5  1 -1</clus>
</clustering>
</event>
<event>
 9    1  0.6106093E-005  0.9674808E+02  0.7546771E-02  0.1291700E+00
         -2   -1    0    0    0  501 -0.00000000000E+00  0.00000000000E+00  0.14780653568E+03  0.14780653568E+03  0.00000000000E+00 0.  1.
          1   -1    0    0  502    0  0.00000000000E+00 -0.00000000000E+00 -0.29421202830E+03  0.29421202830E+03  0.00000000000E+00 0. -1.
        -24    2    1    2    0    0 -0.78852661082E+02  0.78938477653E+02  0.54886320995E+01  0.13711984880E+03  0.79515422654E+02 0.  0.
         23    2    1    2    0    0  0.22229415240E+02 -0.10188272508E+02 -0.18715896624E+03  0.20910523040E+03  0.89992060418E+02 0.  0.
         13    1    3    3    0    0 -0.91202301469E+02  0.56052984780E+02 -0.88644189934E+01  0.10741682745E+03  0.00000000000E+00 0. -1.
        -14    1    3    3    0    0  0.12349640387E+02  0.22885492873E+02  0.14353051093E+02  0.29703021352E+02  0.00000000000E+00 0.  1.
        -13    1    4    4    0    0  0.49354488141E+02  0.30044094906E+01 -0.16337364878E+03  0.17069224087E+03  0.00000000000E+00 0. -1.
         13    1    4    4    0    0 -0.27125072902E+02 -0.13192681998E+02 -0.23785317456E+02  0.38412989531E+02  0.00000000000E+00 0.  1.
         21    1    1    2  502  501  0.56623245842E+02 -0.68750205145E+02  0.35264841519E+02  0.95793484771E+02  0.00000000000E+00 0. -1.
<scales pt_clust_5="13000.00000" pt_clust_6="13000.00000" pt_clust_7="13000.00000" pt_clust_8="13000.00000" pt_clust_9="89.06617"></scales>
<clustering>
<clus scale="   79.515">  5  6 -1 -1</clus>
<clus scale="   89.066">  1  9  2 -1</clus>
<clus scale="   89.066">  1  5  2 -1</clus>
<clus scale="   89.992">  7  8 -1 -1</clus>
<clus scale="   96.748">  2  5  1 -1</clus>
</clustering>
</event>
<event>
 9    1  0.6106093E-005  0.1132584E+03  0.7546771E-02  0.1258430E+00
          1   -1    0    0  502    0  0.00000000000E+00  0.00000000000E+00  0.48984716598E+03  0.48984716598E+03  0.00000000000E+00 0. -1.
         -2   -1    0    0    0  501 -0.00000000000E+00 -0.00000000000E+00 -0.97422395566E+02  0.97422395566E+02  0.00000000000E+00 0.  1.
         23    2    1    2    0    0  0.24921837907E+02  0.64488198632E+02 -0.40964868363E+02  0.12093521172E+03  0.90373553803E+02 0.  0.
        -24    2    1    2    0    0  0.20725049205E+02 -0.70609187545E+02  0.38281119473E+03  0.39792905901E+03  0.79924590513E+02 0.  0.
         11    1    4    4    0    0  0.97052046140E+01 -0.86719708681E+02  0.28003108002E+03  0.29331195790E+03  0.00000000000E+00 0. -1.
        -12    1    4    4    0    0  0.11019844591E+02  0.16110521136E+02  0.10278011470E+03  0.10461710111E+03  0.00000000000E+00 0.  1.
        -11    1    3    3    0    0  0.50190341738E+02  0.71268042586E+02 -0.26855607321E+02  0.91210898156E+02  0.00000000000E+00 0.  1.
         11    1    3    3    0    0 -0.25268503831E+02 -0.67798439541E+01 -0.14109261043E+02  0.29724313567E+02  0.00000000000E+00 0. -1.
         21    1    1    2  502  501 -0.45646887112E+02  0.61209889129E+01  0.50578444054E+02  0.68405290813E+02  0.00000000000E+00 0.  1.
<scales pt_clust_5="13000.00000" pt_clust_6="13000.00000" pt_clust_7="13000.00000" pt_clust_8="13000.00000" pt_clust_9="46.05545"></scales>
<clustering>
<clus scale="   46.055">  1  9  2 -1</clus>
<clus scale="   79.925">  5  6 -1 -1</clus>
<clus scale="   90.374">  7  8 -1 -1</clus>
<clus scale="  105.110">  1  5  2 -1</clus>
<clus scale="   46.055">  1  5  2 -1</clus>
</clustering>
</event>
<event>
 9    1  0.6106093E-005  0.9220098E+02  0.7546771E-02  0.1301258E+00
          1   -1    0    0  502    0  0.00000000000E+00  0.00000000000E+00  0.30174015956E+03  0.30174015956E+03  0.00000000000E+00 0. -1.
         -2   -1    0    0    0  501 -0.00000000000E+00 -0.00000000000E+00 -0.97413988869E+02  0.97413988869E+02  0.00000000000E+00 0.  1.
        -24    2    1    2    0    0 -0.29455320992E+01 -0.99784120322E+01 -0.36383501298E+02  0.92410837864E+02  0.84307525892E+02 0.  0.
         23    2    1    2    0    0  0.14260207119E+02 -0.15178074833E+02  0.25800302011E+03  0.27418673532E+03  0.90438266104E+02 0.  0.
         11    1    3    3    0    0 -0.37545822872E+02 -0.22225974547E+02 -0.34562121932E+02  0.55661683698E+02  0.00000000000E+00 0. -1.
        -12    1    3    3    0    0  0.34600290773E+02  0.12247562515E+02 -0.18213793664E+01  0.36749154166E+02  0.00000000000E+00 0.  1.
        -11    1    4    4    0    0  0.19550021649E+02 -0.44493450358E+02  0.79220851149E+02  0.92939839295E+02  0.00000000000E+00 0. -1.
         11    1    4    4    0    0 -0.52898145297E+01  0.29315375525E+02  0.17878216896E+03  0.18124689602E+03  0.00000000000E+00 0.  1.
         21    1    1    2  502  501 -0.11314675020E+02  0.25156486865E+02 -0.17293348125E+02  0.32556575243E+02  0.00000000000E+00 0.  1.
<scales pt_clust_5="13000.00000" pt_clust_6="13000.00000" pt_clust_7="13000.00000" pt_clust_8="13000.00000" pt_clust_9="27.58388"></scales>
<clustering>
<clus scale="   27.584">  2  9  1 -1</clus>
<clus scale="   84.308">  5  6 -1 -1</clus>
<clus scale="   86.196">  2  5  1 -1</clus>
<clus scale="   90.438">  7  8 -1 -1</clus>
<clus scale="   92.201">  1  5  2 -1</clus>
</clustering>
</event>
<event>
 9    1  0.6106093E-005  0.1361711E+03  0.7546771E-02  0.1232377E+00
         -2   -1    0    0    0  501 -0.00000000000E+00  0.00000000000E+00  0.12784039514E+03  0.12784039514E+03  0.00000000000E+00 0.  1.
          1   -1    0    0  502    0  0.00000000000E+00 -0.00000000000E+00 -0.42489116788E+03  0.42489116788E+03  0.00000000000E+00 0. -1.
         23    2    1    2    0    0  0.29821686993E+02  0.31205995184E+02  0.21801413773E+02  0.10448294752E+03  0.92618775254E+02 0.  0.
        -24    2    1    2    0    0 -0.10816221558E+03  0.37639540326E+02 -0.31442278011E+03  0.34386199845E+03  0.79142842069E+02 0.  0.
         11    1    4    4    0    0 -0.68702769296E+02  0.53883513681E+02 -0.26257970414E+03  0.27671574690E+03  0.00000000000E+00 0. -1.
        -12    1    4    4    0    0 -0.39459446280E+02 -0.16243973355E+02 -0.51843075965E+02  0.67146251545E+02  0.00000000000E+00 0.  1.
        -11    1    3    3    0    0  0.22144333458E+02  0.50103629109E+02 -0.19721104701E+02  0.58220847853E+02  0.00000000000E+00 0. -1.
         11    1    3    3    0    0  0.76773535355E+01 -0.18897633924E+02  0.41522518474E+02  0.46262099667E+02  0.00000000000E+00 0.  1.
         21    1    1    2  502  501  0.78340528583E+02 -0.68845535510E+02 -0.44294063977E+01  0.10438661705E+03  0.00000000000E+00 0.  1.
<scales pt_clust_5="13000.00000" pt_clust_6="13000.00000" pt_clust_7="13000.00000" pt_clust_8="13000.00000" pt_clust_9="110.81058"></scales>
<clustering>
<clus scale="   79.143">  5  6 -1 -1</clus>
<clus scale="   92.619">  7  8 -1 -1</clus>
<clus scale="  102.183">  1  7  2 -1</clus>
<clus scale="  110.811">  1  9  2 -1</clus>
<clus scale="  136.171">  2  5  1 -1</clus>
</clustering>
</event>
<event>
 9    1  0.6106093E-005  0.1223965E+03  0.7546771E-02  0.1241006E+00
         -2   -1    0    0    0  501 -0.00000000000E+00  0.00000000000E+00  0.31105891935E+03  0.31105891935E+03  0.00000000000E+00 0.  1.
          1   -1    0    0  502    0  0.00000000000E+00 -0.00000000000E+00 -0.11794572438E+03  0.11794572438E+03  0.00000000000E+00 0. -1.
        -24    2    1    2    0    0  0.74134114322E+02  0.77243625558E+02  0.18108543839E+03  0.22624906166E+03  0.83272188074E+02 0.  0.
         23    2    1    2    0    0 -0.67904324648E+02 -0.41448111016E+02 -0.50922999310E+02  0.13007183694E+03  0.89423641690E+02 0.  0.
         13    1    3    3    0    0  0.54066145413E+02  0.53753398153E+02  0.49069990127E+02  0.90666641186E+02  0.00000000000E+00 0. -1.
        -14    1    3    3    0    0  0.20067968909E+02  0.23490227405E+02  0.13201544827E+03  0.13558242047E+03  0.00000000000E+00 0.  1.
        -13    1    4    4    0    0 -0.34876468371E+02  0.26679507602E+02 -0.20799096087E+02  0.48587720362E+02  0.00000000000E+00 0.  1.
         13    1    4    4    0    0 -0.33027856276E+02 -0.68127618618E+02 -0.30123903223E+02  0.81484116576E+02  0.00000000000E+00 0. -1.
         21    1    1    2  502  501 -0.62297896741E+01 -0.35795514542E+02  0.62950755884E+02  0.72683745136E+02  0.00000000000E+00 0.  1.
<scales pt_clust_5="13000.00000" pt_clust_6="13000.00000" pt_clust_7="13000.00000" pt_clust_8="13000.00000" pt_clust_9="36.33358"></scales>
<clustering>
<clus scale="   36.334">  1  9  2 -1</clus>
<clus scale="   83.272">  5  6 -1 -1</clus>
<clus scale="   89.424">  7  8 -1 -1</clus>
<clus scale="  117.977">  1  5  2 -1</clus>
<clus scale="  122.396">  2  5  1 -1</clus>
</clustering>
</event>
<event>
 9    1  0.6106093E-005  0.1404304E+03  0.7546771E-02  0.1214680E+00
          1   -1    0    0  502    0  0.00000000000E+00  0.00000000000E+00  0.88754783604E+02  0.88754783604E+02  0.00000000000E+00 0. -1.
         -2   -1    0    0    0  501 -0.00000000000E+00 -0.00000000000E+00 -0.82561745207E+03  0.82561745207E+03  0.00000000000E+00 0.  1.
        -24    2    1    2    0    0 -0.14930102128E+03  0.18124508980E+01 -0.34478876283E+03  0.38458241368E+03  0.82038174058E+02 0.  0.
         23    2    1    2    0    0  0.34386801220E+02 -0.72278685038E+02 -0.29145507395E+02  0.14263637648E+03  0.11440723266E+03 0.  0.
         11    1    3    3    0    0 -0.34081041240E+02  0.30620521180E+02 -0.56192372213E+02  0.72503216372E+02  0.00000000000E+00 0. -1.
        -12    1    3    3    0    0 -0.11521998004E+03 -0.28808070282E+02 -0.28859639062E+03  0.31207919731E+03  0.00000000000E+00 0.  1.
        -13    1    4    4    0    0  0.50588736640E+02 -0.97388190460E+02 -0.22791472343E+02  0.11208537428E+03  0.00000000000E+00 0. -1.
         13    1    4    4    0    0 -0.16201935420E+02  0.25109505422E+02 -0.63540350525E+01  0.30551002199E+02  0.00000000000E+00 0.  1.
         21    1    1    2  502  501  0.11491422006E+03  0.70466234140E+02 -0.36292839824E+03  0.38715344551E+03  0.00000000000E+00 0.  1.
<scales pt_clust_5="13000.00000" pt_clust_6="13000.00000" pt_clust_7="13000.00000" pt_clust_8="13000.00000" pt_clust_9="134.79899"></scales>
<clustering>
<clus scale="   82.038">  5  6 -1 -1</clus>
<clus scale="  114.407">  7  8 -1 -1</clus>
<clus scale="  134.799">  2  9  1 -1</clus>
<clus scale="  134.799">  2  5  1 -1</clus>
<clus scale="  140.430">  1  5  2 -1</clus>
</clustering>
</event>
<event>
 9    1  0.6106093E-005  0.1127309E+03  0.7546771E-02  0.1257698E+00
         -2   -1    0    0    0  501 -0.00000000000E+00  0.00000000000E+00  0.17765800648E+03  0.17765800648E+03  0.00000000000E+00 0.  1.
          1   -1    0    0  502    0  0.00000000000E+00 -0.00000000000E+00 -0.10103539965E+03  0.10103539965E+03  0.00000000000E+00 0. -1.
         23    2    1    2    0    0  0.85754811860E+01  0.84272933339E+02  0.39621457314E+02  0.12787461747E+03  0.87215776910E+02 0.  0.
        -24    2    1    2    0    0 -0.29668754702E+02 -0.57685002527E+02  0.48027866746E+01  0.10403653966E+03  0.81195691397E+02 0.  0.
         11    1    4    4    0    0 -0.32921654795E+02  0.26889939750E+01 -0.20079019259E+02  0.38655310857E+02  0.00000000000E+00 0. -1.
        -12    1    4    4    0    0  0.32529000937E+01 -0.60373996502E+02  0.24881805933E+02  0.65381228798E+02  0.00000000000E+00 0.  1.
        -13    1    3    3    0    0 -0.23534642291E+02  0.23710901855E+02 -0.18335907337E+02  0.38108945832E+02  0.00000000000E+00 0. -1.
         13    1    3    3    0    0  0.32110123477E+02  0.60562031484E+02  0.57957364651E+02  0.89765671637E+02  0.00000000000E+00 0.  1.
         21    1    1    2  502  501  0.21093273516E+02 -0.26587930812E+02  0.32198362841E+02  0.46782249007E+02  0.00000000000E+00 0.  1.
<scales pt_clust_5="13000.00000" pt_clust_6="13000.00000" pt_clust_7="13000.00000" pt_clust_8="13000.00000" pt_clust_9="33.93883"></scales>
<clustering>
<clus scale="   33.939">  1  9  2 -1</clus>
<clus scale="   81.196">  5  6 -1 -1</clus>
<clus scale="   87.216">  7  8 -1 -1</clus>
<clus scale="  108.141">  2  5  1 -1</clus>
<clus scale="  108.141">  2  5  1 -1</clus>
</clustering>
</event>
<event>
 9    1  0.6106093E-005  0.2186782E+03  0.7546771E-02  0.1135433E+00
         -2   -1    0    0    0  501 -0.00000000000E+00  0.00000000000E+00  0.89882182298E+02  0.89882182298E+02  0.00000000000E+00 0.  1.
          1   -1    0    0  502    0  0.00000000000E+00 -0.00000000000E+00 -0.70188886304E+03  0.70188886304E+03  0.00000000000E+00 0. -1.
         23    2    1    2    0    0  0.18149032435E+03  0.65730143547E+02 -0.20103519821E+03  0.29235768059E+03  0.88310095002E+02 0.  0.
        -24    2    1    2    0    0 -0.19904140722E+03 -0.47759298776E+02 -0.41882062773E+03  0.47309605386E+03  0.80689067128E+02 0.  0.
         13    1    4    4    0    0 -0.16290223927E+03 -0.11276166044E+02 -0.35809241861E+03  0.39356634986E+03  0.00000000000E+00 0. -1.
        -14    1    4    4    0    0 -0.36139167956E+02 -0.36483132732E+02 -0.60728209126E+02  0.79529703999E+02  0.00000000000E+00 0.  1.
        -11    1    3    3    0    0  0.78175547024E+02  0.75120235312E+02 -0.98032789000E+02  0.14616734801E+03  0.00000000000E+00 0.  1.
         11    1    3    3    0    0  0.10331477732E+03 -0.93900917642E+01 -0.10300240921E+03  0.14619033258E+03  0.00000000000E+00 0. -1.
         21    1    1    2  502  501  0.17551082879E+02 -0.17970844771E+02  0.78491452010E+01  0.26317310889E+02  0.00000000000E+00 0.  1.
<scales pt_clust_5="13000.00000" pt_clust_6="13000.00000" pt_clust_7="13000.00000" pt_clust_8="13000.00000" pt_clust_9="25.11955"></scales>
<clustering>
<clus scale="   25.120">  1  9  2 -1</clus>
<clus scale="   80.689">  5  6 -1 -1</clus>
<clus scale="   88.310">  7  8 -1 -1</clus>
<clus scale="  215.713">  2  5  1 -1</clus>
<clus scale="  215.713">  2  5  1 -1</clus>
</clustering>
</event>
<event>
 9    1  0.6106093E-005  0.2492547E+03  0.7546771E-02  0.1155366E+00
          1   -1    0    0  502    0  0.00000000000E+00  0.00000000000E+00  0.58957598788E+03  0.58957598788E+03  0.00000000000E+00 0. -1.
         -2   -1    0    0    0  501 -0.00000000000E+00 -0.00000000000E+00 -0.32003915553E+03  0.32003915553E+03  0.00000000000E+00 0.  1.
        -24    2    1    2    0    0  0.34125927759E+02  0.13981543152E+02  0.10436562963E+02  0.91078776261E+02  0.82621783716E+02 0.  0.
         23    2    1    2    0    0  0.19729776029E+03 -0.55542624010E+02 -0.20140991736E+03  0.30147362538E+03  0.91153731111E+02 0.  0.
         13    1    3    3    0    0 -0.90956346833E+01 -0.23260415468E+02  0.21509336069E+02  0.32961022984E+02  0.00000000000E+00 0. -1.
        -14    1    3    3    0    0  0.43221562442E+02  0.37241958619E+02 -0.11072773106E+02  0.58117753277E+02  0.00000000000E+00 0.  1.
        -11    1    4    4    0    0  0.13567721953E+03 -0.72757458120E+02 -0.10723037373E+03  0.18761745298E+03  0.00000000000E+00 0.  1.
         11    1    4    4    0    0  0.61620540754E+02  0.17214834110E+02 -0.94179543632E+02  0.11385617241E+03  0.00000000000E+00 0. -1.
         21    1    1    2  502  501 -0.23142368805E+03  0.41561080859E+02  0.46051018674E+03  0.51706274177E+03  0.00000000000E+00 0. -1.
<scales pt_clust_5="13000.00000" pt_clust_6="13000.00000" pt_clust_7="13000.00000" pt_clust_8="13000.00000" pt_clust_9="231.98906"></scales>
<clustering>
<clus scale="   82.622">  5  6 -1 -1</clus>
<clus scale="   90.479">  2  5  1 -1</clus>
<clus scale="   91.154">  7  8 -1 -1</clus>
<clus scale="  231.989">  1  9  2 -1</clus>
<clus scale="  231.989">  1  5  2 -1</clus>
</clustering>
</event>
<event>
 9    1  0.6106093E-005  0.1461672E+03  0.7546771E-02  0.1219517E+00
          1   -1    0    0  502    0  0.00000000000E+00  0.00000000000E+00  0.65329132041E+03  0.65329132041E+03  0.00000000000E+00 0. -1.
         -2   -1    0    0    0  501 -0.00000000000E+00 -0.00000000000E+00 -0.40834088567E+02  0.40834088567E+02  0.00000000000E+00 0.  1.
        -24    2    1    2    0    0  0.78423286087E+02 -0.15287644894E+02  0.21322771671E+03  0.24167048766E+03  0.80960740762E+02 0.  0.
         23    2    1    2    0    0 -0.65102294832E+02 -0.67987590778E+01  0.40172814117E+03  0.42654158150E+03  0.12754485258E+03 0.  0.
         13    1    3    3    0    0  0.61304838190E+02 -0.20572227076E+02  0.21418081511E+03  0.22372957175E+03  0.00000000000E+00 0. -1.
        -14    1    3    3    0    0  0.17118447898E+02  0.52845821822E+01 -0.95309839883E+00  0.17940915914E+02  0.00000000000E+00 0.  1.
        -13    1    4    4    0    0 -0.39977588129E+02 -0.66787489098E+02  0.20128657859E+03  0.21581256445E+03  0.00000000000E+00 0.  1.
         13    1    4    4    0    0 -0.25124706703E+02  0.59988730020E+02  0.20044156258E+03  0.21072901705E+03  0.00000000000E+00 0. -1.
         21    1    1    2  502  501 -0.13320991255E+02  0.22086403972E+02 -0.24986260436E+01  0.25913339818E+02  0.00000000000E+00 0.  1.
<scales pt_clust_5="13000.00000" pt_clust_6="13000.00000" pt_clust_7="13000.00000" pt_clust_8="13000.00000" pt_clust_9="25.79260"></scales>
<clustering>
<clus scale="   25.793">  2  9  1 -1</clus>
<clus scale="   80.961">  5  6 -1 -1</clus>
<clus scale="  107.943">  2  5  1 -1</clus>
<clus scale="  127.545">  7  8 -1 -1</clus>
<clus scale="  146.167">  1  5  2 -1</clus>
</clustering>
</event>
<event>
 9    1  0.6106093E-005  0.1162323E+03  0.7546771E-02  0.1254731E+00
          1   -1    0    0  502    0  0.00000000000E+00  0.00000000000E+00  0.45335579711E+03  0.45335579711E+03  0.00000000000E+00 0. -1.
         -2   -1    0    0    0  501 -0.00000000000E+00 -0.00000000000E+00 -0.79560094140E+02  0.79560094140E+02  0.00000000000E+00 0.  1.
        -24    2    1    2    0    0  0.20682340255E+02  0.46622952055E+02 -0.26405684297E+02  0.98938587109E+02  0.80561312050E+02 0.  0.
         23    2    1    2    0    0 -0.69084126545E+01 -0.68927416322E+02  0.38724342196E+03  0.40473488508E+03  0.95153268252E+02 0.  0.
         13    1    3    3    0    0  0.13660624362E+02  0.33893201491E+02  0.25809038801E+02  0.44737772062E+02  0.00000000000E+00 0. -1.
        -14    1    3    3    0    0  0.70217158931E+01  0.12729750564E+02 -0.52214723098E+02  0.54200815047E+02  0.00000000000E+00 0.  1.
        -11    1    4    4    0    0  0.88902248576E+00  0.23964334232E+02  0.95255768508E+02  0.98228005732E+02  0.00000000000E+00 0.  1.
         11    1    4    4    0    0 -0.77974351403E+01 -0.92891750554E+02  0.29198765345E+03  0.30650687934E+03  0.00000000000E+00 0. -1.
         21    1    1    2  502  501 -0.13773927600E+02  0.22304464268E+02  0.12957965302E+02  0.29242419061E+02  0.00000000000E+00 0. -1.
<scales pt_clust_5="13000.00000" pt_clust_6="13000.00000" pt_clust_7="13000.00000" pt_clust_8="13000.00000" pt_clust_9="26.21469"></scales>
<clustering>
<clus scale="   26.215">  2  9  1 -1</clus>
<clus scale="   80.561">  5  6 -1 -1</clus>
<clus scale="   95.153">  7  8 -1 -1</clus>
<clus scale="  104.623">  2  5  1 -1</clus>
<clus scale="  116.232">  1  5  2 -1</clus>
</clustering>
</event>
<event>
 9    1  0.6106093E-005  0.1227771E+03  0.7546771E-02  0.1252968E+00
         -2   -1    0    0    0  501 -0.00000000000E+00  0.00000000000E+00  0.98518056911E+02  0.98518056911E+02  0.00000000000E+00 0.  1.
          1   -1    0    0  502    0  0.00000000000E+00 -0.00000000000E+00 -0.34089659834E+03  0.34089659834E+03  0.00000000000E+00 0. -1.
        -24    2    1    2    0    0 -0.17246300961E+02 -0.27763866640E+02  0.26124180011E+02  0.95568493251E+02  0.85922039858E+02 0.  0.
         23    2    1    2    0    0 -0.44200057230E+02 -0.52340168088E+02 -0.15874889684E+03  0.19472133734E+03  0.89565890349E+02 0.  0.
         11    1    3    3    0    0 -0.30588480415E+02 -0.10139378431E+02  0.52223648120E+02  0.61365882638E+02  0.00000000000E+00 0. -1.
        -12    1    3    3    0    0  0.13342179454E+02 -0.17624488209E+02 -0.26099468109E+02  0.34202610613E+02  0.00000000000E+00 0.  1.
        -11    1    4    4    0    0 -0.53455610485E+02  0.58944097331E+01 -0.74059858263E+02  0.91526547867E+02  0.00000000000E+00 0. -1.
         11    1    4    4    0    0  0.92555532542E+01 -0.58234577821E+02 -0.84689038578E+02  0.10319478948E+03  0.00000000000E+00 0.  1.
         21    1    1    2  502  501  0.61446358192E+02  0.80104034728E+02 -0.10975382460E+03  0.14912482466E+03  0.00000000000E+00 0.  1.
<scales pt_clust_5="13000.00000" pt_clust_6="13000.00000" pt_clust_7="13000.00000" pt_clust_8="13000.00000" pt_clust_9="83.97722"></scales>
<clustering>
<clus scale="   85.922">  5  6 -1 -1</clus>
<clus scale="   89.566">  7  8 -1 -1</clus>
<clus scale="   91.929">  1  5  2 -1</clus>
<clus scale="   83.977">  1  9  2 -1</clus>
<clus scale="  122.777">  2  5  1 -1</clus>
</clustering>
</event>
<event>
 9    1  0.6106093E-005  0.2484022E+03  0.7546771E-02  0.1114971E+00
          1   -1    0    0  502    0  0.00000000000E+00  0.00000000000E+00  0.11520981003E+04  0.11520981003E+04  0.00000000000E+00 0. -1.
         -2   -1    0    0    0  501 -0.00000000000E+00 -0.00000000000E+00 -0.97298944035E+02  0.97298944035E+02  0.00000000000E+00 0.  1.
        -24    2    1    2    0    0 -0.20908741682E+03 -0.16256217056E+03  0.24834331163E+03  0.37181765123E+03  0.80187019902E+02 0.  0.
         23    2    1    2    0    0  0.17859447816E+03  0.13040688015E+03  0.79710246598E+03  0.83228847013E+03  0.91814019661E+02 0.  0.
         13    1    3    3    0    0 -0.17537500592E+03 -0.10289408486E+03  0.15331616045E+03  0.25465551330E+03  0.00000000000E+00 0. -1.
        -14    1    3    3    0    0 -0.33712410893E+02 -0.59668085705E+02  0.95027151188E+02  0.11716213792E+03  0.00000000000E+00 0.  1.
        -13    1    4    4    0    0  0.43692825753E+02  0.53026799358E+02  0.39927102471E+03  0.40513979766E+03  0.00000000000E+00 0. -1.
         13    1    4    4    0    0  0.13490165241E+03  0.77380080789E+02  0.39783144128E+03  0.42714867247E+03  0.00000000000E+00 0.  1.
         21    1    1    2  502  501  0.30492938654E+02  0.32155290415E+02  0.93533786022E+01  0.45290922939E+02  0.00000000000E+00 0.  1.
<scales pt_clust_5="13000.00000" pt_clust_6="13000.00000" pt_clust_7="13000.00000" pt_clust_8="13000.00000" pt_clust_9="44.31458"></scales>
<clustering>
<clus scale="   44.315">  2  9  1 -1</clus>
<clus scale="   80.187">  5  6 -1 -1</clus>
<clus scale="   91.814">  7  8 -1 -1</clus>
<clus scale="  244.344">  2  5  1 -1</clus>
<clus scale="  248.402">  1  5  2 -1</clus>
</clustering>
</event>
<event>
 9    1  0.6106093E-005  0.1901500E+03  0.7546771E-02  0.1159463E+00
          1   -1    0    0  502    0  0.00000000000E+00  0.00000000000E+00  0.68446161621E+03  0.68446161621E+03  0.00000000000E+00 0. -1.
         -2   -1    0    0    0  501 -0.00000000000E+00 -0.00000000000E+00 -0.27700894547E+03  0.27700894547E+03  0.00000000000E+00 0.  1.
        -24    2    1    2    0    0  0.14084183512E+03 -0.38607309296E+01 -0.15588434982E+03  0.22444107917E+03  0.78883076356E+02 0.  0.
         23    2    1    2    0    0 -0.16793363701E+03 -0.24262507091E+02  0.63063198496E+03  0.65922527646E+03  0.89949368916E+02 0.  0.
         11    1    3    3    0    0  0.32744086994E+02  0.33110816622E+02 -0.54620990917E+02  0.71777113757E+02  0.00000000000E+00 0. -1.
        -12    1    3    3    0    0  0.10809774813E+03 -0.36971547552E+02 -0.10126335890E+03  0.15266396541E+03  0.00000000000E+00 0.  1.
        -13    1    4    4    0    0 -0.15718651133E+03 -0.45370125422E+02  0.58928837389E+03  0.61157733380E+03  0.00000000000E+00 0. -1.
         13    1    4    4    0    0 -0.10747125676E+02  0.21107618331E+02  0.41343611078E+02  0.47647942651E+02  0.00000000000E+00 0.  1.
         21    1    1    2  502  501  0.27091801882E+02  0.28123238021E+02 -0.67294964405E+02  0.77804206058E+02  0.00000000000E+00 0.  1.
<scales pt_clust_5="13000.00000" pt_clust_6="13000.00000" pt_clust_7="13000.00000" pt_clust_8="13000.00000" pt_clust_9="39.04974"></scales>
<clustering>
<clus scale="   39.050">  2  9  1 -1</clus>
<clus scale="   78.883">  5  6 -1 -1</clus>
<clus scale="   89.949">  7  8 -1 -1</clus>
<clus scale="  185.172">  2  5  1 -1</clus>
<clus scale="  190.150">  1  5  2 -1</clus>
</clustering>
</event>
<event>
 9    1  0.6106093E-005  0.9401800E+02  0.7546771E-02  0.1297561E+00
         -2   -1    0    0    0  501 -0.00000000000E+00  0.00000000000E+00  0.22397466418E+03  0.22397466418E+03  0.00000000000E+00 0.  1.
          1   -1    0    0  502    0  0.00000000000E+00 -0.00000000000E+00 -0.63915761460E+02  0.63915761460E+02  0.00000000000E+00 0. -1.
        -24    2    1    2    0    0 -0.54021680054E+01  0.19485337534E+02  0.84081561680E+02  0.11811337574E+03  0.80449976485E+02 0.  0.
         23    2    1    2    0    0 -0.15204231863E+02 -0.39014448330E+02  0.99731907769E+01  0.97926108806E+02  0.87958867697E+02 0.  0.
         13    1    3    3    0    0 -0.28228491926E+02 -0.90887406891E+01  0.38050911896E+01  0.29898690317E+02  0.00000000000E+00 0. -1.
        -14    1    3    3    0    0  0.22826323921E+02  0.28574078223E+02  0.80276470491E+02  0.88214685424E+02  0.00000000000E+00 0.  1.
        -13    1    4    4    0    0 -0.17358874971E+01 -0.66441038309E+02  0.10927898429E+02  0.67356097282E+02  0.00000000000E+00 0. -1.
         13    1    4    4    0    0 -0.13468344366E+02  0.27426589980E+02 -0.95470765181E+00  0.30570011524E+02  0.00000000000E+00 0.  1.
         21    1    1    2  502  501  0.20606399869E+02  0.19529110796E+02  0.66004150258E+02  0.71850941089E+02  0.00000000000E+00 0.  1.
<scales pt_clust_5="13000.00000" pt_clust_6="13000.00000" pt_clust_7="13000.00000" pt_clust_8="13000.00000" pt_clust_9="28.39031"></scales>
<clustering>
<clus scale="   28.390">  1  9  2 -1</clus>
<clus scale="   80.450">  5  6 -1 -1</clus>
<clus scale="   87.033">  1  5  2 -1</clus>
<clus scale="   87.959">  7  8 -1 -1</clus>
<clus scale="   94.018">  2  5  1 -1</clus>
</clustering>
</event>
<event>
 9    1  0.6106093E-005  0.1218820E+03  0.7546771E-02  0.1247562E+00
          1   -1    0    0  502    0  0.00000000000E+00  0.00000000000E+00  0.72794417913E+02  0.72794417913E+02  0.00000000000E+00 0. -1.
         -2   -1    0    0    0  501 -0.00000000000E+00 -0.00000000000E+00 -0.23354205749E+03  0.23354205749E+03  0.00000000000E+00 0.  1.
        -24    2    1    2    0    0  0.51109295943E+02 -0.34651263089E+02 -0.87390240464E+02  0.13196185306E+03  0.77226979550E+02 0.  0.
         23    2    1    2    0    0 -0.76896224492E+02  0.21514936252E+02 -0.48905539886E+02  0.13648765642E+03  0.99303608700E+02 0.  0.
         11    1    3    3    0    0  0.22138199594E+02 -0.25815948837E+02  0.53268247214E+01  0.34422930689E+02  0.00000000000E+00 0. -1.
        -12    1    3    3    0    0  0.28971096350E+02 -0.88353142521E+01 -0.92717065185E+02  0.97538922376E+02  0.00000000000E+00 0.  1.
        -13    1    4    4    0    0 -0.29012268907E+02  0.55644387104E+02 -0.47128405974E+01  0.62930282295E+02  0.00000000000E+00 0. -1.
         13    1    4    4    0    0 -0.47883955585E+02 -0.34129450852E+02 -0.44192699289E+02  0.73557374126E+02  0.00000000000E+00 0.  1.
         21    1    1    2  502  501  0.25786928549E+02  0.13136326837E+02 -0.24451859227E+02  0.37886965917E+02  0.00000000000E+00 0.  1.
<scales pt_clust_5="13000.00000" pt_clust_6="13000.00000" pt_clust_7="13000.00000" pt_clust_8="13000.00000" pt_clust_9="28.94009"></scales>
<clustering>
<clus scale="   28.940">  2  9  1 -1</clus>
<clus scale="   77.227">  5  6 -1 -1</clus>
<clus scale="   99.304">  7  8 -1 -1</clus>
<clus scale="  104.681">  2  5  1 -1</clus>
<clus scale="  121.882">  1  5  2 -1</clus>
</clustering>
</event>
<event>
 9    1  0.6106093E-005  0.1446703E+03  0.7546771E-02  0.1220877E+00
          3   -1    0    0  502    0  0.00000000000E+00  0.00000000000E+00  0.28822909813E+03  0.28822909813E+03  0.00000000000E+00 0. -1.
         -4   -1    0    0    0  501 -0.00000000000E+00 -0.00000000000E+00 -0.46540480684E+03  0.46540480684E+03  0.00000000000E+00 0.  1.
        -24    2    1    2    0    0  0.96424767957E+02  0.58742521261E+01 -0.18369031879E+03  0.22294614488E+03  0.81428542845E+02 0.  0.
         23    2    1    2    0    0  0.46890721973E+02  0.52102788346E+01  0.23616012777E+03  0.25976478158E+03  0.97366570173E+02 0.  0.
         13    1    3    3    0    0  0.23936637010E+02  0.32390142610E+02 -0.27630419892E+02  0.48841826676E+02  0.00000000000E+00 0. -1.
        -14    1    3    3    0    0  0.72488130947E+02 -0.26515890484E+02 -0.15605989889E+03  0.17410431821E+03  0.00000000000E+00 0.  1.
        -11    1    4    4    0    0  0.32674265633E+02 -0.44902649712E+02  0.10848575433E+03  0.12187294400E+03  0.00000000000E+00 0. -1.
         11    1    4    4    0    0  0.14216456340E+02  0.50112928547E+02  0.12767437344E+03  0.13789183758E+03  0.00000000000E+00 0.  1.
         21    1    1    2  502  501 -0.14331548993E+03 -0.11084530961E+02 -0.22964551770E+03  0.27092297850E+03  0.00000000000E+00 0. -1.
<scales pt_clust_5="13000.00000" pt_clust_6="13000.00000" pt_clust_7="13000.00000" pt_clust_8="13000.00000" pt_clust_9="119.57797"></scales>
<clustering>
<clus scale="   81.429">  5  6 -1 -1</clus>
<clus scale="   97.367">  7  8 -1 -1</clus>
<clus scale="  108.195">  1  7  2 -1</clus>
<clus scale="  119.578">  1  9  2 -1</clus>
<clus scale="  108.195">  1  5  2 -1</clus>
</clustering>
</event>
<event>
 9    1  0.6106093E-005  0.1507439E+03  0.7546771E-02  0.1201589E+00
         -2   -1    0    0    0  501 -0.00000000000E+00  0.00000000000E+00  0.74169242275E+03  0.74169242275E+03  0.00000000000E+00 0.  1.
          1   -1    0    0  502    0  0.00000000000E+00 -0.00000000000E+00 -0.34656180800E+02  0.34656180800E+02  0.00000000000E+00 0. -1.
        -24    2    1    2    0    0  0.27079815491E+02  0.10445707832E+03  0.36365691139E+03  0.38786646673E+03  0.80928667324E+02 0.  0.
         23    2    1    2    0    0 -0.27390530434E+02 -0.12570070897E+03  0.27927763180E+03  0.32095128334E+03  0.91993593592E+02 0.  0.
         13    1    3    3    0    0  0.29929526471E+02  0.10121755307E+02  0.41430187854E+02  0.52102657810E+02  0.00000000000E+00 0. -1.
        -14    1    3    3    0    0 -0.28497109796E+01  0.94335323017E+02  0.32222672354E+03  0.33576380892E+03  0.00000000000E+00 0.  1.
        -11    1    4    4    0    0 -0.41947231303E+02 -0.67491227753E+02  0.22989397148E+03  0.24324036294E+03  0.00000000000E+00 0.  1.
         11    1    4    4    0    0  0.14556700869E+02 -0.58209481220E+02  0.49383660319E+02  0.77710920408E+02  0.00000000000E+00 0. -1.
         21    1    1    2  502  501  0.31071494279E+00  0.21243630650E+02  0.64101698755E+02  0.67530853469E+02  0.00000000000E+00 0.  1.
<scales pt_clust_5="13000.00000" pt_clust_6="13000.00000" pt_clust_7="13000.00000" pt_clust_8="13000.00000" pt_clust_9="21.24590"></scales>
<clustering>
<clus scale="   21.246">  1  9  2 -1</clus>
<clus scale="   80.929">  5  6 -1 -1</clus>
<clus scale="   91.994">  7  8 -1 -1</clus>
<clus scale="  144.258">  1  5  2 -1</clus>
<clus scale="  150.744">  2  5  1 -1</clus>
</clustering>
</event>
<event>
 9    1  0.6106093E-005  0.1181092E+03  0.7546771E-02  0.1252399E+00
          1   -1    0    0  502    0  0.00000000000E+00  0.00000000000E+00  0.15597776106E+03  0.15597776106E+03  0.00000000000E+00 0. -1.
         -2   -1    0    0    0  501 -0.00000000000E+00 -0.00000000000E+00 -0.24366685544E+03  0.24366685544E+03  0.00000000000E+00 0.  1.
        -24    2    1    2    0    0  0.79348555035E+02  0.38050361325E+02 -0.15004908508E+03  0.18823554907E+03  0.71929624065E+02 0.  0.
         23    2    1    2    0    0 -0.73843519980E+02 -0.93006786953E+01  0.10651529347E+03  0.15843227604E+03  0.90641658652E+02 0.  0.
         11    1    3    3    0    0  0.95804908136E+01  0.39416021284E+02 -0.78096663103E+02  0.88002825670E+02  0.00000000000E+00 0. -1.
        -12    1    3    3    0    0  0.69768064221E+02 -0.13656599584E+01 -0.71952421976E+02  0.10023272340E+03  0.00000000000E+00 0.  1.
        -11    1    4    4    0    0 -0.23446118243E+02  0.11503962315E+02  0.10019696107E+03  0.10354464070E+03  0.00000000000E+00 0. -1.
         11    1    4    4    0    0 -0.50397401737E+02 -0.20804641010E+02  0.63183323936E+01  0.54887635344E+02  0.00000000000E+00 0.  1.
         21    1    1    2  502  501 -0.55050350544E+01 -0.28749682630E+02 -0.44155302775E+02  0.52976791385E+02  0.00000000000E+00 0.  1.
<scales pt_clust_5="13000.00000" pt_clust_6="13000.00000" pt_clust_7="13000.00000" pt_clust_8="13000.00000" pt_clust_9="29.27199"></scales>
<clustering>
<clus scale="   29.272">  2  9  1 -1</clus>
<clus scale="   71.930">  5  6 -1 -1</clus>
<clus scale="   90.642">  7  8 -1 -1</clus>
<clus scale="  104.440">  2  5  1 -1</clus>
<clus scale="  118.109">  1  5  2 -1</clus>
</clustering>
</event>
<event>
 9    1  0.6106093E-005  0.1362593E+03  0.7546771E-02  0.1239482E+00
          1   -1    0    0  502    0  0.00000000000E+00  0.00000000000E+00  0.10269213871E+03  0.10269213871E+03  0.00000000000E+00 0. -1.
         -2   -1    0    0    0  501 -0.00000000000E+00 -0.00000000000E+00 -0.35837537899E+03  0.35837537899E+03  0.00000000000E+00 0.  1.
        -24    2    1    2    0    0  0.31721605487E+02  0.20177327269E+02 -0.18064926704E+03  0.20102870236E+03  0.79780929405E+02 0.  0.
         23    2    1    2    0    0  0.44674382791E+02 -0.94644544816E+02 -0.15067120339E+02  0.13765525043E+03  0.88139432241E+02 0.  0.
         11    1    3    3    0    0  0.28319646956E+02 -0.22836630024E+02 -0.12739789727E+03  0.13249052156E+03  0.00000000000E+00 0. -1.
        -12    1    3    3    0    0  0.34019585304E+01  0.43013957292E+02 -0.53251369773E+02  0.68538180794E+02  0.00000000000E+00 0.  1.
        -13    1    4    4    0    0  0.17998610689E+02 -0.92840962420E+01  0.31020972218E+02  0.37046526789E+02  0.00000000000E+00 0. -1.
         13    1    4    4    0    0  0.26675772102E+02 -0.85360448574E+02 -0.46088092558E+02  0.10060872365E+03  0.00000000000E+00 0.  1.
         21    1    1    2  502  501 -0.76395988277E+02  0.74467217547E+02 -0.59966852897E+02  0.12238356491E+03  0.00000000000E+00 0.  1.
<scales pt_clust_5="13000.00000" pt_clust_6="13000.00000" pt_clust_7="13000.00000" pt_clust_8="13000.00000" pt_clust_9="103.91358"></scales>
<clustering>
<clus scale="   79.781">  5  6 -1 -1</clus>
<clus scale="   88.139">  7  8 -1 -1</clus>
<clus scale="   88.195">  2  5  1 -1</clus>
<clus scale="  103.914">  2  9  1 -1</clus>
<clus scale="  136.259">  1  5  2 -1</clus>
</clustering>
</event>
<event>
 9    1  0.6106093E-005  0.1036566E+03  0.7546771E-02  0.1278731E+00
         -4   -1    0    0    0  501 -0.00000000000E+00  0.00000000000E+00  0.29644624209E+03  0.29644624209E+03  0.00000000000E+00 0.  1.
          3   -1    0    0  502    0  0.00000000000E+00 -0.00000000000E+00 -0.10259736382E+03  0.10259736382E+03  0.00000000000E+00 0. -1.
         23    2    1    2    0    0  0.23386478806E+02 -0.31950396061E+02  0.23317589458E+03  0.25390698880E+03  0.92358031321E+02 0.  0.
        -24    2    1    2    0    0  0.11795537391E+01  0.48651226438E+02 -0.58156834104E+02  0.10996603667E+03  0.79636541150E+02 0.  0.
         11    1    4    4    0    0  0.26173928648E+02 -0.11167364809E+02 -0.19268130495E+02  0.34366341534E+02  0.00000000000E+00 0. -1.
        -12    1    4    4    0    0 -0.24994374909E+02  0.59818591247E+02 -0.38888703608E+02  0.75599695133E+02  0.00000000000E+00 0.  1.
        -13    1    3    3    0    0 -0.27727589859E+02 -0.42297947395E+01  0.24371632096E+02  0.37157594835E+02  0.00000000000E+00 0.  1.
         13    1    3    3    0    0  0.51114068665E+02 -0.27720601322E+02  0.20880426249E+03  0.21674939397E+03  0.00000000000E+00 0. -1.
         21    1    1    2  502  501 -0.24566032546E+02 -0.16700830377E+02  0.18829817796E+02  0.35170580441E+02  0.00000000000E+00 0. -1.
<scales pt_clust_5="13000.00000" pt_clust_6="13000.00000" pt_clust_7="13000.00000" pt_clust_8="13000.00000" pt_clust_9="29.70535"></scales>
<clustering>
<clus scale="   29.705">  1  9  2 -1</clus>
<clus scale="   79.637">  5  6 -1 -1</clus>
<clus scale="   92.358">  7  8 -1 -1</clus>
<clus scale="   92.502">  2  5  1 -1</clus>
<clus scale="   92.502">  2  5  1 -1</clus>
</clustering>
</event>
<event>
 9    1  0.6106093E-005  0.1746982E+03  0.7546771E-02  0.1174445E+00
          3   -1    0    0  502    0  0.00000000000E+00  0.00000000000E+00  0.25605201881E+03  0.25605201881E+03  0.00000000000E+00 0. -1.
         -4   -1    0    0    0  501 -0.00000000000E+00 -0.00000000000E+00 -0.24879007042E+03  0.24879007042E+03  0.00000000000E+00 0.  1.
         23    2    1    2    0    0  0.98175057251E+02 -0.50777658497E+02 -0.96036227371E+02  0.17206174804E+03  0.90363575079E+02 0.  0.
        -24    2    1    2    0    0 -0.13970721266E+03  0.79316409480E+02  0.17150223231E+03  0.24797955363E+03  0.79193719730E+02 0.  0.
         11    1    4    4    0    0 -0.79324725559E+02  0.24821542376E+01  0.95559412771E+02  0.12421825367E+03  0.00000000000E+00 0. -1.
        -12    1    4    4    0    0 -0.60382487105E+02  0.76834255243E+02  0.75942819544E+02  0.12376129996E+03  0.00000000000E+00 0.  1.
        -11    1    3    3    0    0  0.17152211351E+02 -0.56214730026E+02 -0.57330185811E+02  0.82103863681E+02  0.00000000000E+00 0.  1.
         11    1    3    3    0    0  0.81022845900E+02  0.54370715294E+01 -0.38706041560E+02  0.89957884356E+02  0.00000000000E+00 0. -1.
         21    1    1    2  502  501  0.41532155413E+02 -0.28538750983E+02 -0.68204056550E+02  0.84800787560E+02  0.00000000000E+00 0.  1.
<scales pt_clust_5="13000.00000" pt_clust_6="13000.00000" pt_clust_7="13000.00000" pt_clust_8="13000.00000" pt_clust_9="50.39226"></scales>
<clustering>
<clus scale="   50.392">  2  9  1 -1</clus>
<clus scale="   79.194">  5  6 -1 -1</clus>
<clus scale="   90.364">  7  8 -1 -1</clus>
<clus scale="  169.191">  1  5  2 -1</clus>
<clus scale="  169.191">  1  5  2 -1</clus>
</clustering>
</event>
<event>
 9    1  0.6106093E-005  0.9931590E+02  0.7546771E-02  0.1287511E+00
          1   -1    0    0  502    0  0.00000000000E+00  0.00000000000E+00  0.30729590427E+02  0.30729590427E+02  0.00000000000E+00 0. -1.
         -2   -1    0    0    0  501 -0.00000000000E+00 -0.00000000000E+00 -0.72568328325E+03  0.72568328325E+03  0.00000000000E+00 0.  1.
        -24    2    1    2    0    0 -0.98487244608E+01 -0.40049533595E+02 -0.58848821347E+03  0.59534839618E+03  0.80127229642E+02 0.  0.
         23    2    1    2    0    0  0.12116096574E+02  0.19296215217E+02 -0.64391942309E+02  0.11409615073E+03  0.91391824899E+02 0.  0.
         11    1    3    3    0    0 -0.19777255843E+02 -0.27757969154E+02 -0.84530143351E+02  0.91142689423E+02  0.00000000000E+00 0. -1.
        -12    1    3    3    0    0  0.99285313825E+01 -0.12291564441E+02 -0.50395807012E+03  0.50420570676E+03  0.00000000000E+00 0.  1.
        -11    1    4    4    0    0  0.64427380728E+01 -0.20539690580E+02 -0.70213575047E+02  0.73439321101E+02  0.00000000000E+00 0. -1.
         11    1    4    4    0    0  0.56733585013E+01  0.39835905797E+02  0.58216327381E+01  0.40656829624E+02  0.00000000000E+00 0.  1.
         21    1    1    2  502  501 -0.22673721134E+01  0.20753318378E+02 -0.42073537045E+02  0.46968326769E+02  0.00000000000E+00 0. -1.
<scales pt_clust_5="13000.00000" pt_clust_6="13000.00000" pt_clust_7="13000.00000" pt_clust_8="13000.00000" pt_clust_9="20.87681"></scales>
<clustering>
<clus scale="   20.877">  1  9  2 -1</clus>
<clus scale="   80.127">  5  6 -1 -1</clus>
<clus scale="   89.059">  2  5  1 -1</clus>
<clus scale="   91.392">  7  8 -1 -1</clus>
<clus scale="   20.877">  1  5  2 -1</clus>
</clustering>
</event>
<event>
 9    1  0.6106093E-005  0.9777219E+02  0.7546771E-02  0.1289092E+00
          1   -1    0    0  502    0  0.00000000000E+00  0.00000000000E+00  0.16694795881E+03  0.16694795881E+03  0.00000000000E+00 0. -1.
         -2   -1    0    0    0  501 -0.00000000000E+00 -0.00000000000E+00 -0.14092030086E+03  0.14092030086E+03  0.00000000000E+00 0.  1.
        -24    2    1    2    0    0  0.53832387189E+02  0.19731354102E+02 -0.57666395392E+01  0.98849049715E+02  0.80315803258E+02 0.  0.
         23    2    1    2    0    0 -0.37251029949E+02  0.17504754999E+01  0.98229845975E+02  0.13725506491E+03  0.88312778270E+02 0.  0.
         13    1    3    3    0    0  0.57634585782E+02  0.35974591383E+02  0.17557965937E+02  0.70172636200E+02  0.00000000000E+00 0. -1.
        -14    1    3    3    0    0 -0.38021985932E+01 -0.16243237281E+02 -0.23324605476E+02  0.28676413515E+02  0.00000000000E+00 0.  1.
        -11    1    4    4    0    0 -0.11727748561E+02  0.44499052989E+02  0.49545508232E+02  0.67619991047E+02  0.00000000000E+00 0. -1.
         11    1    4    4    0    0 -0.25523281388E+02 -0.42748577489E+02  0.48684337743E+02  0.69635073861E+02  0.00000000000E+00 0.  1.
         21    1    1    2  502  501 -0.16581357240E+02 -0.21481829602E+02 -0.66435548490E+02  0.71764145046E+02  0.00000000000E+00 0.  1.
<scales pt_clust_5="13000.00000" pt_clust_6="13000.00000" pt_clust_7="13000.00000" pt_clust_8="13000.00000" pt_clust_9="27.13688"></scales>
<clustering>
<clus scale="   27.137">  2  9  1 -1</clus>
<clus scale="   80.316">  5  6 -1 -1</clus>
<clus scale="   88.313">  7  8 -1 -1</clus>
<clus scale="   90.614">  2  5  1 -1</clus>
<clus scale="   97.772">  1  5  2 -1</clus>
</clustering>
</event>
<event>
 9    1  0.6106093E-005  0.1216689E+03  0.7546771E-02  0.1244501E+00
         -2   -1    0    0    0  501 -0.00000000000E+00  0.00000000000E+00  0.25376610234E+02  0.25376610234E+02  0.00000000000E+00 0.  1.
          1   -1    0    0  502    0  0.00000000000E+00 -0.00000000000E+00 -0.70482809767E+03  0.70482809767E+03  0.00000000000E+00 0. -1.
        -24    2    1    2    0    0 -0.63432111599E+02 -0.20144111912E+02 -0.17952590819E+03  0.20701629889E+03  0.78719618056E+02 0.  0.
         23    2    1    2    0    0  0.81061179325E+02  0.33648459375E+02 -0.46248623611E+03  0.47965846709E+03  0.92062983083E+02 0.  0.
         11    1    3    3    0    0 -0.41390352710E+02  0.10061700283E+02 -0.28070659047E+02  0.51013341484E+02  0.00000000000E+00 0. -1.
        -12    1    3    3    0    0 -0.22041758889E+02 -0.30205812196E+02 -0.15145524915E+03  0.15600295740E+03  0.00000000000E+00 0.  1.
        -11    1    4    4    0    0  0.25911131876E+02  0.59555184528E+02 -0.20407475860E+03  0.21416048621E+03  0.00000000000E+00 0.  1.
         11    1    4    4    0    0  0.55150047449E+02 -0.25906725153E+02 -0.25841147751E+03  0.26549798088E+03  0.00000000000E+00 0. -1.
         21    1    1    2  502  501 -0.17629067726E+02 -0.13504347463E+02 -0.37439343137E+02  0.43529941923E+02  0.00000000000E+00 0. -1.
<scales pt_clust_5="13000.00000" pt_clust_6="13000.00000" pt_clust_7="13000.00000" pt_clust_8="13000.00000" pt_clust_9="22.20701"></scales>
<clustering>
<clus scale="   22.207">  1  9  2 -1</clus>
<clus scale="   78.720">  5  6 -1 -1</clus>
<clus scale="   92.063">  7  8 -1 -1</clus>
<clus scale="  111.913">  1  5  2 -1</clus>
<clus scale="  121.669">  2  5  1 -1</clus>
</clustering>
</event>
<event>
 9    1  0.6106093E-005  0.9591292E+02  0.7546771E-02  0.1294917E+00
          1   -1    0    0  502    0  0.00000000000E+00  0.00000000000E+00  0.57781617226E+02  0.57781617226E+02  0.00000000000E+00 0. -1.
         -2   -1    0    0    0  501 -0.00000000000E+00 -0.00000000000E+00 -0.29381869815E+03  0.29381869815E+03  0.00000000000E+00 0.  1.
        -24    2    1    2    0    0 -0.40827965376E+02  0.11298292611E+02 -0.44031705121E+02  0.10146648679E+03  0.81006683138E+02 0.  0.
         23    2    1    2    0    0  0.12525403820E+02 -0.99483628008E+01 -0.50099029664E+02  0.10542630157E+03  0.91372515701E+02 0.  0.
         11    1    3    3    0    0  0.13224610011E+02  0.25537059726E+02 -0.34246803919E+02  0.44719965430E+02  0.00000000000E+00 0. -1.
        -12    1    3    3    0    0 -0.54052575387E+02 -0.14238767115E+02 -0.97849012016E+01  0.56746521360E+02  0.00000000000E+00 0.  1.
        -13    1    4    4    0    0  0.42594683977E+02 -0.23878574695E+02 -0.44735994153E+01  0.49035767806E+02  0.00000000000E+00 0. -1.
         13    1    4    4    0    0 -0.30069280156E+02  0.13930211894E+02 -0.45625430249E+02  0.56390533762E+02  0.00000000000E+00 0.  1.
         21    1    1    2  502  501  0.28302561556E+02 -0.13499298104E+01 -0.14190634614E+03  0.14470752702E+03  0.00000000000E+00 0. -1.
<scales pt_clust_5="13000.00000" pt_clust_6="13000.00000" pt_clust_7="13000.00000" pt_clust_8="13000.00000" pt_clust_9="28.33474"></scales>
<clustering>
<clus scale="   28.335">  2  9  1 -1</clus>
<clus scale="   81.007">  5  6 -1 -1</clus>
<clus scale="   86.095">  2  5  1 -1</clus>
<clus scale="   91.373">  7  8 -1 -1</clus>
<clus scale="   95.913">  1  5  2 -1</clus>
</clustering>
</event>
<event>
 9    1  0.6106093E-005  0.2334272E+03  0.7546771E-02  0.1124364E+00
          3   -1    0    0  502    0  0.00000000000E+00  0.00000000000E+00  0.21056997052E+03  0.21056997052E+03  0.00000000000E+00 0. -1.
         -4   -1    0    0    0  501 -0.00000000000E+00 -0.00000000000E+00 -0.29087735872E+03  0.29087735872E+03  0.00000000000E+00 0.  1.
        -24    2    1    2    0    0  0.92258180849E+02  0.18972573248E+03 -0.73083488940E+02  0.23767201589E+03  0.81482300436E+02 0.  0.
         23    2    1    2    0    0 -0.80925279842E+02 -0.20853991948E+03  0.47567084956E+01  0.23875645566E+03  0.83331986108E+02 0.  0.
         13    1    3    3    0    0  0.71823738735E+02  0.70600973026E+02 -0.96549274393E+01  0.10117492012E+03  0.00000000000E+00 0. -1.
        -14    1    3    3    0    0  0.20434442114E+02  0.11912475945E+03 -0.63428561500E+02  0.13649709577E+03  0.00000000000E+00 0.  1.
        -13    1    4    4    0    0  0.13019504656E+02 -0.69660946448E+02  0.55636094505E+01  0.71085221471E+02  0.00000000000E+00 0.  1.
         13    1    4    4    0    0 -0.93944784498E+02 -0.13887897303E+03 -0.80690095495E+00  0.16767123419E+03  0.00000000000E+00 0. -1.
         21    1    1    2  502  501 -0.11332901007E+02  0.18814187001E+02 -0.11980607763E+02  0.25018857690E+02  0.00000000000E+00 0. -1.
<scales pt_clust_5="13000.00000" pt_clust_6="13000.00000" pt_clust_7="13000.00000" pt_clust_8="13000.00000" pt_clust_9="21.96379"></scales>
<clustering>
<clus scale="   21.964">  2  9  1 -1</clus>
<clus scale="   81.482">  5  6 -1 -1</clus>
<clus scale="   83.332">  7  8 -1 -1</clus>
<clus scale="  232.773">  2  5  1 -1</clus>
<clus scale="  233.427">  1  5  2 -1</clus>
</clustering>
</event>
<event>
 9    1  0.6106093E-005  0.1292087E+03  0.7546771E-02  0.1233060E+00
         -2   -1    0    0    0  501 -0.00000000000E+00  0.00000000000E+00  0.18579921426E+03  0.18579921426E+03  0.00000000000E+00 0.  1.
          1   -1    0    0  502    0  0.00000000000E+00 -0.00000000000E+00 -0.13131764266E+03  0.13131764266E+03  0.00000000000E+00 0. -1.
        -24    2    1    2    0    0  0.47969271385E+02  0.64869140812E+02  0.63852215877E+02  0.13017837971E+03  0.79751167048E+02 0.  0.
         23    2    1    2    0    0 -0.73074515584E+02 -0.54304160614E+02 -0.47290010774E+02  0.14025046537E+03  0.95629604360E+02 0.  0.
         11    1    3    3    0    0 -0.12705888047E+02  0.23694736003E+02 -0.74507849255E+01  0.27899718660E+02  0.00000000000E+00 0. -1.
        -12    1    3    3    0    0  0.60675159432E+02  0.41174404810E+02  0.71303000802E+02  0.10227866105E+03  0.00000000000E+00 0.  1.
        -13    1    4    4    0    0 -0.86010811705E+02 -0.14137096024E+02 -0.18333300465E+02  0.89072033322E+02  0.00000000000E+00 0.  1.
         13    1    4    4    0    0  0.12936296121E+02 -0.40167064590E+02 -0.28956710309E+02  0.51178432050E+02  0.00000000000E+00 0. -1.
         21    1    1    2  502  501  0.25105244199E+02 -0.10564980198E+02  0.37919366498E+02  0.46688011829E+02  0.00000000000E+00 0.  1.
<scales pt_clust_5="13000.00000" pt_clust_6="13000.00000" pt_clust_7="13000.00000" pt_clust_8="13000.00000" pt_clust_9="27.23770"></scales>
<clustering>
<clus scale="   27.238">  1  9  2 -1</clus>
<clus scale="   79.751">  5  6 -1 -1</clus>
<clus scale="   95.630">  7  8 -1 -1</clus>
<clus scale="  117.941">  1  5  2 -1</clus>
<clus scale="  129.209">  2  5  1 -1</clus>
</clustering>
</event>
<event>
 9    1  0.6106093E-005  0.1273296E+03  0.7546771E-02  0.1239032E+00
         -2   -1    0    0    0  501 -0.00000000000E+00  0.00000000000E+00  0.31568788254E+03  0.31568788254E+03  0.00000000000E+00 0.  1.
          1   -1    0    0  502    0  0.00000000000E+00 -0.00000000000E+00 -0.80902381236E+02  0.80902381236E+02  0.00000000000E+00 0. -1.
        -24    2    1    2    0    0  0.65713578085E+02  0.14075961157E+02  0.11088449751E+03  0.17064475840E+03  0.11094077138E+03 0.  0.
         23    2    1    2    0    0 -0.47832947370E+02 -0.40796222897E+02  0.12508409662E+02  0.11000586863E+03  0.89400828648E+02 0.  0.
         13    1    3    3    0    0  0.60285724113E+02 -0.41384553448E+02  0.72546236918E+02  0.10300488477E+03  0.00000000000E+00 0. -1.
        -14    1    3    3    0    0  0.54278539726E+01  0.55460514605E+02  0.38338260589E+02  0.67639873624E+02  0.00000000000E+00 0.  1.
        -13    1    4    4    0    0 -0.13937213654E+02  0.16754191313E+02  0.33525777752E+02  0.39986580559E+02  0.00000000000E+00 0.  1.
         13    1    4    4    0    0 -0.33895733716E+02 -0.57550414210E+02 -0.21017368090E+02  0.70019288066E+02  0.00000000000E+00 0. -1.
         21    1    1    2  502  501 -0.17880630715E+02  0.26720261740E+02  0.11139259414E+03  0.11593963676E+03  0.00000000000E+00 0.  1.
<scales pt_clust_5="13000.00000" pt_clust_6="13000.00000" pt_clust_7="13000.00000" pt_clust_8="13000.00000" pt_clust_9="32.15104"></scales>
<clustering>
<clus scale="   32.151">  1  9  2 -1</clus>
<clus scale="   89.401">  7  8 -1 -1</clus>
<clus scale="  109.076">  2  7  1 -1</clus>
<clus scale="  110.941">  5  6 -1 -1</clus>
<clus scale="  109.076">  2  5  1 -1</clus>
</clustering>
</event>
<event>
 9    1  0.6106093E-005  0.1575696E+03  0.7546771E-02  0.1191717E+00
         -2   -1    0    0    0  501 -0.00000000000E+00  0.00000000000E+00  0.22251364411E+02  0.22251364411E+02  0.00000000000E+00 0.  1.
          1   -1    0    0  502    0  0.00000000000E+00 -0.00000000000E+00 -0.14723119854E+04  0.14723119854E+04  0.00000000000E+00 0. -1.
        -24    2    1    2    0    0  0.15078131148E+03 -0.12562248578E+02 -0.77887781529E+03  0.79749417317E+03  0.80333623728E+02 0.  0.
         23    2    1    2    0    0 -0.11932728959E+03 -0.68929652415E+01 -0.59474492539E+03  0.61215386363E+03  0.82001899165E+02 0.  0.
         13    1    3    3    0    0  0.16012242201E+03 -0.16590286814E+02 -0.72390540656E+03  0.74158847435E+03  0.00000000000E+00 0. -1.
        -14    1    3    3    0    0 -0.93411105331E+01  0.40280382362E+01 -0.54972408738E+02  0.55905698819E+02  0.00000000000E+00 0.  1.
        -11    1    4    4    0    0 -0.79065079717E+02 -0.42268279655E+02 -0.32519068621E+03  0.33732310430E+03  0.00000000000E+00 0. -1.
         11    1    4    4    0    0 -0.40262209870E+02  0.35375314414E+02 -0.26955423918E+03  0.27483075933E+03  0.00000000000E+00 0.  1.
         21    1    1    2  502  501 -0.31454021894E+02  0.19455213819E+02 -0.76437880265E+02  0.84915312974E+02  0.00000000000E+00 0.  1.
<scales pt_clust_5="13000.00000" pt_clust_6="13000.00000" pt_clust_7="13000.00000" pt_clust_8="13000.00000" pt_clust_9="36.98460"></scales>
<clustering>
<clus scale="   36.985">  1  9  2 -1</clus>
<clus scale="   80.334">  5  6 -1 -1</clus>
<clus scale="   82.002">  7  8 -1 -1</clus>
<clus scale="  156.708">  1  5  2 -1</clus>
<clus scale="  157.570">  2  5  1 -1</clus>
</clustering>
</event>
<event>
 9    1  0.6106093E-005  0.1767166E+03  0.7546771E-02  0.1171749E+00
         -2   -1    0    0    0  501 -0.00000000000E+00  0.00000000000E+00  0.16653460190E+03  0.16653460190E+03  0.00000000000E+00 0.  1.
          1   -1    0    0  502    0  0.00000000000E+00 -0.00000000000E+00 -0.62351759020E+03  0.62351759020E+03  0.00000000000E+00 0. -1.
        -24    2    1    2    0    0  0.14031996518E+03 -0.97438642674E+02 -0.50955910517E+02  0.19981917937E+03  0.90261940550E+02 0.  0.
         23    2    1    2    0    0 -0.14712430489E+03  0.12497938338E+02 -0.45784361281E+03  0.49050249788E+03  0.95760989364E+02 0.  0.
         13    1    3    3    0    0  0.64181376264E+02 -0.46299605320E+02 -0.70562821161E+02  0.10602836527E+03  0.00000000000E+00 0. -1.
        -14    1    3    3    0    0  0.76138588916E+02 -0.51139037353E+02  0.19606910644E+02  0.93790814095E+02  0.00000000000E+00 0.  1.
        -13    1    4    4    0    0 -0.80163055825E+02 -0.38609805251E+02 -0.27835682623E+03  0.29223168084E+03  0.00000000000E+00 0. -1.
         13    1    4    4    0    0 -0.66961249063E+02  0.51107743589E+02 -0.17948678658E+03  0.19827081703E+03  0.00000000000E+00 0.  1.
         21    1    1    2  502  501  0.68043397084E+01  0.84940704336E+02  0.51816535019E+02  0.99730514855E+02  0.00000000000E+00 0. -1.
<scales pt_clust_5="13000.00000" pt_clust_6="13000.00000" pt_clust_7="13000.00000" pt_clust_8="13000.00000" pt_clust_9="85.21281"></scales>
<clustering>
<clus scale="   85.213">  1  9  2 -1</clus>
<clus scale="   90.262">  5  6 -1 -1</clus>
<clus scale="   95.761">  7  8 -1 -1</clus>
<clus scale="  173.798">  1  5  2 -1</clus>
<clus scale="  176.717">  2  5  1 -1</clus>
</clustering>
</event>
<event>
 9    1  0.6106093E-005  0.5686622E+03  0.7546771E-02  0.1045444E+00
          3   -1    0    0  502    0  0.00000000000E+00  0.00000000000E+00  0.17294341765E+04  0.17294341765E+04  0.00000000000E+00 0. -1.
         -4   -1    0    0    0  501 -0.00000000000E+00 -0.00000000000E+00 -0.27974437300E+03  0.27974437300E+03  0.00000000000E+00 0.  1.
        -24    2    1    2    0    0 -0.52239619283E+03  0.28337655057E+03  0.91513446543E+03  0.10940407849E+04  0.79082851582E+02 0.  0.
         23    2    1    2    0    0  0.84293086830E+02  0.52099069495E+02  0.27501399417E+03  0.30535097211E+03  0.88243309364E+02 0.  0.
         11    1    3    3    0    0 -0.46744618141E+03  0.27022845722E+03  0.85751356090E+03  0.10133404456E+04  0.00000000000E+00 0. -1.
        -12    1    3    3    0    0 -0.54950011413E+02  0.13148093345E+02  0.57620904532E+02  0.80700339231E+02  0.00000000000E+00 0.  1.
        -13    1    4    4    0    0  0.66202590216E+02  0.71968974812E+02  0.16233766170E+03  0.18951472949E+03  0.00000000000E+00 0.  1.
         13    1    4    4    0    0  0.18090496614E+02 -0.19869905317E+02  0.11267633247E+03  0.11583624262E+03  0.00000000000E+00 0. -1.
         21    1    1    2  502  501  0.43810310600E+03 -0.33547562006E+03  0.25954134385E+03  0.60978679250E+03  0.00000000000E+00 0.  1.
<scales pt_clust_5="13000.00000" pt_clust_6="13000.00000" pt_clust_7="13000.00000" pt_clust_8="13000.00000" pt_clust_9="563.13639"></scales>
<clustering>
<clus scale="   79.083">  5  6 -1 -1</clus>
<clus scale="   88.243">  7  8 -1 -1</clus>
<clus scale="  132.690">  1  7  2 -1</clus>
<clus scale="  563.136">  2  9  1 -1</clus>
<clus scale="  132.690">  1  5  2 -1</clus>
</clustering>
</event>
<event>
 9    1  0.6106093E-005  0.1461807E+03  0.7546771E-02  0.1207239E+00
          1   -1    0    0  502    0  0.00000000000E+00  0.00000000000E+00  0.14783754309E+03  0.14783754309E+03  0.00000000000E+00 0. -1.
         -2   -1    0    0    0  501 -0.00000000000E+00 -0.00000000000E+00 -0.82834742706E+03  0.82834742706E+03  0.00000000000E+00 0.  1.
        -24    2    1    2    0    0  0.45535975893E+02  0.10076516663E+03 -0.71387011353E+03  0.72693827581E+03  0.81250070375E+02 0.  0.
         23    2    1    2    0    0 -0.73085655103E+02 -0.88095693401E+02  0.99094184062E+02  0.17685572010E+03  0.91410744661E+02 0.  0.
         11    1    3    3    0    0  0.64191993083E+02  0.66802516858E+02 -0.39484194604E+03  0.40556547016E+03  0.00000000000E+00 0. -1.
        -12    1    3    3    0    0 -0.18656017189E+02  0.33962649775E+02 -0.31902816749E+03  0.32137280564E+03  0.00000000000E+00 0.  1.
        -13    1    4    4    0    0 -0.47297451862E+02 -0.10103458813E+02  0.29166891015E+00  0.48365420533E+02  0.00000000000E+00 0.  1.
         13    1    4    4    0    0 -0.25788203241E+02 -0.77992234588E+02  0.98802515152E+02  0.12849029957E+03  0.00000000000E+00 0. -1.
         21    1    1    2  502  501  0.27549679210E+02 -0.12669473232E+02 -0.65733954502E+02  0.72390974237E+02  0.00000000000E+00 0.  1.
<scales pt_clust_5="13000.00000" pt_clust_6="13000.00000" pt_clust_7="13000.00000" pt_clust_8="13000.00000" pt_clust_9="30.32326"></scales>
<clustering>
<clus scale="   30.323">  2  9  1 -1</clus>
<clus scale="   81.250">  5  6 -1 -1</clus>
<clus scale="   91.411">  7  8 -1 -1</clus>
<clus scale="  140.052">  2  5  1 -1</clus>
<clus scale="  146.181">  1  5  2 -1</clus>
</clustering>
</event>
<event>
 9    1  0.6106093E-005  0.1313778E+03  0.7546771E-02  0.1228394E+00
          1   -1    0    0  502    0  0.00000000000E+00  0.00000000000E+00  0.37746689509E+03  0.37746689509E+03  0.00000000000E+00 0. -1.
         -2   -1    0    0    0  501 -0.00000000000E+00 -0.00000000000E+00 -0.11686602042E+03  0.11686602042E+03  0.00000000000E+00 0.  1.
        -24    2    1    2    0    0 -0.64518463195E+02 -0.10894117694E+03 -0.11996750768E+02  0.15019874780E+03  0.79905755009E+02 0.  0.
         23    2    1    2    0    0  0.17089918397E+02  0.87700146393E+02  0.26131543145E+03  0.29095582492E+03  0.91575959486E+02 0.  0.
         11    1    3    3    0    0 -0.34122295097E+02 -0.14839689447E+01  0.11578700962E+02  0.36063825400E+02  0.00000000000E+00 0. -1.
        -12    1    3    3    0    0 -0.30396168098E+02 -0.10745720800E+03 -0.23575451730E+02  0.11413492240E+03  0.00000000000E+00 0.  1.
        -11    1    4    4    0    0  0.47527229773E+02  0.21544267809E+02  0.14066218769E+03  0.15002947740E+03  0.00000000000E+00 0. -1.
         11    1    4    4    0    0 -0.30437311376E+02  0.66155878584E+02  0.12065324376E+03  0.14092634752E+03  0.00000000000E+00 0.  1.
         21    1    1    2  502  501  0.47428544799E+02  0.21241030551E+02  0.11282193994E+02  0.53178342790E+02  0.00000000000E+00 0. -1.
<scales pt_clust_5="13000.00000" pt_clust_6="13000.00000" pt_clust_7="13000.00000" pt_clust_8="13000.00000" pt_clust_9="51.96776"></scales>
<clustering>
<clus scale="   51.968">  2  9  1 -1</clus>
<clus scale="   79.906">  5  6 -1 -1</clus>
<clus scale="   91.576">  7  8 -1 -1</clus>
<clus scale="  123.527">  2  5  1 -1</clus>
<clus scale="  131.378">  1  5  2 -1</clus>
</clustering>
</event>
<event>
 9    1  0.6106093E-005  0.1346257E+03  0.7546771E-02  0.1238220E+00
         -2   -1    0    0    0  501 -0.00000000000E+00  0.00000000000E+00  0.45814756842E+03  0.45814756842E+03  0.00000000000E+00 0.  1.
          1   -1    0    0  502    0  0.00000000000E+00 -0.00000000000E+00 -0.63920997282E+02  0.63920997282E+02  0.00000000000E+00 0. -1.
         23    2    1    2    0    0 -0.72337462988E+01 -0.14020503056E+02  0.14611798266E+03  0.17364712936E+03  0.92487615859E+02 0.  0.
        -24    2    1    2    0    0  0.44634569460E+02  0.10932881137E+03  0.14686194352E+03  0.20443053968E+03  0.79236237370E+02 0.  0.
         11    1    4    4    0    0 -0.21933052518E+02  0.41131189690E+02  0.54526062823E+02  0.71735103576E+02  0.00000000000E+00 0. -1.
        -12    1    4    4    0    0  0.66567621977E+02  0.68197621677E+02  0.92335880700E+02  0.13269543610E+03  0.00000000000E+00 0.  1.
        -11    1    3    3    0    0  0.33663432700E+02  0.10299404858E+02  0.10505499555E+03  0.11079646444E+03  0.00000000000E+00 0.  1.
         11    1    3    3    0    0 -0.40897178999E+02 -0.24319907914E+02  0.41062987109E+02  0.62850664924E+02  0.00000000000E+00 0. -1.
         21    1    1    2  502  501 -0.37400823161E+02 -0.95308308311E+02  0.10124664495E+03  0.14399089666E+03  0.00000000000E+00 0. -1.
<scales pt_clust_5="13000.00000" pt_clust_6="13000.00000" pt_clust_7="13000.00000" pt_clust_8="13000.00000" pt_clust_9="108.83800"></scales>
<clustering>
<clus scale="   79.236">  5  6 -1 -1</clus>
<clus scale="   92.488">  7  8 -1 -1</clus>
<clus scale="   93.824">  1  7  2 -1</clus>
<clus scale="  108.838">  2  9  1 -1</clus>
<clus scale="  108.838">  2  5  1 -1</clus>
</clustering>
</event>
<event>
 9    1  0.6106093E-005  0.1003056E+03  0.7546771E-02  0.1283406E+00
         -2   -1    0    0    0  501 -0.00000000000E+00  0.00000000000E+00  0.53199416473E+03  0.53199416473E+03  0.00000000000E+00 0.  1.
          1   -1    0    0  502    0  0.00000000000E+00 -0.00000000000E+00 -0.53201220718E+02  0.53201220718E+02  0.00000000000E+00 0. -1.
        -24    2    1    2    0    0 -0.52505089438E+01  0.65454613295E+01  0.24097040731E+03  0.25408168914E+03  0.80127128048E+02 0.  0.
         23    2    1    2    0    0  0.80891191425E+01 -0.58006561769E+02  0.20461752591E+02  0.10772611152E+03  0.88068363944E+02 0.  0.
         11    1    3    3    0    0 -0.35518527086E+02  0.11065136984E+02  0.19716992354E+03  0.20064890175E+03  0.00000000000E+00 0. -1.
        -12    1    3    3    0    0  0.30268018142E+02 -0.45196756545E+01  0.43800483765E+02  0.53432787391E+02  0.00000000000E+00 0.  1.
        -11    1    4    4    0    0  0.26328269038E+02 -0.73836583685E+02  0.26647913071E+02  0.82795713125E+02  0.00000000000E+00 0.  1.
         11    1    4    4    0    0 -0.18239149896E+02  0.15830021916E+02 -0.61861604794E+01  0.24930398397E+02  0.00000000000E+00 0. -1.
         21    1    1    2  502  501 -0.28386101987E+01  0.51461100440E+02  0.21736078412E+03  0.22338758479E+03  0.00000000000E+00 0.  1.
<scales pt_clust_5="13000.00000" pt_clust_6="13000.00000" pt_clust_7="13000.00000" pt_clust_8="13000.00000" pt_clust_9="51.53933"></scales>
<clustering>
<clus scale="   51.539">  1  9  2 -1</clus>
<clus scale="   80.127">  5  6 -1 -1</clus>
<clus scale="   88.068">  7  8 -1 -1</clus>
<clus scale="   93.411">  1  5  2 -1</clus>
<clus scale="  100.306">  2  5  1 -1</clus>
</clustering>
</event>
<event>
 9    1  0.6106093E-005  0.1239030E+03  0.7546771E-02  0.1240244E+00
         -2   -1    0    0    0  501 -0.00000000000E+00  0.00000000000E+00  0.89748504093E+02  0.89748504093E+02  0.00000000000E+00 0.  1.
          1   -1    0    0  502    0  0.00000000000E+00 -0.00000000000E+00 -0.57852802949E+03  0.57852802949E+03  0.00000000000E+00 0. -1.
         23    2    1    2    0    0 -0.10230882474E+02 -0.48203963245E+02  0.22088221766E+02  0.10561576525E+03  0.90766223337E+02 0.  0.
        -24    2    1    2    0    0 -0.58131429080E+02  0.69715958519E+02 -0.45819911977E+03  0.47372171115E+03  0.78906579814E+02 0.  0.
         13    1    4    4    0    0 -0.76207744381E+02  0.47803007278E+02 -0.30838725354E+03  0.32124047994E+03  0.00000000000E+00 0. -1.
        -14    1    4    4    0    0  0.18076315301E+02  0.21912951240E+02 -0.14981186623E+03  0.15248123120E+03  0.00000000000E+00 0.  1.
        -13    1    3    3    0    0  0.26210133821E+02 -0.57968722617E+02  0.23609900355E+02  0.67858465290E+02  0.00000000000E+00 0.  1.
         13    1    3    3    0    0 -0.36441016295E+02  0.97647593720E+01 -0.15216785892E+01  0.37757299955E+02  0.00000000000E+00 0. -1.
         21    1    1    2  502  501  0.68362311554E+02 -0.21511995274E+02 -0.52668627391E+02  0.88939057184E+02  0.00000000000E+00 0.  1.
<scales pt_clust_5="13000.00000" pt_clust_6="13000.00000" pt_clust_7="13000.00000" pt_clust_8="13000.00000" pt_clust_9="71.66709"></scales>
<clustering>
<clus scale="   71.667">  1  9  2 -1</clus>
<clus scale="   78.907">  5  6 -1 -1</clus>
<clus scale="   90.766">  7  8 -1 -1</clus>
<clus scale="  115.498">  2  5  1 -1</clus>
<clus scale="  115.498">  2  5  1 -1</clus>
</clustering>
</event>
<event>
 9    1  0.6106093E-005  0.9476572E+02  0.7546771E-02  0.1294986E+00
          1   -1    0    0  502    0  0.00000000000E+00  0.00000000000E+00  0.78531000274E+02  0.78531000274E+02  0.00000000000E+00 0. -1.
         -2   -1    0    0    0  501 -0.00000000000E+00 -0.00000000000E+00 -0.17871203358E+03  0.17871203358E+03  0.00000000000E+00 0.  1.
        -24    2    1    2    0    0 -0.35721072184E+02 -0.11969626401E+01 -0.10148151852E+03  0.13423642874E+03  0.80271367765E+02 0.  0.
         23    2    1    2    0    0  0.48231368293E+02 -0.16717256189E+02  0.62321132031E+01  0.10060687967E+03  0.86470650863E+02 0.  0.
         11    1    3    3    0    0 -0.30191464413E+02  0.22999323970E+02 -0.97217929618E+01  0.39179161360E+02  0.00000000000E+00 0. -1.
        -12    1    3    3    0    0 -0.55296077709E+01 -0.24196286610E+02 -0.91759725557E+02  0.95057267382E+02  0.00000000000E+00 0.  1.
        -11    1    4    4    0    0  0.57771803161E+02  0.17430271907E+02 -0.10750720435E+02  0.61294156403E+02  0.00000000000E+00 0. -1.
         11    1    4    4    0    0 -0.95404348686E+01 -0.34147528095E+02  0.16982833638E+02  0.39312723270E+02  0.00000000000E+00 0.  1.
         21    1    1    2  502  501 -0.12510296109E+02  0.17914218829E+02 -0.49316279867E+01  0.22399725435E+02  0.00000000000E+00 0.  1.
<scales pt_clust_5="13000.00000" pt_clust_6="13000.00000" pt_clust_7="13000.00000" pt_clust_8="13000.00000" pt_clust_9="21.85010"></scales>
<clustering>
<clus scale="   21.850">  1  9  2 -1</clus>
<clus scale="   80.271">  5  6 -1 -1</clus>
<clus scale="   86.471">  7  8 -1 -1</clus>
<clus scale="   89.145">  2  5  1 -1</clus>
<clus scale="   21.850">  1  5  2 -1</clus>
</clustering>
</event>
<event>
 9    1  0.6106093E-005  0.9704933E+02  0.7546771E-02  0.1291822E+00
         -2   -1    0    0    0  501 -0.00000000000E+00  0.00000000000E+00  0.59190076269E+02  0.59190076269E+02  0.00000000000E+00 0.  1.
          1   -1    0    0  502    0  0.00000000000E+00 -0.00000000000E+00 -0.65066514355E+03  0.65066514355E+03  0.00000000000E+00 0. -1.
        -24    2    1    2    0    0 -0.19146858971E+02 -0.30882281665E+02  0.56756153777E+01  0.88467821777E+02  0.80461328293E+02 0.  0.
         23    2    1    2    0    0 -0.37415486151E+02  0.52905814073E+02 -0.37789381504E+03  0.39388375222E+03  0.90231541323E+02 0.  0.
         11    1    3    3    0    0 -0.26185854738E+02 -0.41671946758E+02  0.32314900297E+02  0.58877015177E+02  0.00000000000E+00 0. -1.
        -12    1    3    3    0    0  0.70389957666E+01  0.10789665093E+02 -0.26639284919E+02  0.29590806600E+02  0.00000000000E+00 0.  1.
        -13    1    4    4    0    0  0.17679791038E+02  0.16984403479E+02 -0.25381951527E+02  0.35288644576E+02  0.00000000000E+00 0.  1.
         13    1    4    4    0    0 -0.55095277189E+02  0.35921410594E+02 -0.35251186351E+03  0.35859510764E+03  0.00000000000E+00 0. -1.
         21    1    1    2  502  501  0.56562345122E+02 -0.22023532408E+02 -0.21925686762E+03  0.22750364582E+03  0.00000000000E+00 0. -1.
<scales pt_clust_5="13000.00000" pt_clust_6="13000.00000" pt_clust_7="13000.00000" pt_clust_8="13000.00000" pt_clust_9="60.69872"></scales>
<clustering>
<clus scale="   60.699">  2  9  1 -1</clus>
<clus scale="   80.461">  5  6 -1 -1</clus>
<clus scale="   88.039">  1  5  2 -1</clus>
<clus scale="   90.232">  7  8 -1 -1</clus>
<clus scale="   60.699">  2  5  1 -1</clus>
</clustering>
</event>
<event>
 9    1  0.6106093E-005  0.1685263E+03  0.7546771E-02  0.1186161E+00
          1   -1    0    0  502    0  0.00000000000E+00  0.00000000000E+00  0.77081596866E+03  0.77081596866E+03  0.00000000000E+00 0. -1.
         -2   -1    0    0    0  501 -0.00000000000E+00 -0.00000000000E+00 -0.12799558717E+03  0.12799558717E+03  0.00000000000E+00 0.  1.
         23    2    1    2    0    0  0.12154231349E+03 -0.72256194056E+02  0.88323369150E+01  0.16944974102E+03  0.92960814375E+02 0.  0.
        -24    2    1    2    0    0  0.46586524237E+02  0.11669985150E+03  0.46436738862E+03  0.48643443535E+03  0.72057121093E+02 0.  0.
         13    1    4    4    0    0 -0.11030554625E+02  0.68465719092E+02  0.24002857785E+03  0.24984584450E+03  0.00000000000E+00 0. -1.
        -14    1    4    4    0    0  0.57617078862E+02  0.48234132405E+02  0.22433881077E+03  0.23658859085E+03  0.00000000000E+00 0.  1.
        -11    1    3    3    0    0  0.52572937966E+02  0.16271769737E+02  0.15051578115E+02  0.57054660638E+02  0.00000000000E+00 0. -1.
         11    1    3    3    0    0  0.68969375525E+02 -0.88527963793E+02 -0.62192412003E+01  0.11239508039E+03  0.00000000000E+00 0.  1.
         21    1    1    2  502  501 -0.16812883773E+03 -0.44443657441E+02  0.16962065596E+03  0.24292737946E+03  0.00000000000E+00 0.  1.
<scales pt_clust_5="13000.00000" pt_clust_6="13000.00000" pt_clust_7="13000.00000" pt_clust_8="13000.00000" pt_clust_9="140.56817"></scales>
<clustering>
<clus scale="   72.057">  5  6 -1 -1</clus>
<clus scale="   92.961">  7  8 -1 -1</clus>
<clus scale="  144.850">  1  5  2 -1</clus>
<clus scale="  140.568">  1  9  2 -1</clus>
<clus scale="  144.850">  1  5  2 -1</clus>
</clustering>
</event>
<event>
 9    1  0.6106093E-005  0.1002993E+03  0.7546771E-02  0.1279830E+00
         -2   -1    0    0    0  501 -0.00000000000E+00  0.00000000000E+00  0.33256285233E+03  0.33256285233E+03  0.00000000000E+00 0.  1.
          1   -1    0    0  502    0  0.00000000000E+00 -0.00000000000E+00 -0.11748445266E+03  0.11748445266E+03  0.00000000000E+00 0. -1.
         23    2    1    2    0    0  0.21737212061E+02 -0.79345915107E+01  0.20858522719E+03  0.23208293612E+03  0.99092018363E+02 0.  0.
        -24    2    1    2    0    0  0.71148373678E+02  0.44951469045E+02  0.17153732385E+02  0.11740777388E+03  0.80047543281E+02 0.  0.
         13    1    4    4    0    0 -0.16327322552E+02  0.17469796001E+02  0.82083016017E+01  0.25281444761E+02  0.00000000000E+00 0. -1.
        -14    1    4    4    0    0  0.87475696230E+02  0.27481673045E+02  0.89454307834E+01  0.92126329115E+02  0.00000000000E+00 0.  1.
        -11    1    3    3    0    0 -0.33971596020E+02 -0.10206278353E+02  0.35277246668E+02  0.50027208461E+02  0.00000000000E+00 0. -1.
         11    1    3    3    0    0  0.55708808081E+02  0.22716868418E+01  0.17330798052E+03  0.18205572765E+03  0.00000000000E+00 0.  1.
         21    1    1    2  502  501 -0.92885585739E+02 -0.37016877535E+02 -0.10660559913E+02  0.10055659500E+03  0.00000000000E+00 0. -1.
<scales pt_clust_5="13000.00000" pt_clust_6="13000.00000" pt_clust_7="13000.00000" pt_clust_8="13000.00000" pt_clust_9="99.98991"></scales>
<clustering>
<clus scale="   80.048">  5  6 -1 -1</clus>
<clus scale="   99.092">  7  8 -1 -1</clus>
<clus scale="   99.990">  2  9  1 -1</clus>
<clus scale="   99.990">  2  5  1 -1</clus>
<clus scale="   99.990">  2  5  1 -1</clus>
</clustering>
</event>
<event>
 9    1  0.6106093E-005  0.9455986E+02  0.7546771E-02  0.1298386E+00
          1   -1    0    0  502    0  0.00000000000E+00  0.00000000000E+00  0.41422641004E+03  0.41422641004E+03  0.00000000000E+00 0. -1.
         -2   -1    0    0    0  501 -0.00000000000E+00 -0.00000000000E+00 -0.72968114629E+02  0.72968114629E+02  0.00000000000E+00 0.  1.
         23    2    1    2    0    0 -0.29742696386E+02 -0.64865793640E+02  0.24190832801E+02  0.11777843404E+03  0.90522726205E+02 0.  0.
        -24    2    1    2    0    0 -0.39402787223E+01  0.22848390689E+02  0.30242813068E+03  0.31361004256E+03  0.79692595713E+02 0.  0.
         13    1    4    4    0    0 -0.35110700539E+01  0.52747096275E+02  0.18169107461E+03  0.18922534284E+03  0.00000000000E+00 0. -1.
        -14    1    4    4    0    0 -0.42920866839E+00 -0.29898705587E+02  0.12073705607E+03  0.12438469972E+03  0.00000000000E+00 0.  1.
        -11    1    3    3    0    0 -0.46337368061E+02 -0.79950674077E+02  0.15359248254E+02  0.93675869204E+02  0.00000000000E+00 0.  1.
         11    1    3    3    0    0  0.16594671676E+02  0.15084880438E+02  0.88315845461E+01  0.24102564831E+02  0.00000000000E+00 0. -1.
         21    1    1    2  502  501  0.33682975108E+02  0.42017402951E+02  0.14639331931E+02  0.55806048079E+02  0.00000000000E+00 0.  1.
<scales pt_clust_5="13000.00000" pt_clust_6="13000.00000" pt_clust_7="13000.00000" pt_clust_8="13000.00000" pt_clust_9="53.85169"></scales>
<clustering>
<clus scale="   53.852">  2  9  1 -1</clus>
<clus scale="   79.693">  5  6 -1 -1</clus>
<clus scale="   84.250">  1  5  2 -1</clus>
<clus scale="   90.523">  7  8 -1 -1</clus>
<clus scale="   84.250">  1  5  2 -1</clus>
</clustering>
</event>
<event>
 9    1  0.6106093E-005  0.9990690E+02  0.7546771E-02  0.1288128E+00
         -2   -1    0    0    0  501 -0.00000000000E+00  0.00000000000E+00  0.23255716394E+03  0.23255716394E+03  0.00000000000E+00 0.  1.
          1   -1    0    0  502    0  0.00000000000E+00 -0.00000000000E+00 -0.90241032614E+02  0.90241032614E+02  0.00000000000E+00 0. -1.
        -24    2    1    2    0    0 -0.57214743713E+02 -0.20575382952E+02  0.42120489191E+02  0.11010586002E+03  0.81561581154E+02 0.  0.
         23    2    1    2    0    0  0.10860188087E+02 -0.80429356931E+01 -0.22569419137E+01  0.96656630957E+02  0.95680604206E+02 0.  0.
         11    1    3    3    0    0 -0.45233627703E+02  0.26967544685E+02  0.20287133315E+02  0.56434894522E+02  0.00000000000E+00 0. -1.
        -12    1    3    3    0    0 -0.11981116009E+02 -0.47542927637E+02  0.21833355875E+02  0.53670965502E+02  0.00000000000E+00 0.  1.
        -13    1    4    4    0    0 -0.41272046075E+02 -0.13444214100E+02  0.52023213769E+01  0.43717191443E+02  0.00000000000E+00 0. -1.
         13    1    4    4    0    0  0.52132234162E+02  0.54012784073E+01 -0.74592632906E+01  0.52939439514E+02  0.00000000000E+00 0.  1.
         21    1    1    2  502  501  0.46354555625E+02  0.28618318645E+02  0.10245258404E+03  0.11603570557E+03  0.00000000000E+00 0.  1.
<scales pt_clust_5="13000.00000" pt_clust_6="13000.00000" pt_clust_7="13000.00000" pt_clust_8="13000.00000" pt_clust_9="54.47709"></scales>
<clustering>
<clus scale="   54.477">  1  9  2 -1</clus>
<clus scale="   81.562">  5  6 -1 -1</clus>
<clus scale="   86.481">  1  5  2 -1</clus>
<clus scale="   95.681">  7  8 -1 -1</clus>
<clus scale="   99.907">  2  5  1 -1</clus>
</clustering>
</event>
<event>
 9    1  0.6106093E-005  0.1444662E+03  0.7546771E-02  0.1225118E+00
         -2   -1    0    0    0  501 -0.00000000000E+00  0.00000000000E+00  0.57607017311E+02  0.57607017311E+02  0.00000000000E+00 0.  1.
          1   -1    0    0  502    0  0.00000000000E+00 -0.00000000000E+00 -0.12929778465E+04  0.12929778465E+04  0.00000000000E+00 0. -1.
         23    2    1    2    0    0  0.31535224216E+02  0.23873883739E+02 -0.16883018112E+02  0.10086385720E+03  0.91236224701E+02 0.  0.
        -24    2    1    2    0    0  0.10230906953E+02  0.99091674174E+02 -0.37673994997E+03  0.39801424966E+03  0.80984700320E+02 0.  0.
         13    1    4    4    0    0 -0.31155181483E+02  0.72856942725E+02 -0.24184963359E+03  0.25449955737E+03  0.00000000000E+00 0. -1.
        -14    1    4    4    0    0  0.41386088436E+02  0.26234731449E+02 -0.13489031638E+03  0.14351469229E+03  0.00000000000E+00 0.  1.
        -13    1    3    3    0    0  0.60057580044E+02  0.21599143126E+02  0.61680337163E+01  0.64120827696E+02  0.00000000000E+00 0.  1.
         13    1    3    3    0    0 -0.28522355828E+02  0.22747406133E+01 -0.23051051828E+02  0.36743029505E+02  0.00000000000E+00 0. -1.
         21    1    1    2  502  501 -0.41766131168E+02 -0.12296555791E+03 -0.84174786113E+03  0.85170675697E+03  0.00000000000E+00 0. -1.
<scales pt_clust_5="13000.00000" pt_clust_6="13000.00000" pt_clust_7="13000.00000" pt_clust_8="13000.00000" pt_clust_9="119.63256"></scales>
<clustering>
<clus scale="   80.985">  5  6 -1 -1</clus>
<clus scale="   91.236">  7  8 -1 -1</clus>
<clus scale="   99.441">  1  7  2 -1</clus>
<clus scale="  119.633">  2  9  1 -1</clus>
<clus scale="  119.633">  2  5  1 -1</clus>
</clustering>
</event>
<event>
 9    1  0.6106093E-005  0.9110525E+02  0.7546771E-02  0.1308183E+00
          3   -1    0    0  502    0  0.00000000000E+00  0.00000000000E+00  0.30187227604E+03  0.30187227604E+03  0.00000000000E+00 0. -1.
         -4   -1    0    0    0  501 -0.00000000000E+00 -0.00000000000E+00 -0.15187641393E+03  0.15187641393E+03  0.00000000000E+00 0.  1.
        -24    2    1    2    0    0  0.36898093368E+01 -0.31287674005E+01 -0.12257673613E+03  0.14569592029E+03  0.78605604565E+02 0.  0.
         23    2    1    2    0    0  0.24726801439E+02  0.36107529368E+01  0.26068619880E+03  0.27724655976E+03  0.91015978852E+02 0.  0.
         13    1    3    3    0    0 -0.29154053261E+02 -0.25215482459E+02 -0.69677825792E+02  0.79629007179E+02  0.00000000000E+00 0. -1.
        -14    1    3    3    0    0  0.32843862598E+02  0.22086715059E+02 -0.52898910341E+02  0.66066913109E+02  0.00000000000E+00 0.  1.
        -11    1    4    4    0    0 -0.30566772702E+02 -0.16029751781E+02  0.11861595849E+03  0.12353552584E+03  0.00000000000E+00 0. -1.
         11    1    4    4    0    0  0.55293574141E+02  0.19640504718E+02  0.14207024031E+03  0.15371103392E+03  0.00000000000E+00 0.  1.
         21    1    1    2  502  501 -0.28416610776E+02 -0.48198553632E+00  0.11886399437E+02  0.30806209920E+02  0.00000000000E+00 0. -1.
<scales pt_clust_5="13000.00000" pt_clust_6="13000.00000" pt_clust_7="13000.00000" pt_clust_8="13000.00000" pt_clust_9="28.42070"></scales>
<clustering>
<clus scale="   28.421">  1  9  2 -1</clus>
<clus scale="   78.606">  5  6 -1 -1</clus>
<clus scale="   78.709">  2  5  1 -1</clus>
<clus scale="   91.016">  7  8 -1 -1</clus>
<clus scale="   28.421">  1  5  2 -1</clus>
</clustering>
</event>
<event>
 9    1  0.6106093E-005  0.1136036E+03  0.7546771E-02  0.1258134E+00
         -2   -1    0    0    0  501 -0.00000000000E+00  0.00000000000E+00  0.66086068606E+03  0.66086068606E+03  0.00000000000E+00 0.  1.
          1   -1    0    0  502    0  0.00000000000E+00 -0.00000000000E+00 -0.25180417393E+03  0.25180417393E+03  0.00000000000E+00 0. -1.
        -24    2    1    2    0    0 -0.65860615832E+02  0.31721742670E+01  0.44918061607E+03  0.46092215726E+03  0.79613603076E+02 0.  0.
         23    2    1    2    0    0  0.50808018184E+02  0.46265377349E+02 -0.22906905240E+03  0.25585792599E+03  0.90932434636E+02 0.  0.
         11    1    3    3    0    0 -0.55451591666E+02  0.37070120431E+02  0.32520741991E+03  0.33197731671E+03  0.00000000000E+00 0. -1.
        -12    1    3    3    0    0 -0.10409024166E+02 -0.33897946164E+02  0.12397319616E+03  0.12894484055E+03  0.00000000000E+00 0.  1.
        -13    1    4    4    0    0 -0.25011450396E+02  0.12512333125E+02 -0.86307453396E+02  0.90725452012E+02  0.00000000000E+00 0.  1.
         13    1    4    4    0    0  0.75819468580E+02  0.33753044223E+02 -0.14276159901E+03  0.16513247398E+03  0.00000000000E+00 0. -1.
         21    1    1    2  502  501  0.15052597647E+02 -0.49437551616E+02  0.18894494847E+03  0.19588477674E+03  0.00000000000E+00 0.  1.
<scales pt_clust_5="13000.00000" pt_clust_6="13000.00000" pt_clust_7="13000.00000" pt_clust_8="13000.00000" pt_clust_9="51.67835"></scales>
<clustering>
<clus scale="   51.678">  1  9  2 -1</clus>
<clus scale="   79.614">  5  6 -1 -1</clus>
<clus scale="   90.932">  7  8 -1 -1</clus>
<clus scale="  104.763">  1  5  2 -1</clus>
<clus scale="  113.604">  2  5  1 -1</clus>
</clustering>
</event>
<event>
 9    1  0.6106093E-005  0.1134537E+03  0.7546771E-02  0.1257679E+00
          1   -1    0    0  502    0  0.00000000000E+00  0.00000000000E+00  0.37452104865E+03  0.37452104865E+03  0.00000000000E+00 0. -1.
         -2   -1    0    0    0  501 -0.00000000000E+00 -0.00000000000E+00 -0.12693936919E+03  0.12693936919E+03  0.00000000000E+00 0.  1.
        -24    2    1    2    0    0 -0.34104274004E+02  0.65279827574E+02 -0.65495082686E+02  0.12576658745E+03  0.78122156064E+02 0.  0.
         23    2    1    2    0    0  0.12998360061E+02 -0.70763202698E+02  0.32942585882E+03  0.34843910661E+03  0.87818143550E+02 0.  0.
         11    1    3    3    0    0 -0.45862497365E+02  0.25473003416E+02 -0.54116922809E+01  0.52740202701E+02  0.00000000000E+00 0. -1.
        -12    1    3    3    0    0  0.11758223361E+02  0.39806824158E+02 -0.60083390406E+02  0.73026384744E+02  0.00000000000E+00 0.  1.
        -11    1    4    4    0    0  0.42394109252E+02 -0.66594013619E+02  0.27868374943E+03  0.28964919359E+03  0.00000000000E+00 0. -1.
         11    1    4    4    0    0 -0.29395749191E+02 -0.41691890799E+01  0.50742109389E+02  0.58789913023E+02  0.00000000000E+00 0.  1.
         21    1    1    2  502  501  0.21105913942E+02  0.54833751241E+01 -0.16349096674E+02  0.27254723777E+02  0.00000000000E+00 0. -1.
<scales pt_clust_5="13000.00000" pt_clust_6="13000.00000" pt_clust_7="13000.00000" pt_clust_8="13000.00000" pt_clust_9="21.80658"></scales>
<clustering>
<clus scale="   21.807">  2  9  1 -1</clus>
<clus scale="   78.122">  5  6 -1 -1</clus>
<clus scale="   87.818">  7  8 -1 -1</clus>
<clus scale="  106.126">  2  5  1 -1</clus>
<clus scale="  113.454">  1  5  2 -1</clus>
</clustering>
</event>
<event>
 9    1  0.6106093E-005  0.1298682E+03  0.7546771E-02  0.1231122E+00
          1   -1    0    0  502    0  0.00000000000E+00  0.00000000000E+00  0.27469065238E+03  0.27469065238E+03  0.00000000000E+00 0. -1.
         -2   -1    0    0    0  501 -0.00000000000E+00 -0.00000000000E+00 -0.89378674180E+02  0.89378674180E+02  0.00000000000E+00 0.  1.
        -24    2    1    2    0    0  0.79187493158E+02  0.25090739297E+02  0.85618687762E+02  0.14371761747E+03  0.80149794806E+02 0.  0.
         23    2    1    2    0    0 -0.97898692765E+02 -0.12841015617E+02  0.12642374011E+03  0.18549942566E+03  0.93155939838E+02 0.  0.
         11    1    3    3    0    0  0.46401485201E+02  0.23073140935E+02  0.96147300897E+02  0.10922349166E+03  0.00000000000E+00 0. -1.
        -12    1    3    3    0    0  0.32786007958E+02  0.20175983622E+01 -0.10528613135E+02  0.34494125811E+02  0.00000000000E+00 0.  1.
        -11    1    4    4    0    0 -0.44539887384E+02  0.35043228114E+02  0.26619005922E+02  0.62613104707E+02  0.00000000000E+00 0. -1.
         11    1    4    4    0    0 -0.53358805381E+02 -0.47884243730E+02  0.99804734190E+02  0.12288632095E+03  0.00000000000E+00 0.  1.
         21    1    1    2  502  501  0.18711199607E+02 -0.12249723681E+02 -0.26730449670E+02  0.34852283434E+02  0.00000000000E+00 0.  1.
<scales pt_clust_5="13000.00000" pt_clust_6="13000.00000" pt_clust_7="13000.00000" pt_clust_8="13000.00000" pt_clust_9="22.36436"></scales>
<clustering>
<clus scale="   22.364">  2  9  1 -1</clus>
<clus scale="   80.150">  5  6 -1 -1</clus>
<clus scale="   93.156">  7  8 -1 -1</clus>
<clus scale="  120.879">  2  5  1 -1</clus>
<clus scale="  129.868">  1  5  2 -1</clus>
</clustering>
</event>
<event>
 9    1  0.6106093E-005  0.1001782E+03  0.7546771E-02  0.1286370E+00
         -2   -1    0    0    0  501 -0.00000000000E+00  0.00000000000E+00  0.27523476105E+03  0.27523476105E+03  0.00000000000E+00 0.  1.
          1   -1    0    0  502    0  0.00000000000E+00 -0.00000000000E+00 -0.11697861785E+03  0.11697861785E+03  0.00000000000E+00 0. -1.
        -24    2    1    2    0    0 -0.72245162385E+01  0.23512970008E+02  0.12185241314E+03  0.14811880366E+03  0.80536426643E+02 0.  0.
         23    2    1    2    0    0 -0.45719798938E+02 -0.18204192018E+01 -0.68722486018E+02  0.12440669542E+03  0.93062515764E+02 0.  0.
         13    1    3    3    0    0 -0.32274000436E+02 -0.31806283456E+01  0.16093902053E+02  0.36204159762E+02  0.00000000000E+00 0. -1.
        -14    1    3    3    0    0  0.25049484197E+02  0.26693598354E+02  0.10575851109E+03  0.11191464390E+03  0.00000000000E+00 0.  1.
        -11    1    4    4    0    0 -0.57837630217E+02 -0.26132633987E+02 -0.16556091921E+02  0.65591235755E+02  0.00000000000E+00 0.  1.
         11    1    4    4    0    0  0.12117831280E+02  0.24312214785E+02 -0.52166394097E+02  0.58815459666E+02  0.00000000000E+00 0. -1.
         21    1    1    2  502  501  0.52944315176E+02 -0.21692550807E+02  0.10512621608E+03  0.11968787982E+03  0.00000000000E+00 0.  1.
<scales pt_clust_5="13000.00000" pt_clust_6="13000.00000" pt_clust_7="13000.00000" pt_clust_8="13000.00000" pt_clust_9="57.21597"></scales>
<clustering>
<clus scale="   57.216">  1  9  2 -1</clus>
<clus scale="   80.536">  5  6 -1 -1</clus>
<clus scale="   88.663">  1  5  2 -1</clus>
<clus scale="   93.063">  7  8 -1 -1</clus>
<clus scale="  100.178">  2  5  1 -1</clus>
</clustering>
</event>
<event>
 9    1  0.6106093E-005  0.1160482E+03  0.7546771E-02  0.1253564E+00
          1   -1    0    0  502    0  0.00000000000E+00  0.00000000000E+00  0.11159853778E+03  0.11159853778E+03  0.00000000000E+00 0. -1.
         -2   -1    0    0    0  501 -0.00000000000E+00 -0.00000000000E+00 -0.26504112155E+03  0.26504112155E+03  0.00000000000E+00 0.  1.
        -24    2    1    2    0    0  0.42982546439E+02  0.13606453663E+02 -0.41792983994E+02  0.10116956932E+03  0.80349196423E+02 0.  0.
         23    2    1    2    0    0 -0.88382419515E+02 -0.23129766178E+02  0.24606969753E+02  0.13153366412E+03  0.91373758119E+02 0.  0.
         11    1    3    3    0    0 -0.13375265815E+02  0.20002395518E+02 -0.37147844456E+02  0.44260093874E+02  0.00000000000E+00 0. -1.
        -12    1    3    3    0    0  0.56357812254E+02 -0.63959418544E+01 -0.46451395383E+01  0.56909475447E+02  0.00000000000E+00 0.  1.
        -13    1    4    4    0    0 -0.21853930399E+00 -0.38750457837E+02  0.28541150085E+00  0.38752125125E+02  0.00000000000E+00 0.  1.
         13    1    4    4    0    0 -0.88163880211E+02  0.15620691659E+02  0.24321558252E+02  0.92781538992E+02  0.00000000000E+00 0. -1.
         21    1    1    2  502  501  0.45399873076E+02  0.95233125150E+01 -0.13625656954E+03  0.14393642589E+03  0.00000000000E+00 0.  1.
<scales pt_clust_5="13000.00000" pt_clust_6="13000.00000" pt_clust_7="13000.00000" pt_clust_8="13000.00000" pt_clust_9="46.38795"></scales>
<clustering>
<clus scale="   46.388">  2  9  1 -1</clus>
<clus scale="   80.349">  5  6 -1 -1</clus>
<clus scale="   91.374">  7  8 -1 -1</clus>
<clus scale="  107.583">  2  5  1 -1</clus>
<clus scale="  116.048">  1  5  2 -1</clus>
</clustering>
</event>
<event>
 9    1  0.6106093E-005  0.9283633E+02  0.7546771E-02  0.1300411E+00
         -2   -1    0    0    0  501 -0.00000000000E+00  0.00000000000E+00  0.99074525262E+02  0.99074525262E+02  0.00000000000E+00 0.  1.
          1   -1    0    0  502    0  0.00000000000E+00 -0.00000000000E+00 -0.44902311894E+03  0.44902311894E+03  0.00000000000E+00 0. -1.
        -24    2    1    2    0    0 -0.70611078619E+01  0.89373358780E+01  0.42397013273E+02  0.94435774250E+02  0.83611443636E+02 0.  0.
         23    2    1    2    0    0 -0.18545698561E+02 -0.92234857222E+01 -0.41134998999E+03  0.42177210685E+03  0.90850868057E+02 0.  0.
         13    1    3    3    0    0  0.22857144950E+02  0.13915060651E-01 -0.16216819361E+02  0.28025604348E+02  0.00000000000E+00 0. -1.
        -14    1    3    3    0    0 -0.29918252812E+02  0.89234208173E+01  0.58613832634E+02  0.66410169902E+02  0.00000000000E+00 0.  1.
        -13    1    4    4    0    0 -0.46869177050E+02  0.17261671697E+02 -0.29313171227E+03  0.29735649615E+03  0.00000000000E+00 0. -1.
         13    1    4    4    0    0  0.28323478489E+02 -0.26485157419E+02 -0.11821827772E+03  0.12441561069E+03  0.00000000000E+00 0.  1.
         21    1    1    2  502  501  0.25606806423E+02  0.28614984416E+00  0.19004383032E+02  0.31889763112E+02  0.00000000000E+00 0.  1.
<scales pt_clust_5="13000.00000" pt_clust_6="13000.00000" pt_clust_7="13000.00000" pt_clust_8="13000.00000" pt_clust_9="25.60841"></scales>
<clustering>
<clus scale="   25.608">  1  9  2 -1</clus>
<clus scale="   83.611">  5  6 -1 -1</clus>
<clus scale="   85.765">  1  5  2 -1</clus>
<clus scale="   90.851">  7  8 -1 -1</clus>
<clus scale="   92.836">  2  5  1 -1</clus>
</clustering>
</event>
<event>
 9    1  0.6106093E-005  0.1137600E+03  0.7546771E-02  0.1259182E+00
          1   -1    0    0  502    0  0.00000000000E+00  0.00000000000E+00  0.21106847941E+03  0.21106847941E+03  0.00000000000E+00 0. -1.
         -2   -1    0    0    0  501 -0.00000000000E+00 -0.00000000000E+00 -0.11373727984E+03  0.11373727984E+03  0.00000000000E+00 0.  1.
        -24    2    1    2    0    0 -0.30686972898E+02 -0.61320991904E+02 -0.48189588072E+02  0.11500725684E+03  0.78755814850E+02 0.  0.
         23    2    1    2    0    0  0.53626280764E+02  0.29095738400E+02  0.10369101075E+03  0.15222759793E+03  0.93268836597E+02 0.  0.
         11    1    3    3    0    0 -0.31103635230E+02 -0.70554895420E+02 -0.12466744398E+02  0.78107932428E+02  0.00000000000E+00 0. -1.
        -12    1    3    3    0    0  0.41666233276E+00  0.92339035158E+01 -0.35722843674E+02  0.36899324408E+02  0.00000000000E+00 0.  1.
        -11    1    4    4    0    0 -0.19803177468E+01  0.48865680995E+02  0.28367229728E+02  0.56537387275E+02  0.00000000000E+00 0.  1.
         11    1    4    4    0    0  0.55606598511E+02 -0.19769942595E+02  0.75323781022E+02  0.95690210657E+02  0.00000000000E+00 0. -1.
         21    1    1    2  502  501 -0.22939307866E+02  0.32225253504E+02  0.41829776893E+02  0.57570904489E+02  0.00000000000E+00 0.  1.
<scales pt_clust_5="13000.00000" pt_clust_6="13000.00000" pt_clust_7="13000.00000" pt_clust_8="13000.00000" pt_clust_9="39.55602"></scales>
<clustering>
<clus scale="   39.556">  1  9  2 -1</clus>
<clus scale="   78.756">  5  6 -1 -1</clus>
<clus scale="   93.269">  7  8 -1 -1</clus>
<clus scale="  102.200">  2  5  1 -1</clus>
<clus scale="   39.556">  1  5  2 -1</clus>
</clustering>
</event>
<event>
 9    1  0.6106093E-005  0.1116383E+03  0.7546771E-02  0.1263085E+00
         -2   -1    0    0    0  501 -0.00000000000E+00  0.00000000000E+00  0.14171370651E+03  0.14171370651E+03  0.00000000000E+00 0.  1.
          1   -1    0    0  502    0  0.00000000000E+00 -0.00000000000E+00 -0.33232783731E+03  0.33232783731E+03  0.00000000000E+00 0. -1.
        -24    2    1    2    0    0  0.32869081938E+02  0.22382697013E+02  0.10332847016E+03  0.13577705239E+03  0.78595633077E+02 0.  0.
         23    2    1    2    0    0 -0.62594125858E+02 -0.14878687903E+02 -0.28466213465E+03  0.30623301560E+03  0.92772458160E+02 0.  0.
         11    1    3    3    0    0  0.55636793163E+02  0.52247129457E+01  0.48558999320E+02  0.74031930907E+02  0.00000000000E+00 0. -1.
        -12    1    3    3    0    0 -0.22767711225E+02  0.17157984067E+02  0.54769470836E+02  0.61745121486E+02  0.00000000000E+00 0.  1.
        -11    1    4    4    0    0  0.24335968307E+02  0.11743761188E+01 -0.55542614295E+02  0.60651467545E+02  0.00000000000E+00 0. -1.
         11    1    4    4    0    0 -0.86930094166E+02 -0.16053064022E+02 -0.22911952035E+03  0.24558154805E+03  0.00000000000E+00 0.  1.
         21    1    1    2  502  501  0.29725043920E+02 -0.75040091102E+01 -0.92804663140E+01  0.32031475829E+02  0.00000000000E+00 0. -1.
<scales pt_clust_5="13000.00000" pt_clust_6="13000.00000" pt_clust_7="13000.00000" pt_clust_8="13000.00000" pt_clust_9="30.65760"></scales>
<clustering>
<clus scale="   30.658">  1  9  2 -1</clus>
<clus scale="   78.596">  5  6 -1 -1</clus>
<clus scale="   92.772">  7  8 -1 -1</clus>
<clus scale="  100.168">  1  5  2 -1</clus>
<clus scale="  111.638">  2  5  1 -1</clus>
</clustering>
</event>
<event>
 9    1  0.6106093E-005  0.9409473E+02  0.7546771E-02  0.1301553E+00
         -4   -1    0    0    0  501 -0.00000000000E+00  0.00000000000E+00  0.22056347829E+03  0.22056347829E+03  0.00000000000E+00 0.  1.
          3   -1    0    0  502    0  0.00000000000E+00 -0.00000000000E+00 -0.30599644554E+03  0.30599644554E+03  0.00000000000E+00 0. -1.
        -24    2    1    2    0    0  0.29346583062E+01 -0.23323879693E+01  0.75470172929E+02  0.10842229233E+03  0.77753419345E+02 0.  0.
         23    2    1    2    0    0  0.19898792341E+02 -0.12630419046E+02 -0.28020939271E+03  0.29574795075E+03  0.91619087483E+02 0.  0.
         13    1    3    3    0    0  0.22348280965E+02  0.31448343745E+02  0.32784158633E+02  0.50628500310E+02  0.00000000000E+00 0. -1.
        -14    1    3    3    0    0 -0.19413622659E+02 -0.33780731714E+02  0.42686014297E+02  0.57793792023E+02  0.00000000000E+00 0.  1.
        -11    1    4    4    0    0  0.55965429014E+02 -0.12478764652E+02 -0.14837885255E+03  0.15907272770E+03  0.00000000000E+00 0.  1.
         11    1    4    4    0    0 -0.36066636674E+02 -0.15165439423E+00 -0.13183054015E+03  0.13667522306E+03  0.00000000000E+00 0. -1.
         21    1    1    2  502  501 -0.22833450647E+02  0.14962807016E+02  0.11930625253E+03  0.12238968075E+03  0.00000000000E+00 0.  1.
<scales pt_clust_5="13000.00000" pt_clust_6="13000.00000" pt_clust_7="13000.00000" pt_clust_8="13000.00000" pt_clust_9="27.29931"></scales>
<clustering>
<clus scale="   27.299">  1  9  2 -1</clus>
<clus scale="   77.753">  5  6 -1 -1</clus>
<clus scale="   80.656">  1  5  2 -1</clus>
<clus scale="   91.619">  7  8 -1 -1</clus>
<clus scale="   94.095">  2  5  1 -1</clus>
</clustering>
</event>
<event>
 9    1  0.6106093E-005  0.1043108E+03  0.7546771E-02  0.1275486E+00
          1   -1    0    0  502    0  0.00000000000E+00  0.00000000000E+00  0.18496406204E+02  0.18496406204E+02  0.00000000000E+00 0. -1.
         -2   -1    0    0    0  501 -0.00000000000E+00 -0.00000000000E+00 -0.82963187161E+03  0.82963187161E+03  0.00000000000E+00 0.  1.
         23    2    1    2    0    0  0.45610500027E+02 -0.26578811016E+02 -0.53409126824E+03  0.54427436235E+03  0.90522636920E+02 0.  0.
        -24    2    1    2    0    0 -0.31980473824E+02  0.41664917076E+02 -0.17749845945E+03  0.20225311770E+03  0.81497880267E+02 0.  0.
         13    1    4    4    0    0 -0.48489163685E+02  0.32709272544E+02 -0.17344173755E+03  0.18303860749E+03  0.00000000000E+00 0. -1.
        -14    1    4    4    0    0  0.16508689862E+02  0.89556445324E+01 -0.40567218996E+01  0.19214510208E+02  0.00000000000E+00 0.  1.
        -13    1    3    3    0    0  0.66285216360E+02 -0.42411290875E+02 -0.39331541294E+03  0.40111028602E+03  0.00000000000E+00 0.  1.
         13    1    3    3    0    0 -0.20674716333E+02  0.15832479859E+02 -0.14077585531E+03  0.14316407633E+03  0.00000000000E+00 0. -1.
         21    1    1    2  502  501 -0.13630026203E+02 -0.15086106060E+02 -0.99545737706E+02  0.10160079776E+03  0.00000000000E+00 0. -1.
<scales pt_clust_5="13000.00000" pt_clust_6="13000.00000" pt_clust_7="13000.00000" pt_clust_8="13000.00000" pt_clust_9="20.33146"></scales>
<clustering>
<clus scale="   20.331">  2  9  1 -1</clus>
<clus scale="   81.498">  5  6 -1 -1</clus>
<clus scale="   90.523">  7  8 -1 -1</clus>
<clus scale="   96.583">  1  5  2 -1</clus>
<clus scale="   96.583">  1  5  2 -1</clus>
</clustering>
</event>
<event>
 9    1  0.6106093E-005  0.1777162E+03  0.7546771E-02  0.1171193E+00
         -2   -1    0    0    0  501 -0.00000000000E+00  0.00000000000E+00  0.22194674007E+03  0.22194674007E+03  0.00000000000E+00 0.  1.
          1   -1    0    0  502    0  0.00000000000E+00 -0.00000000000E+00 -0.45846691492E+03  0.45846691492E+03  0.00000000000E+00 0. -1.
         23    2    1    2    0    0  0.70736055796E+02 -0.10341773719E+03  0.90149371329E+02  0.17937965934E+03  0.91385639345E+02 0.  0.
        -24    2    1    2    0    0 -0.78611686482E+02  0.13507395986E+03 -0.39095763604E+03  0.42894307742E+03  0.81972669887E+02 0.  0.
         11    1    4    4    0    0 -0.40685100361E+02  0.12730685221E+03 -0.33699420567E+03  0.36252918043E+03  0.00000000000E+00 0. -1.
        -12    1    4    4    0    0 -0.37926586121E+02  0.77671076464E+01 -0.53963430371E+02  0.66413896990E+02  0.00000000000E+00 0.  1.
        -13    1    3    3    0    0  0.45818887431E+02 -0.11445722182E+03  0.89086102222E+02  0.15210575164E+03  0.00000000000E+00 0.  1.
         13    1    3    3    0    0  0.24917168365E+02  0.11039484628E+02  0.10632691064E+01  0.27273907703E+02  0.00000000000E+00 0. -1.
         21    1    1    2  502  501  0.78756306864E+01 -0.31656222666E+02  0.64288089861E+02  0.72090918223E+02  0.00000000000E+00 0.  1.
<scales pt_clust_5="13000.00000" pt_clust_6="13000.00000" pt_clust_7="13000.00000" pt_clust_8="13000.00000" pt_clust_9="32.62119"></scales>
<clustering>
<clus scale="   32.621">  1  9  2 -1</clus>
<clus scale="   81.973">  5  6 -1 -1</clus>
<clus scale="   91.386">  7  8 -1 -1</clus>
<clus scale="  173.064">  2  5  1 -1</clus>
<clus scale="  173.064">  2  5  1 -1</clus>
</clustering>
</event>
<event>
 9    1  0.6106093E-005  0.1037872E+03  0.7546771E-02  0.1276152E+00
         -2   -1    0    0    0  501 -0.00000000000E+00  0.00000000000E+00  0.64142261850E+02  0.64142261850E+02  0.00000000000E+00 0.  1.
          1   -1    0    0  502    0  0.00000000000E+00 -0.00000000000E+00 -0.48306042412E+03  0.48306042412E+03  0.00000000000E+00 0. -1.
        -24    2    1    2    0    0 -0.23617177666E+02  0.24056341628E+02  0.52892432226E+01  0.88510943895E+02  0.81668429898E+02 0.  0.
         23    2    1    2    0    0 -0.80096428301E+01 -0.56121890036E+02 -0.38364960468E+03  0.39808324122E+03  0.89829988574E+02 0.  0.
         11    1    3    3    0    0  0.17910905679E+02 -0.20330227991E+02  0.58723675365E+01  0.27723697677E+02  0.00000000000E+00 0. -1.
        -12    1    3    3    0    0 -0.41528083345E+02  0.44386569619E+02 -0.58312431389E+00  0.60787246218E+02  0.00000000000E+00 0.  1.
        -11    1    4    4    0    0 -0.49206612627E+01  0.24775951336E+02 -0.93046526351E+02  0.96414297373E+02  0.00000000000E+00 0.  1.
         11    1    4    4    0    0 -0.30889815673E+01 -0.80897841373E+02 -0.29060307833E+03  0.30166894384E+03  0.00000000000E+00 0. -1.
         21    1    1    2  502  501  0.31626820496E+02  0.32065548409E+02 -0.40557800812E+02  0.60608500858E+02  0.00000000000E+00 0. -1.
<scales pt_clust_5="13000.00000" pt_clust_6="13000.00000" pt_clust_7="13000.00000" pt_clust_8="13000.00000" pt_clust_9="45.03837"></scales>
<clustering>
<clus scale="   45.038">  1  9  2 -1</clus>
<clus scale="   81.668">  5  6 -1 -1</clus>
<clus scale="   89.830">  7  8 -1 -1</clus>
<clus scale="   96.810">  1  5  2 -1</clus>
<clus scale="  103.787">  2  5  1 -1</clus>
</clustering>
</event>
<event>
 9    1  0.6106093E-005  0.1957307E+03  0.7546771E-02  0.1184725E+00
         -2   -1    0    0    0  501 -0.00000000000E+00  0.00000000000E+00  0.24116396972E+03  0.24116396972E+03  0.00000000000E+00 0.  1.
          1   -1    0    0  502    0  0.00000000000E+00 -0.00000000000E+00 -0.82451355606E+03  0.82451355606E+03  0.00000000000E+00 0. -1.
         23    2    1    2    0    0  0.55710118304E+01  0.21105724426E+02  0.43416398653E+02  0.10487036146E+03  0.92931809761E+02 0.  0.
        -24    2    1    2    0    0 -0.14937211785E+03 -0.10192549569E+03 -0.73671028388E+03  0.76256906914E+03  0.77901903514E+02 0.  0.
         11    1    4    4    0    0 -0.88389291944E+02 -0.10223634785E+03 -0.53773131320E+03  0.55445459954E+03  0.00000000000E+00 0. -1.
        -12    1    4    4    0    0 -0.60982825904E+02  0.31085216829E+00 -0.19897897068E+03  0.20811446960E+03  0.00000000000E+00 0.  1.
        -13    1    3    3    0    0  0.41118319806E+02  0.25043560838E+02  0.48974804469E+02  0.68676252343E+02  0.00000000000E+00 0. -1.
         13    1    3    3    0    0 -0.35547307975E+02 -0.39378364127E+01 -0.55584058162E+01  0.36194109122E+02  0.00000000000E+00 0.  1.
         21    1    1    2  502  501  0.14380110602E+03  0.80819771260E+02  0.10994429890E+03  0.19823809517E+03  0.00000000000E+00 0.  1.
<scales pt_clust_5="13000.00000" pt_clust_6="13000.00000" pt_clust_7="13000.00000" pt_clust_8="13000.00000" pt_clust_9="179.56000"></scales>
<clustering>
<clus scale="   77.902">  5  6 -1 -1</clus>
<clus scale="   92.932">  7  8 -1 -1</clus>
<clus scale="   95.461">  1  7  2 -1</clus>
<clus scale="  179.560">  1  9  2 -1</clus>
<clus scale="  195.731">  2  5  1 -1</clus>
</clustering>
</event>
<event>
 9    1  0.6106093E-005  0.2013935E+03  0.7546771E-02  0.1149694E+00
         -2   -1    0    0    0  501 -0.00000000000E+00  0.00000000000E+00  0.59916821709E+03  0.59916821709E+03  0.00000000000E+00 0.  1.
          1   -1    0    0  502    0  0.00000000000E+00 -0.00000000000E+00 -0.13167132162E+03  0.13167132162E+03  0.00000000000E+00 0. -1.
        -24    2    1    2    0    0 -0.24849471315E+02 -0.20730705318E+03  0.32852604459E+03  0.39735089917E+03  0.79778847922E+02 0.  0.
         23    2    1    2    0    0  0.86635630659E+01  0.17083327142E+03  0.56576125537E+01  0.19433139073E+03  0.92052250887E+02 0.  0.
         13    1    3    3    0    0 -0.52108751136E+02 -0.16283464418E+03  0.24158326907E+03  0.29596100956E+03  0.00000000000E+00 0. -1.
        -14    1    3    3    0    0  0.27259279821E+02 -0.44472409002E+02  0.86942775528E+02  0.10138988961E+03  0.00000000000E+00 0.  1.
        -11    1    4    4    0    0  0.27207506596E+02  0.85410470379E+02  0.42826967945E+02  0.99344582383E+02  0.00000000000E+00 0. -1.
         11    1    4    4    0    0 -0.18543943530E+02  0.85422801045E+02 -0.37169355391E+02  0.94986808348E+02  0.00000000000E+00 0.  1.
         21    1    1    2  502  501  0.16185908249E+02  0.36473781754E+02  0.13331323832E+03  0.13915724880E+03  0.00000000000E+00 0. -1.
<scales pt_clust_5="13000.00000" pt_clust_6="13000.00000" pt_clust_7="13000.00000" pt_clust_8="13000.00000" pt_clust_9="39.90389"></scales>
<clustering>
<clus scale="   39.904">  1  9  2 -1</clus>
<clus scale="   79.779">  5  6 -1 -1</clus>
<clus scale="   92.052">  7  8 -1 -1</clus>
<clus scale="  196.088">  1  5  2 -1</clus>
<clus scale="  201.394">  2  5  1 -1</clus>
</clustering>
</event>
<event>
 9    1  0.6106093E-005  0.9592926E+02  0.7546771E-02  0.1296703E+00
         -4   -1    0    0    0  501 -0.00000000000E+00  0.00000000000E+00  0.37079814658E+03  0.37079814658E+03  0.00000000000E+00 0.  1.
          3   -1    0    0  502    0  0.00000000000E+00 -0.00000000000E+00 -0.87513570340E+02  0.87513570340E+02  0.00000000000E+00 0. -1.
        -24    2    1    2    0    0  0.17336620162E+02 -0.12365910641E+02  0.17256905447E+03  0.19092262226E+03  0.78853630130E+02 0.  0.
         23    2    1    2    0    0  0.40859961778E+01  0.29044807377E+02 -0.46885590772E+02  0.10746653602E+03  0.92143917554E+02 0.  0.
         11    1    3    3    0    0  0.15397149645E+02  0.27228928320E+02  0.12571495482E+03  0.12954820191E+03  0.00000000000E+00 0. -1.
        -12    1    3    3    0    0  0.19394705180E+01 -0.39594838961E+02  0.46854099655E+02  0.61374420345E+02  0.00000000000E+00 0.  1.
        -11    1    4    4    0    0  0.15328308055E+02  0.56113034795E+02 -0.51627364687E+02  0.77775410551E+02  0.00000000000E+00 0. -1.
         11    1    4    4    0    0 -0.11242311877E+02 -0.27068227418E+02  0.47417739157E+01  0.29691125472E+02  0.00000000000E+00 0.  1.
         21    1    1    2  502  501 -0.21422616340E+02 -0.16678896736E+02  0.15760111254E+03  0.15992255864E+03  0.00000000000E+00 0.  1.
<scales pt_clust_5="13000.00000" pt_clust_6="13000.00000" pt_clust_7="13000.00000" pt_clust_8="13000.00000" pt_clust_9="27.14985"></scales>
<clustering>
<clus scale="   27.150">  1  9  2 -1</clus>
<clus scale="   78.854">  5  6 -1 -1</clus>
<clus scale="   83.246">  1  5  2 -1</clus>
<clus scale="   92.144">  7  8 -1 -1</clus>
<clus scale="   95.929">  2  5  1 -1</clus>
</clustering>
</event>
<event>
 9    1  0.6106093E-005  0.1487700E+03  0.7546771E-02  0.1204329E+00
          1   -1    0    0  502    0  0.00000000000E+00  0.00000000000E+00  0.77611754691E+03  0.77611754691E+03  0.00000000000E+00 0. -1.
         -2   -1    0    0    0  501 -0.00000000000E+00 -0.00000000000E+00 -0.50359845812E+02  0.50359845812E+02  0.00000000000E+00 0.  1.
        -24    2    1    2    0    0 -0.33778241831E+02  0.12277064392E+03  0.11772239351E+03  0.19118076181E+03  0.80485533628E+02 0.  0.
         23    2    1    2    0    0 -0.61914961188E+01 -0.85726760346E+02  0.47471989245E+03  0.49127292045E+03  0.92750708974E+02 0.  0.
         11    1    3    3    0    0  0.21129409486E+02  0.74350027473E+02  0.56412095992E+02  0.95690663623E+02  0.00000000000E+00 0. -1.
        -12    1    3    3    0    0 -0.54907651317E+02  0.48420616447E+02  0.61310297521E+02  0.95490098190E+02  0.00000000000E+00 0.  1.
        -13    1    4    4    0    0 -0.49397140266E+02 -0.50671950093E+02  0.25896324423E+03  0.26845797782E+03  0.00000000000E+00 0.  1.
         13    1    4    4    0    0  0.43205644147E+02 -0.35054810252E+02  0.21575664822E+03  0.22281494263E+03  0.00000000000E+00 0. -1.
         21    1    1    2  502  501  0.39969737950E+02 -0.37043883574E+02  0.13331541513E+03  0.14402371046E+03  0.00000000000E+00 0. -1.
<scales pt_clust_5="13000.00000" pt_clust_6="13000.00000" pt_clust_7="13000.00000" pt_clust_8="13000.00000" pt_clust_9="54.49614"></scales>
<clustering>
<clus scale="   54.496">  1  9  2 -1</clus>
<clus scale="   80.486">  5  6 -1 -1</clus>
<clus scale="   92.751">  7  8 -1 -1</clus>
<clus scale="  141.449">  2  5  1 -1</clus>
<clus scale="   54.496">  1  5  2 -1</clus>
</clustering>
</event>
<event>
 9    1  0.6106093E-005  0.1164312E+03  0.7546771E-02  0.1254360E+00
         -2   -1    0    0    0  501 -0.00000000000E+00  0.00000000000E+00  0.32414419076E+03  0.32414419076E+03  0.00000000000E+00 0.  1.
          1   -1    0    0  502    0  0.00000000000E+00 -0.00000000000E+00 -0.15959873105E+03  0.15959873105E+03  0.00000000000E+00 0. -1.
        -24    2    1    2    0    0  0.48555369385E+02  0.50361196359E+02  0.20925682470E+03  0.23438059790E+03  0.79069412491E+02 0.  0.
         23    2    1    2    0    0 -0.26488658874E+02 -0.63947033472E+02 -0.12143697711E+03  0.16837878091E+03  0.93880787763E+02 0.  0.
         13    1    3    3    0    0  0.37639347764E+01  0.52654467081E+02  0.15635265802E+03  0.16502367642E+03  0.00000000000E+00 0. -1.
        -14    1    3    3    0    0  0.44791434609E+02 -0.22932707215E+01  0.52904166685E+02  0.69356921482E+02  0.00000000000E+00 0.  1.
        -11    1    4    4    0    0  0.25716886248E+02 -0.75326991432E+00 -0.62006774564E+02  0.67132449275E+02  0.00000000000E+00 0. -1.
         11    1    4    4    0    0 -0.52205545122E+02 -0.63193763558E+02 -0.59430202549E+02  0.10124633163E+03  0.00000000000E+00 0.  1.
         21    1    1    2  502  501 -0.22066710511E+02  0.13585837113E+02  0.76725612116E+02  0.80983543004E+02  0.00000000000E+00 0.  1.
<scales pt_clust_5="13000.00000" pt_clust_6="13000.00000" pt_clust_7="13000.00000" pt_clust_8="13000.00000" pt_clust_9="25.91360"></scales>
<clustering>
<clus scale="   25.914">  1  9  2 -1</clus>
<clus scale="   79.069">  5  6 -1 -1</clus>
<clus scale="   93.881">  7  8 -1 -1</clus>
<clus scale="  104.855">  1  5  2 -1</clus>
<clus scale="  116.431">  2  5  1 -1</clus>
</clustering>
</event>
<event>
 9    1  0.6106093E-005  0.9350073E+02  0.7546771E-02  0.1299837E+00
          1   -1    0    0  502    0  0.00000000000E+00  0.00000000000E+00  0.10940071364E+03  0.10940071364E+03  0.00000000000E+00 0. -1.
         -2   -1    0    0    0  501 -0.00000000000E+00 -0.00000000000E+00 -0.10113559806E+03  0.10113559806E+03  0.00000000000E+00 0.  1.
        -24    2    1    2    0    0 -0.64763667071E+01 -0.11810588805E+02 -0.23166110291E+02  0.86752540089E+02  0.82510006740E+02 0.  0.
         23    2    1    2    0    0 -0.11576289514E+02  0.23539661772E+02  0.36192853794E+02  0.10173512880E+03  0.91389209490E+02 0.  0.
         11    1    3    3    0    0 -0.38282909083E+02 -0.25788194492E+02 -0.22787625230E+01  0.46214768870E+02  0.00000000000E+00 0. -1.
        -12    1    3    3    0    0  0.31806542376E+02  0.13977605687E+02 -0.20887347768E+02  0.40537771220E+02  0.00000000000E+00 0.  1.
        -11    1    4    4    0    0  0.24990439929E+02 -0.53970367909E+01 -0.17224622602E+02  0.30827548033E+02  0.00000000000E+00 0.  1.
         11    1    4    4    0    0 -0.36566729443E+02  0.28936698563E+02  0.53417476396E+02  0.70907580768E+02  0.00000000000E+00 0. -1.
         21    1    1    2  502  501  0.18052656221E+02 -0.11729072967E+02 -0.47616279255E+01  0.22048642811E+02  0.00000000000E+00 0. -1.
<scales pt_clust_5="13000.00000" pt_clust_6="13000.00000" pt_clust_7="13000.00000" pt_clust_8="13000.00000" pt_clust_9="21.52834"></scales>
<clustering>
<clus scale="   21.528">  2  9  1 -1</clus>
<clus scale="   82.510">  5  6 -1 -1</clus>
<clus scale="   84.843">  2  5  1 -1</clus>
<clus scale="   91.389">  7  8 -1 -1</clus>
<clus scale="   93.501">  1  5  2 -1</clus>
</clustering>
</event>
<event>
 9    1  0.6106093E-005  0.1622521E+03  0.7546771E-02  0.1212385E+00
         -2   -1    0    0    0  501 -0.00000000000E+00  0.00000000000E+00  0.21812627644E+03  0.21812627644E+03  0.00000000000E+00 0.  1.
          1   -1    0    0  502    0  0.00000000000E+00 -0.00000000000E+00 -0.55798859650E+03  0.55798859650E+03  0.00000000000E+00 0. -1.
         23    2    1    2    0    0  0.95285434814E+01 -0.13427878286E+01  0.11539075252E+03  0.14742772251E+03  0.91254103336E+02 0.  0.
        -24    2    1    2    0    0 -0.13746514496E+03  0.19400856625E+02 -0.47094264479E+03  0.49853327795E+03  0.86460367942E+02 0.  0.
         13    1    4    4    0    0 -0.10337383083E+03  0.17539195449E+02 -0.44044551917E+03  0.45275382675E+03  0.00000000000E+00 0. -1.
        -14    1    4    4    0    0 -0.34091314124E+02  0.18616611762E+01 -0.30497125615E+02  0.45779451196E+02  0.00000000000E+00 0.  1.
        -13    1    3    3    0    0  0.27979345344E+02  0.24739239505E+02  0.10849524746E+03  0.11474359441E+03  0.00000000000E+00 0.  1.
         13    1    3    3    0    0 -0.18450801862E+02 -0.26082027334E+02  0.68955050613E+01  0.32684128094E+02  0.00000000000E+00 0. -1.
         21    1    1    2  502  501  0.12793660148E+03 -0.18058068797E+02  0.15689572211E+02  0.13015387248E+03  0.00000000000E+00 0.  1.
<scales pt_clust_5="13000.00000" pt_clust_6="13000.00000" pt_clust_7="13000.00000" pt_clust_8="13000.00000" pt_clust_9="137.29663"></scales>
<clustering>
<clus scale="   86.460">  5  6 -1 -1</clus>
<clus scale="   91.254">  7  8 -1 -1</clus>
<clus scale="   91.760">  1  7  2 -1</clus>
<clus scale="  137.297">  1  9  2 -1</clus>
<clus scale="  162.252">  2  5  1 -1</clus>
</clustering>
</event>
<event>
 9    1  0.6106093E-005  0.9479092E+02  0.7546771E-02  0.1297216E+00
          1   -1    0    0  502    0  0.00000000000E+00  0.00000000000E+00  0.34300315310E+03  0.34300315310E+03  0.00000000000E+00 0. -1.
         -2   -1    0    0    0  501 -0.00000000000E+00 -0.00000000000E+00 -0.44015895409E+02  0.44015895409E+02  0.00000000000E+00 0.  1.
         23    2    1    2    0    0 -0.27091613504E+02 -0.50965551966E+01  0.91235220668E+02  0.12928312605E+03  0.87351764684E+02 0.  0.
        -24    2    1    2    0    0  0.36494822570E+02 -0.25187932199E+02  0.20777815759E+03  0.22602517981E+03  0.77131803633E+02 0.  0.
         13    1    4    4    0    0  0.40643492035E+02 -0.47588694961E+02  0.17696269233E+03  0.18770288173E+03  0.00000000000E+00 0. -1.
        -14    1    4    4    0    0 -0.41486694658E+01  0.22400762762E+02  0.30815465264E+02  0.38322298079E+02  0.00000000000E+00 0.  1.
        -13    1    3    3    0    0 -0.27287406297E+02  0.25040532700E+02  0.43146489375E+01  0.37286016357E+02  0.00000000000E+00 0.  1.
         13    1    3    3    0    0  0.19579279306E+00 -0.30137087896E+02  0.86920571731E+02  0.91997109692E+02  0.00000000000E+00 0. -1.
         21    1    1    2  502  501 -0.94032090661E+01  0.30284487395E+02 -0.26120566600E-01  0.31710742656E+02  0.00000000000E+00 0.  1.
<scales pt_clust_5="13000.00000" pt_clust_6="13000.00000" pt_clust_7="13000.00000" pt_clust_8="13000.00000" pt_clust_9="31.71073"></scales>
<clustering>
<clus scale="   31.711">  2  9  1 -1</clus>
<clus scale="   77.132">  5  6 -1 -1</clus>
<clus scale="   85.465">  1  5  2 -1</clus>
<clus scale="   87.352">  7  8 -1 -1</clus>
<clus scale="   85.465">  1  5  2 -1</clus>
</clustering>
</event>
<event>
 9    1  0.6106093E-005  0.1236096E+03  0.7546771E-02  0.1238871E+00
         -2   -1    0    0    0  501 -0.00000000000E+00  0.00000000000E+00  0.77171870373E+02  0.77171870373E+02  0.00000000000E+00 0.  1.
          1   -1    0    0  502    0  0.00000000000E+00 -0.00000000000E+00 -0.44167211410E+03  0.44167211410E+03  0.00000000000E+00 0. -1.
         23    2    1    2    0    0 -0.70780511493E+02 -0.45805028234E+02 -0.14161899053E+02  0.12698486935E+03  0.93896838286E+02 0.  0.
        -24    2    1    2    0    0  0.76410662310E+02  0.24191889626E+02 -0.34967454717E+03  0.36951483205E+03  0.88572486312E+02 0.  0.
         13    1    4    4    0    0  0.87547555118E+02 -0.32426852768E+01 -0.28924410991E+03  0.30222052302E+03  0.00000000000E+00 0. -1.
        -14    1    4    4    0    0 -0.11136892807E+02  0.27434574902E+02 -0.60430437261E+02  0.67294309039E+02  0.00000000000E+00 0.  1.
        -13    1    3    3    0    0  0.19893118854E+02 -0.66735381788E+01 -0.18724182359E+02  0.28122362891E+02  0.00000000000E+00 0. -1.
         13    1    3    3    0    0 -0.90673630347E+02 -0.39131490056E+02  0.45622833065E+01  0.98862506458E+02  0.00000000000E+00 0.  1.
         21    1    1    2  502  501 -0.56301508170E+01  0.21613138609E+02 -0.66379750431E+00  0.22344283069E+02  0.00000000000E+00 0. -1.
<scales pt_clust_5="13000.00000" pt_clust_6="13000.00000" pt_clust_7="13000.00000" pt_clust_8="13000.00000" pt_clust_9="22.33442"></scales>
<clustering>
<clus scale="   22.334">  1  9  2 -1</clus>
<clus scale="   88.572">  5  6 -1 -1</clus>
<clus scale="   93.897">  7  8 -1 -1</clus>
<clus scale="  119.615">  2  5  1 -1</clus>
<clus scale="  119.615">  2  5  1 -1</clus>
</clustering>
</event>
<event>
 9    1  0.6106093E-005  0.1868335E+03  0.7546771E-02  0.1162601E+00
         -2   -1    0    0    0  501 -0.00000000000E+00  0.00000000000E+00  0.33399265413E+03  0.33399265413E+03  0.00000000000E+00 0.  1.
          1   -1    0    0  502    0  0.00000000000E+00 -0.00000000000E+00 -0.44809968070E+03  0.44809968070E+03  0.00000000000E+00 0. -1.
         23    2    1    2    0    0  0.13718616836E+03  0.14160833137E+02  0.19610078712E+03  0.25666758297E+03  0.91663272107E+02 0.  0.
        -24    2    1    2    0    0 -0.13837164938E+03 -0.92716537160E+02 -0.37856136917E+03  0.42128728239E+03  0.80194728385E+02 0.  0.
         13    1    4    4    0    0 -0.10058442070E+03 -0.37999820102E+02 -0.29813209599E+03  0.31692894894E+03  0.00000000000E+00 0. -1.
        -14    1    4    4    0    0 -0.37787228678E+02 -0.54716717057E+02 -0.80429273184E+02  0.10435833346E+03  0.00000000000E+00 0.  1.
        -11    1    3    3    0    0 -0.17743434659E+01  0.22195634327E+02  0.10357920854E+02  0.24557707596E+02  0.00000000000E+00 0. -1.
         11    1    3    3    0    0  0.13896051183E+03 -0.80348011904E+01  0.18574286626E+03  0.23210987537E+03  0.00000000000E+00 0.  1.
         21    1    1    2  502  501  0.11854810218E+01  0.78555704023E+02  0.68353555490E+02  0.10413746947E+03  0.00000000000E+00 0.  1.
<scales pt_clust_5="13000.00000" pt_clust_6="13000.00000" pt_clust_7="13000.00000" pt_clust_8="13000.00000" pt_clust_9="78.56465"></scales>
<clustering>
<clus scale="   78.565">  1  9  2 -1</clus>
<clus scale="   80.195">  5  6 -1 -1</clus>
<clus scale="   91.663">  7  8 -1 -1</clus>
<clus scale="  181.482">  2  5  1 -1</clus>
<clus scale="  181.482">  2  5  1 -1</clus>
</clustering>
</event>
<event>
 9    1  0.6106093E-005  0.2537597E+03  0.7546771E-02  0.1111652E+00
         -2   -1    0    0    0  501 -0.00000000000E+00  0.00000000000E+00  0.33830870801E+03  0.33830870801E+03  0.00000000000E+00 0.  1.
          1   -1    0    0  502    0  0.00000000000E+00 -0.00000000000E+00 -0.23369301244E+03  0.23369301244E+03  0.00000000000E+00 0. -1.
        -24    2    1    2    0    0 -0.20826472452E+03 -0.16048160397E+03  0.28517351778E+02  0.27618989751E+03  0.79618336070E+02 0.  0.
         23    2    1    2    0    0  0.16829213287E+03  0.12857286430E+03  0.43716632396E+02  0.23527628807E+03  0.92685297414E+02 0.  0.
         11    1    3    3    0    0 -0.80736185971E+02 -0.20745776834E+02  0.24807652225E+02  0.86972056377E+02  0.00000000000E+00 0. -1.
        -12    1    3    3    0    0 -0.12752853855E+03 -0.13973582714E+03  0.37096995532E+01  0.18921784113E+03  0.00000000000E+00 0.  1.
        -13    1    4    4    0    0  0.13679204930E+03  0.73061615611E+02  0.64776491286E+02  0.16806563673E+03  0.00000000000E+00 0.  1.
         13    1    4    4    0    0  0.31500083576E+02  0.55511248689E+02 -0.21059858890E+02  0.67210651334E+02  0.00000000000E+00 0. -1.
         21    1    1    2  502  501  0.39972591649E+02  0.31908739672E+02  0.32381711390E+02  0.60535534879E+02  0.00000000000E+00 0. -1.
<scales pt_clust_5="13000.00000" pt_clust_6="13000.00000" pt_clust_7="13000.00000" pt_clust_8="13000.00000" pt_clust_9="51.14661"></scales>
<clustering>
<clus scale="   51.147">  1  9  2 -1</clus>
<clus scale="   79.618">  5  6 -1 -1</clus>
<clus scale="   92.685">  7  8 -1 -1</clus>
<clus scale="  249.284">  1  5  2 -1</clus>
<clus scale="  253.760">  2  5  1 -1</clus>
</clustering>
</event>
<event>
 9    1  0.6106093E-005  0.1389734E+03  0.7546771E-02  0.1219322E+00
          1   -1    0    0  502    0  0.00000000000E+00  0.00000000000E+00  0.15289761658E+04  0.15289761658E+04  0.00000000000E+00 0. -1.
         -2   -1    0    0    0  501 -0.00000000000E+00 -0.00000000000E+00 -0.22013966244E+02  0.22013966244E+02  0.00000000000E+00 0.  1.
        -24    2    1    2    0    0  0.22333094770E+02 -0.94725212184E+02  0.39172296603E+03  0.41000601925E+03  0.72016808887E+02 0.  0.
         23    2    1    2    0    0 -0.92298971310E+02  0.83001373901E+02  0.55327760016E+03  0.57456240625E+03  0.92722854062E+02 0.  0.
         13    1    3    3    0    0  0.14748864522E+02 -0.37697332755E+02  0.54378239733E+02  0.67790934925E+02  0.00000000000E+00 0. -1.
        -14    1    3    3    0    0  0.75842302480E+01 -0.57027879429E+02  0.33734472630E+03  0.34221508433E+03  0.00000000000E+00 0.  1.
        -13    1    4    4    0    0 -0.14188329593E+02  0.52690784862E+02  0.10305781520E+03  0.11661278138E+03  0.00000000000E+00 0.  1.
         13    1    4    4    0    0 -0.78110641717E+02  0.30310589039E+02  0.45021978495E+03  0.45794962487E+03  0.00000000000E+00 0. -1.
         21    1    1    2  502  501  0.69965876540E+02  0.11723838284E+02  0.56196163337E+03  0.56642170655E+03  0.00000000000E+00 0.  1.
<scales pt_clust_5="13000.00000" pt_clust_6="13000.00000" pt_clust_7="13000.00000" pt_clust_8="13000.00000" pt_clust_9="70.94133"></scales>
<clustering>
<clus scale="   70.941">  1  9  2 -1</clus>
<clus scale="   72.017">  5  6 -1 -1</clus>
<clus scale="   92.723">  7  8 -1 -1</clus>
<clus scale="  126.105">  2  5  1 -1</clus>
<clus scale="   70.941">  1  5  2 -1</clus>
</clustering>
</event>
<event>
 9    1  0.6106093E-005  0.9917811E+02  0.7546771E-02  0.1288012E+00
          3   -1    0    0  502    0  0.00000000000E+00  0.00000000000E+00  0.69283378853E+02  0.69283378853E+02  0.00000000000E+00 0. -1.
         -4   -1    0    0    0  501 -0.00000000000E+00 -0.00000000000E+00 -0.30315458784E+03  0.30315458784E+03  0.00000000000E+00 0.  1.
        -24    2    1    2    0    0  0.56184924112E+01 -0.13532561368E+02 -0.15005514021E+03  0.17139287691E+03  0.81512425307E+02 0.  0.
         23    2    1    2    0    0 -0.29407912999E+02  0.28125969532E+02  0.11171908727E+02  0.10204195870E+03  0.92907772984E+02 0.  0.
         11    1    3    3    0    0 -0.67683365415E+01  0.33250950929E+02 -0.71173254579E+02  0.78848387964E+02  0.00000000000E+00 0. -1.
        -12    1    3    3    0    0  0.12386828953E+02 -0.46783512296E+02 -0.78881885626E+02  0.92544488946E+02  0.00000000000E+00 0.  1.
        -11    1    4    4    0    0  0.29305745967E+02  0.30576178281E+02  0.86267634408E+01  0.43222106293E+02  0.00000000000E+00 0.  1.
         11    1    4    4    0    0 -0.58713658966E+02 -0.24502087493E+01  0.25451452860E+01  0.58819852403E+02  0.00000000000E+00 0. -1.
         21    1    1    2  502  501  0.23789420588E+02 -0.14593408164E+02 -0.94987977512E+02  0.99003131090E+02  0.00000000000E+00 0.  1.
<scales pt_clust_5="13000.00000" pt_clust_6="13000.00000" pt_clust_7="13000.00000" pt_clust_8="13000.00000" pt_clust_9="27.90885"></scales>
<clustering>
<clus scale="   27.909">  2  9  1 -1</clus>
<clus scale="   81.512">  5  6 -1 -1</clus>
<clus scale="   88.593">  2  5  1 -1</clus>
<clus scale="   92.908">  7  8 -1 -1</clus>
<clus scale="   99.178">  1  5  2 -1</clus>
</clustering>
</event>
<event>
 9    1  0.6106093E-005  0.9916898E+02  0.7546771E-02  0.1286857E+00
         -2   -1    0    0    0  501 -0.00000000000E+00  0.00000000000E+00  0.26468427636E+03  0.26468427636E+03  0.00000000000E+00 0.  1.
          1   -1    0    0  502    0  0.00000000000E+00 -0.00000000000E+00 -0.84522462601E+02  0.84522462601E+02  0.00000000000E+00 0. -1.
        -24    2    1    2    0    0 -0.43313132770E+02 -0.10706223171E+01  0.11163645091E+03  0.14548538834E+03  0.82620380936E+02 0.  0.
         23    2    1    2    0    0  0.31791083416E+02 -0.18270399523E+02 -0.29365350660E+02  0.10327522308E+03  0.91972644840E+02 0.  0.
         13    1    3    3    0    0 -0.25514229859E+02 -0.40497922905E+02  0.42938872372E+02  0.64302445098E+02  0.00000000000E+00 0. -1.
        -14    1    3    3    0    0 -0.17798902910E+02  0.39427300588E+02  0.68697578536E+02  0.81182943240E+02  0.00000000000E+00 0.  1.
        -11    1    4    4    0    0 -0.10727054489E+02  0.31661738489E+02 -0.97292527351E+01  0.34816572791E+02  0.00000000000E+00 0.  1.
         11    1    4    4    0    0  0.42518137906E+02 -0.49932138012E+02 -0.19636097925E+02  0.68458650287E+02  0.00000000000E+00 0. -1.
         21    1    1    2  502  501  0.11522049353E+02  0.19341021840E+02  0.97890713515E+02  0.10044612755E+03  0.00000000000E+00 0.  1.
<scales pt_clust_5="13000.00000" pt_clust_6="13000.00000" pt_clust_7="13000.00000" pt_clust_8="13000.00000" pt_clust_9="22.51295"></scales>
<clustering>
<clus scale="   22.513">  1  9  2 -1</clus>
<clus scale="   82.620">  5  6 -1 -1</clus>
<clus scale="   90.563">  1  5  2 -1</clus>
<clus scale="   91.973">  7  8 -1 -1</clus>
<clus scale="   99.169">  2  5  1 -1</clus>
</clustering>
</event>
<event>
 9    1  0.6106093E-005  0.1184459E+03  0.7546771E-02  0.1248250E+00
         -4   -1    0    0    0  501 -0.00000000000E+00  0.00000000000E+00  0.89837410626E+02  0.89837410626E+02  0.00000000000E+00 0.  1.
          3   -1    0    0  502    0  0.00000000000E+00 -0.00000000000E+00 -0.26344031503E+03  0.26344031503E+03  0.00000000000E+00 0. -1.
        -24    2    1    2    0    0 -0.57291854831E+02 -0.19033266135E+02  0.71317700561E+01  0.10059137807E+03  0.80144502913E+02 0.  0.
         23    2    1    2    0    0  0.81983032619E+02  0.23197296618E+02 -0.18983847635E+03  0.22604291277E+03  0.88302996014E+02 0.  0.
         13    1    3    3    0    0 -0.15856365845E+02 -0.12566107939E+02 -0.35455480813E+02  0.40821838840E+02  0.00000000000E+00 0. -1.
        -14    1    3    3    0    0 -0.41435488986E+02 -0.64671581963E+01  0.42587250869E+02  0.59769539226E+02  0.00000000000E+00 0.  1.
        -13    1    4    4    0    0  0.49530160013E+02  0.48296632547E+01 -0.22527101843E+02  0.54626300584E+02  0.00000000000E+00 0.  1.
         13    1    4    4    0    0  0.32452872606E+02  0.18367633363E+02 -0.16731137450E+03  0.17141661219E+03  0.00000000000E+00 0. -1.
         21    1    1    2  502  501 -0.24691177787E+02 -0.41640304826E+01  0.91038018826E+01  0.26643434822E+02  0.00000000000E+00 0. -1.
<scales pt_clust_5="13000.00000" pt_clust_6="13000.00000" pt_clust_7="13000.00000" pt_clust_8="13000.00000" pt_clust_9="25.03984"></scales>
<clustering>
<clus scale="   25.040">  1  9  2 -1</clus>
<clus scale="   80.145">  5  6 -1 -1</clus>
<clus scale="   88.303">  7  8 -1 -1</clus>
<clus scale="  112.495">  1  5  2 -1</clus>
<clus scale="  118.446">  2  5  1 -1</clus>
</clustering>
</event>
<event>
 9    1  0.6106093E-005  0.9236074E+02  0.7546771E-02  0.1300202E+00
          1   -1    0    0  502    0  0.00000000000E+00  0.00000000000E+00  0.19251374853E+03  0.19251374853E+03  0.00000000000E+00 0. -1.
         -2   -1    0    0    0  501 -0.00000000000E+00 -0.00000000000E+00 -0.92690206823E+02  0.92690206823E+02  0.00000000000E+00 0.  1.
        -24    2    1    2    0    0  0.21277567492E+02  0.24656577047E+02 -0.42016326949E+02  0.95880592573E+02  0.79793700451E+02 0.  0.
         23    2    1    2    0    0 -0.44957205865E+02 -0.29409521024E+02  0.12104943366E+03  0.15745554301E+03  0.85165793295E+02 0.  0.
         13    1    3    3    0    0  0.15100090225E+02 -0.27723494445E+02 -0.25592141629E+02  0.40639421529E+02  0.00000000000E+00 0. -1.
        -14    1    3    3    0    0  0.61774772674E+01  0.52380071492E+02 -0.16424185320E+02  0.55241171044E+02  0.00000000000E+00 0.  1.
        -13    1    4    4    0    0 -0.43779857862E+02  0.45575136793E+01  0.11473244570E+03  0.12288604877E+03  0.00000000000E+00 0. -1.
         13    1    4    4    0    0 -0.11773480029E+01 -0.33967034704E+02  0.63169879587E+01  0.34569494236E+02  0.00000000000E+00 0.  1.
         21    1    1    2  502  501  0.23679638372E+02  0.47529439769E+01  0.20790434992E+02  0.31867819772E+02  0.00000000000E+00 0. -1.
<scales pt_clust_5="13000.00000" pt_clust_6="13000.00000" pt_clust_7="13000.00000" pt_clust_8="13000.00000" pt_clust_9="24.15193"></scales>
<clustering>
<clus scale="   24.152">  1  9  2 -1</clus>
<clus scale="   79.794">  5  6 -1 -1</clus>
<clus scale="   85.166">  7  8 -1 -1</clus>
<clus scale="   87.432">  2  5  1 -1</clus>
<clus scale="   24.152">  1  5  2 -1</clus>
</clustering>
</event>
<event>
 9    1  0.6106093E-005  0.1841681E+03  0.7546771E-02  0.1190714E+00
          1   -1    0    0  502    0  0.00000000000E+00  0.00000000000E+00  0.33771978861E+02  0.33771978861E+02  0.00000000000E+00 0. -1.
         -2   -1    0    0    0  501 -0.00000000000E+00 -0.00000000000E+00 -0.16808598056E+04  0.16808598056E+04  0.00000000000E+00 0.  1.
        -24    2    1    2    0    0 -0.13120388840E+03  0.73291471280E+02 -0.55912999967E+03  0.58336615354E+03  0.71439572213E+02 0.  0.
         23    2    1    2    0    0 -0.38092706734E+02  0.21039888229E+01 -0.19524480679E+03  0.21951876412E+03  0.92803405909E+02 0.  0.
         13    1    3    3    0    0 -0.11380088438E+03  0.27208139840E+02 -0.40398910069E+03  0.42059257914E+03  0.00000000000E+00 0. -1.
        -14    1    3    3    0    0 -0.17403004022E+02  0.46083331440E+02 -0.15514089898E+03  0.16277357440E+03  0.00000000000E+00 0.  1.
        -11    1    4    4    0    0  0.15170415657E+02  0.26694001233E+02 -0.12131756637E+03  0.12514257119E+03  0.00000000000E+00 0.  1.
         11    1    4    4    0    0 -0.53263122391E+02 -0.24590012410E+02 -0.73927240418E+02  0.94376192936E+02  0.00000000000E+00 0. -1.
         21    1    1    2  502  501  0.16929659513E+03 -0.75395460103E+02 -0.89271302028E+03  0.91174686679E+03  0.00000000000E+00 0.  1.
<scales pt_clust_5="13000.00000" pt_clust_6="13000.00000" pt_clust_7="13000.00000" pt_clust_8="13000.00000" pt_clust_9="169.74768"></scales>
<clustering>
<clus scale="   71.440">  5  6 -1 -1</clus>
<clus scale="   92.803">  7  8 -1 -1</clus>
<clus scale="  100.339">  1  7  2 -1</clus>
<clus scale="  169.748">  2  9  1 -1</clus>
<clus scale="  100.339">  1  5  2 -1</clus>
</clustering>
</event>
<event>
 9    1  0.6106093E-005  0.9715288E+02  0.7546771E-02  0.1290785E+00
         -2   -1    0    0    0  501 -0.00000000000E+00  0.00000000000E+00  0.24431399770E+03  0.24431399770E+03  0.00000000000E+00 0.  1.
          1   -1    0    0  502    0  0.00000000000E+00 -0.00000000000E+00 -0.17405404454E+03  0.17405404454E+03  0.00000000000E+00 0. -1.
         23    2    1    2    0    0  0.58419856137E+02 -0.11606361517E+02  0.16062013874E+03  0.19291871155E+03  0.88719857285E+02 0.  0.
        -24    2    1    2    0    0 -0.38027514305E+02  0.34172668109E+01 -0.14302630489E+03  0.16838244888E+03  0.80239364683E+02 0.  0.
         11    1    4    4    0    0 -0.15983250175E+02 -0.38390826606E+02 -0.68280991173E+02  0.79947567875E+02  0.00000000000E+00 0. -1.
        -12    1    4    4    0    0 -0.22044264129E+02  0.41808093417E+02 -0.74745313717E+02  0.88434881008E+02  0.00000000000E+00 0.  1.
        -13    1    3    3    0    0  0.23114166515E+02  0.33120064749E+02  0.29691357532E+02  0.50127638033E+02  0.00000000000E+00 0.  1.
         13    1    3    3    0    0  0.35305689622E+02 -0.44726426265E+02  0.13092878121E+03  0.14279107352E+03  0.00000000000E+00 0. -1.
         21    1    1    2  502  501 -0.20392341832E+02  0.81890947057E+01  0.52666119307E+02  0.57066881817E+02  0.00000000000E+00 0.  1.
<scales pt_clust_5="13000.00000" pt_clust_6="13000.00000" pt_clust_7="13000.00000" pt_clust_8="13000.00000" pt_clust_9="21.97519"></scales>
<clustering>
<clus scale="   21.975">  1  9  2 -1</clus>
<clus scale="   80.239">  5  6 -1 -1</clus>
<clus scale="   88.720">  7  8 -1 -1</clus>
<clus scale="   89.475">  2  5  1 -1</clus>
<clus scale="   89.475">  2  5  1 -1</clus>
</clustering>
</event>
<event>
 9    1  0.6106093E-005  0.1242833E+03  0.7546771E-02  0.1242185E+00
          1   -1    0    0  502    0  0.00000000000E+00  0.00000000000E+00  0.24514862207E+03  0.24514862207E+03  0.00000000000E+00 0. -1.
         -2   -1    0    0    0  501 -0.00000000000E+00 -0.00000000000E+00 -0.22893719806E+03  0.22893719806E+03  0.00000000000E+00 0.  1.
        -24    2    1    2    0    0  0.23638423174E+02  0.54789272973E+01 -0.10453988489E+03  0.13361771796E+03  0.79600963098E+02 0.  0.
         23    2    1    2    0    0 -0.73844586209E+02  0.43074456299E+02  0.19754526690E+03  0.23666346908E+03  0.98371913797E+02 0.  0.
         13    1    3    3    0    0 -0.23385668005E+02  0.13409690500E+02 -0.69190690897E+02  0.74256723427E+02  0.00000000000E+00 0. -1.
        -14    1    3    3    0    0  0.47024091179E+02 -0.79307632024E+01 -0.35349193990E+02  0.59360994533E+02  0.00000000000E+00 0.  1.
        -13    1    4    4    0    0 -0.75849180364E+02 -0.10499510449E+02  0.12163668894E+03  0.14373177094E+03  0.00000000000E+00 0.  1.
         13    1    4    4    0    0  0.20045941549E+01  0.53573966748E+02  0.75908577960E+02  0.92931698138E+02  0.00000000000E+00 0. -1.
         21    1    1    2  502  501  0.50206163035E+02 -0.48553383597E+02 -0.76793958007E+02  0.10380463309E+03  0.00000000000E+00 0.  1.
<scales pt_clust_5="13000.00000" pt_clust_6="13000.00000" pt_clust_7="13000.00000" pt_clust_8="13000.00000" pt_clust_9="69.84332"></scales>
<clustering>
<clus scale="   69.843">  2  9  1 -1</clus>
<clus scale="   79.601">  5  6 -1 -1</clus>
<clus scale="   98.372">  7  8 -1 -1</clus>
<clus scale="  110.026">  2  5  1 -1</clus>
<clus scale="  124.283">  1  5  2 -1</clus>
</clustering>
</event>
<event>
 9    1  0.6106093E-005  0.9727266E+02  0.7546771E-02  0.1288605E+00
          1   -1    0    0  502    0  0.00000000000E+00  0.00000000000E+00  0.39929935558E+03  0.39929935558E+03  0.00000000000E+00 0. -1.
         -2   -1    0    0    0  501 -0.00000000000E+00 -0.00000000000E+00 -0.90050840905E+02  0.90050840905E+02  0.00000000000E+00 0.  1.
        -24    2    1    2    0    0 -0.36378539711E+02  0.30137397494E+01 -0.41616023716E+02  0.10132293086E+03  0.84864374793E+02 0.  0.
         23    2    1    2    0    0  0.44858808540E+02 -0.45582703880E+02  0.30767937704E+03  0.32679827064E+03  0.89668361416E+02 0.  0.
         11    1    3    3    0    0 -0.18882109624E+02  0.39635396737E+02 -0.10155818197E+01  0.43915033244E+02  0.00000000000E+00 0. -1.
        -12    1    3    3    0    0 -0.17496430087E+02 -0.36621656988E+02 -0.40600441896E+02  0.57407897614E+02  0.00000000000E+00 0.  1.
        -13    1    4    4    0    0  0.21417074866E+02 -0.68081504250E+02  0.15418021704E+03  0.16989797421E+03  0.00000000000E+00 0.  1.
         13    1    4    4    0    0  0.23441733673E+02  0.22498800370E+02  0.15349916000E+03  0.15690029642E+03  0.00000000000E+00 0. -1.
         21    1    1    2  502  501 -0.84802688293E+01  0.42568964130E+02  0.43185161351E+02  0.61228994990E+02  0.00000000000E+00 0. -1.
<scales pt_clust_5="13000.00000" pt_clust_6="13000.00000" pt_clust_7="13000.00000" pt_clust_8="13000.00000" pt_clust_9="43.40543"></scales>
<clustering>
<clus scale="   43.405">  1  9  2 -1</clus>
<clus scale="   84.864">  5  6 -1 -1</clus>
<clus scale="   89.668">  7  8 -1 -1</clus>
<clus scale="   92.863">  2  5  1 -1</clus>
<clus scale="   43.405">  1  5  2 -1</clus>
</clustering>
</event>
<event>
 9    1  0.6106093E-005  0.1097025E+03  0.7546771E-02  0.1265314E+00
          3   -1    0    0  502    0  0.00000000000E+00  0.00000000000E+00  0.37803928885E+02  0.37803928885E+02  0.00000000000E+00 0. -1.
         -4   -1    0    0    0  501 -0.00000000000E+00 -0.00000000000E+00 -0.51788630550E+03  0.51788630550E+03  0.00000000000E+00 0.  1.
         23    2    1    2    0    0 -0.49340046269E+02  0.64117561123E+02 -0.27244781619E+03  0.29821833525E+03  0.90337484584E+02 0.  0.
        -24    2    1    2    0    0  0.39309018530E+02 -0.39649278968E+02 -0.76608255844E+02  0.12380361254E+03  0.79631936776E+02 0.  0.
         13    1    4    4    0    0  0.22305280752E+02 -0.63312626306E+02 -0.45007534066E+02  0.80818885924E+02  0.00000000000E+00 0. -1.
        -14    1    4    4    0    0  0.17003737778E+02  0.23663347338E+02 -0.31600721777E+02  0.42984726619E+02  0.00000000000E+00 0.  1.
        -11    1    3    3    0    0  0.20676976431E+02  0.31298655888E+01 -0.18843601080E+02  0.28149861716E+02  0.00000000000E+00 0. -1.
         11    1    3    3    0    0 -0.70017022700E+02  0.60987695534E+02 -0.25360421511E+03  0.27006847354E+03  0.00000000000E+00 0.  1.
         21    1    1    2  502  501  0.10031027739E+02 -0.24468282155E+02 -0.13102630457E+03  0.13366828659E+03  0.00000000000E+00 0. -1.
<scales pt_clust_5="13000.00000" pt_clust_6="13000.00000" pt_clust_7="13000.00000" pt_clust_8="13000.00000" pt_clust_9="26.44463"></scales>
<clustering>
<clus scale="   26.445">  2  9  1 -1</clus>
<clus scale="   79.632">  5  6 -1 -1</clus>
<clus scale="   90.337">  7  8 -1 -1</clus>
<clus scale="  101.069">  1  5  2 -1</clus>
<clus scale="  101.069">  1  5  2 -1</clus>
</clustering>
</event>
<event>
 9    1  0.6106093E-005  0.1231273E+03  0.7546771E-02  0.1241026E+00
         -2   -1    0    0    0  501 -0.00000000000E+00  0.00000000000E+00  0.25224838405E+03  0.25224838405E+03  0.00000000000E+00 0.  1.
          1   -1    0    0  502    0  0.00000000000E+00 -0.00000000000E+00 -0.13699218196E+03  0.13699218196E+03  0.00000000000E+00 0. -1.
        -24    2    1    2    0    0 -0.96813218994E+02  0.63361273636E+02 -0.36527334321E+01  0.14060986856E+03  0.79814424179E+02 0.  0.
         23    2    1    2    0    0  0.65406253030E+02  0.24691717377E+02  0.26233506570E+02  0.11699308173E+03  0.90064007594E+02 0.  0.
         11    1    3    3    0    0 -0.50543115242E+02  0.45481267976E+02  0.36153843675E+02  0.77008133645E+02  0.00000000000E+00 0. -1.
        -12    1    3    3    0    0 -0.46270103751E+02  0.17880005660E+02 -0.39806577107E+02  0.63601734918E+02  0.00000000000E+00 0.  1.
        -11    1    4    4    0    0  0.29203418165E+02  0.35666712828E+02  0.53306610015E+02  0.70473744811E+02  0.00000000000E+00 0.  1.
         11    1    4    4    0    0  0.36202834865E+02 -0.10974995450E+02 -0.27073103445E+02  0.46519336921E+02  0.00000000000E+00 0. -1.
         21    1    1    2  502  501  0.31406965964E+02 -0.88052991013E+02  0.92675428957E+02  0.13163761571E+03  0.00000000000E+00 0.  1.
<scales pt_clust_5="13000.00000" pt_clust_6="13000.00000" pt_clust_7="13000.00000" pt_clust_8="13000.00000" pt_clust_9="93.48651"></scales>
<clustering>
<clus scale="   79.814">  5  6 -1 -1</clus>
<clus scale="   90.064">  7  8 -1 -1</clus>
<clus scale="   93.487">  1  9  2 -1</clus>
<clus scale="  115.841">  1  5  2 -1</clus>
<clus scale="  123.127">  2  5  1 -1</clus>
</clustering>
</event>
<event>
 9    1  0.6106093E-005  0.2013709E+03  0.7546771E-02  0.1149915E+00
         -2   -1    0    0    0  501 -0.00000000000E+00  0.00000000000E+00  0.58055898860E+02  0.58055898860E+02  0.00000000000E+00 0.  1.
          1   -1    0    0  502    0  0.00000000000E+00 -0.00000000000E+00 -0.16365373463E+04  0.16365373463E+04  0.00000000000E+00 0. -1.
         23    2    1    2    0    0  0.92773890504E+02  0.10673937725E+03 -0.51649427391E+03  0.54348271803E+03  0.92773058590E+02 0.  0.
        -24    2    1    2    0    0 -0.17095712602E+03 -0.12978033057E+03 -0.10425845845E+04  0.10673252999E+04  0.78303299333E+02 0.  0.
         13    1    4    4    0    0 -0.14627177080E+03 -0.66830996830E+02 -0.72454164105E+03  0.74217410537E+03  0.00000000000E+00 0. -1.
        -14    1    4    4    0    0 -0.24685355220E+02 -0.62949333739E+02 -0.31804294349E+03  0.32515119450E+03  0.00000000000E+00 0.  1.
        -11    1    3    3    0    0  0.33662673555E+02  0.10182393025E+03 -0.37563173832E+03  0.39064112840E+03  0.00000000000E+00 0.  1.
         11    1    3    3    0    0  0.59111216949E+02  0.49154470001E+01 -0.14086253559E+03  0.15284158963E+03  0.00000000000E+00 0. -1.
         21    1    1    2  502  501  0.78183235513E+02  0.23040953317E+02 -0.19402588972E+02  0.83785227241E+02  0.00000000000E+00 0.  1.
<scales pt_clust_5="13000.00000" pt_clust_6="13000.00000" pt_clust_7="13000.00000" pt_clust_8="13000.00000" pt_clust_9="81.50769"></scales>
<clustering>
<clus scale="   78.303">  5  6 -1 -1</clus>
<clus scale="   81.508">  1  9  2 -1</clus>
<clus scale="   92.773">  7  8 -1 -1</clus>
<clus scale="  195.128">  2  5  1 -1</clus>
<clus scale="  195.128">  2  5  1 -1</clus>
</clustering>
</event>
<event>
 9    1  0.6106093E-005  0.9936714E+02  0.7546771E-02  0.1286233E+00
         -4   -1    0    0    0  501 -0.00000000000E+00  0.00000000000E+00  0.10958528373E+03  0.10958528373E+03  0.00000000000E+00 0.  1.
          3   -1    0    0  502    0  0.00000000000E+00 -0.00000000000E+00 -0.20936068553E+03  0.20936068553E+03  0.00000000000E+00 0. -1.
         23    2    1    2    0    0 -0.64777797534E+02 -0.16256488831E+00  0.38086742596E+02  0.11752849885E+03  0.90366800316E+02 0.  0.
        -24    2    1    2    0    0  0.36395036303E+02 -0.10234309783E+02 -0.14494211093E+03  0.17037230872E+03  0.81173692129E+02 0.  0.
         13    1    4    4    0    0  0.51391571887E+02  0.22612483525E+01 -0.44399569566E+02  0.67952400125E+02  0.00000000000E+00 0. -1.
        -14    1    4    4    0    0 -0.14996535584E+02 -0.12495558136E+02 -0.10054254137E+03  0.10241990860E+03  0.00000000000E+00 0.  1.
        -13    1    3    3    0    0 -0.86372395157E+02 -0.10412983161E+02  0.33280415443E+02  0.93146158887E+02  0.00000000000E+00 0.  1.
         13    1    3    3    0    0  0.21594597623E+02  0.10250418272E+02  0.48063271528E+01  0.24382339961E+02  0.00000000000E+00 0. -1.
         21    1    1    2  502  501  0.28382761231E+02  0.10396874671E+02  0.70799665428E+01  0.31045161688E+02  0.00000000000E+00 0. -1.
<scales pt_clust_5="13000.00000" pt_clust_6="13000.00000" pt_clust_7="13000.00000" pt_clust_8="13000.00000" pt_clust_9="30.22708"></scales>
<clustering>
<clus scale="   30.227">  1  9  2 -1</clus>
<clus scale="   81.174">  5  6 -1 -1</clus>
<clus scale="   90.367">  7  8 -1 -1</clus>
<clus scale="   91.087">  2  5  1 -1</clus>
<clus scale="   91.087">  2  5  1 -1</clus>
</clustering>
</event>
<event>
 9    1  0.6106093E-005  0.1417787E+03  0.7546771E-02  0.1213009E+00
         -2   -1    0    0    0  501 -0.00000000000E+00  0.00000000000E+00  0.29077524327E+02  0.29077524327E+02  0.00000000000E+00 0.  1.
          1   -1    0    0  502    0  0.00000000000E+00 -0.00000000000E+00 -0.10607429153E+04  0.10607429153E+04  0.00000000000E+00 0. -1.
        -24    2    1    2    0    0  0.84841151417E+02 -0.88720887328E+02 -0.31651715552E+03  0.34920222908E+03  0.81790404279E+02 0.  0.
         23    2    1    2    0    0 -0.60806196635E+02  0.82675594489E+02 -0.69558450065E+03  0.70904346850E+03  0.91499700511E+02 0.  0.
         13    1    3    3    0    0  0.67065065141E+02 -0.21216815071E+02 -0.21327895423E+03  0.22457913643E+03  0.00000000000E+00 0. -1.
        -14    1    3    3    0    0  0.17776086276E+02 -0.67504072257E+02 -0.10323820130E+03  0.12462309265E+03  0.00000000000E+00 0.  1.
        -11    1    4    4    0    0 -0.48060221668E+02  0.10075935684E+03 -0.63036310637E+03  0.64017175724E+03  0.00000000000E+00 0. -1.
         11    1    4    4    0    0 -0.12745974967E+02 -0.18083762353E+02 -0.65221394288E+02  0.68871711258E+02  0.00000000000E+00 0.  1.
         21    1    1    2  502  501 -0.24034954782E+02  0.60452928391E+01 -0.19563734819E+02  0.31574742072E+02  0.00000000000E+00 0.  1.
<scales pt_clust_5="13000.00000" pt_clust_6="13000.00000" pt_clust_7="13000.00000" pt_clust_8="13000.00000" pt_clust_9="24.78356"></scales>
<clustering>
<clus scale="   24.784">  1  9  2 -1</clus>
<clus scale="   81.790">  5  6 -1 -1</clus>
<clus scale="   91.500">  7  8 -1 -1</clus>
<clus scale="  135.715">  1  5  2 -1</clus>
<clus scale="  141.779">  2  5  1 -1</clus>
</clustering>
</event>
<event>
 9    1  0.6106093E-005  0.1096300E+03  0.7546771E-02  0.1261708E+00
          1   -1    0    0  502    0  0.00000000000E+00  0.00000000000E+00  0.80069660024E+02  0.80069660024E+02  0.00000000000E+00 0. -1.
         -2   -1    0    0    0  501 -0.00000000000E+00 -0.00000000000E+00 -0.30645555747E+03  0.30645555747E+03  0.00000000000E+00 0.  1.
         23    2    1    2    0    0 -0.53811255714E+02  0.58767352016E+02 -0.14430302725E+03  0.18790764759E+03  0.90203478001E+02 0.  0.
        -24    2    1    2    0    0  0.36866245454E+02 -0.43696774781E+02  0.76356561281E+01  0.10607747246E+03  0.89025831857E+02 0.  0.
         13    1    4    4    0    0  0.11126246670E+02 -0.58437061986E+02  0.32130024324E+02  0.67609333982E+02  0.00000000000E+00 0. -1.
        -14    1    4    4    0    0  0.25739998784E+02  0.14740287204E+02 -0.24494368196E+02  0.38468138473E+02  0.00000000000E+00 0.  1.
        -11    1    3    3    0    0 -0.43164083302E+02  0.17100824012E+02 -0.10826046184E+02  0.47673677698E+02  0.00000000000E+00 0. -1.
         11    1    3    3    0    0 -0.10647172411E+02  0.41666528004E+02 -0.13347698107E+03  0.14023396989E+03  0.00000000000E+00 0.  1.
         21    1    1    2  502  501  0.16945010260E+02 -0.15070577234E+02 -0.89718526319E+02  0.92540097449E+02  0.00000000000E+00 0. -1.
<scales pt_clust_5="13000.00000" pt_clust_6="13000.00000" pt_clust_7="13000.00000" pt_clust_8="13000.00000" pt_clust_9="22.67721"></scales>
<clustering>
<clus scale="   22.677">  2  9  1 -1</clus>
<clus scale="   89.026">  5  6 -1 -1</clus>
<clus scale="   90.203">  7  8 -1 -1</clus>
<clus scale="  108.663">  1  5  2 -1</clus>
<clus scale="  108.663">  1  5  2 -1</clus>
</clustering>
</event>
<event>
 9    1  0.6106093E-005  0.2906497E+03  0.7546771E-02  0.1090592E+00
          1   -1    0    0  502    0  0.00000000000E+00  0.00000000000E+00  0.28566243840E+03  0.28566243840E+03  0.00000000000E+00 0. -1.
         -2   -1    0    0    0  501 -0.00000000000E+00 -0.00000000000E+00 -0.74294632675E+03  0.74294632675E+03  0.00000000000E+00 0.  1.
        -24    2    1    2    0    0 -0.28018057651E+02 -0.25903020615E+03 -0.12892968442E+03  0.30149163227E+03  0.79954246608E+02 0.  0.
         23    2    1    2    0    0 -0.25739462189E+02  0.28302037903E+03  0.83606243651E+02  0.31097195423E+03  0.94607068873E+02 0.  0.
         13    1    3    3    0    0 -0.51270713933E+02 -0.15700438100E+03 -0.99379565489E+02  0.19275725615E+03  0.00000000000E+00 0. -1.
        -14    1    3    3    0    0  0.23252656282E+02 -0.10202582515E+03 -0.29550118928E+02  0.10873437612E+03  0.00000000000E+00 0.  1.
        -13    1    4    4    0    0 -0.36656305325E+02  0.58356287810E+02 -0.52819278259E+01  0.69116132766E+02  0.00000000000E+00 0.  1.
         13    1    4    4    0    0  0.10916843136E+02  0.22466409122E+03  0.88888171477E+02  0.24185582146E+03  0.00000000000E+00 0. -1.
         21    1    1    2  502  501  0.53757519840E+02 -0.23990172871E+02 -0.41196044759E+03  0.41614517865E+03  0.00000000000E+00 0.  1.
<scales pt_clust_5="13000.00000" pt_clust_6="13000.00000" pt_clust_7="13000.00000" pt_clust_8="13000.00000" pt_clust_9="58.86764"></scales>
<clustering>
<clus scale="   58.868">  2  9  1 -1</clus>
<clus scale="   79.954">  5  6 -1 -1</clus>
<clus scale="   94.607">  7  8 -1 -1</clus>
<clus scale="  286.216">  2  5  1 -1</clus>
<clus scale="  290.650">  1  5  2 -1</clus>
</clustering>
</event>
<event>
 9    1  0.6106093E-005  0.1601164E+03  0.7546771E-02  0.1190481E+00
          1   -1    0    0  502    0  0.00000000000E+00  0.00000000000E+00  0.13110594972E+04  0.13110594972E+04  0.00000000000E+00 0. -1.
         -2   -1    0    0    0  501 -0.00000000000E+00 -0.00000000000E+00 -0.27718220557E+02  0.27718220557E+02  0.00000000000E+00 0.  1.
         23    2    1    2    0    0  0.75005245329E+02 -0.12548732470E+03  0.46338546291E+03  0.49458491075E+03  0.92278335554E+02 0.  0.
        -24    2    1    2    0    0 -0.74845961895E+02  0.99314084934E+02  0.79273989587E+03  0.80643343684E+03  0.80206858005E+02 0.  0.
         11    1    4    4    0    0 -0.69883288159E+02  0.43081319498E+02  0.32115690734E+03  0.33148368465E+03  0.00000000000E+00 0. -1.
        -12    1    4    4    0    0 -0.49626737357E+01  0.56232765435E+02  0.47158298852E+03  0.47494975219E+03  0.00000000000E+00 0.  1.
        -13    1    3    3    0    0  0.60591472049E+02 -0.47560825855E+02  0.12326041004E+03  0.14534953500E+03  0.00000000000E+00 0.  1.
         13    1    3    3    0    0  0.14413773280E+02 -0.77926498843E+02  0.34012505287E+03  0.34923537575E+03  0.00000000000E+00 0. -1.
         21    1    1    2  502  501 -0.15928343422E+00  0.26173239764E+02  0.27215917871E+02  0.37759370181E+02  0.00000000000E+00 0.  1.
<scales pt_clust_5="13000.00000" pt_clust_6="13000.00000" pt_clust_7="13000.00000" pt_clust_8="13000.00000" pt_clust_9="26.17372"></scales>
<clustering>
<clus scale="   26.174">  2  9  1 -1</clus>
<clus scale="   80.207">  5  6 -1 -1</clus>
<clus scale="   92.278">  7  8 -1 -1</clus>
<clus scale="  153.477">  1  5  2 -1</clus>
<clus scale="  153.477">  1  5  2 -1</clus>
</clustering>
</event>
<event>
 9    1  0.6106093E-005  0.1414545E+03  0.7546771E-02  0.1213898E+00
         -2   -1    0    0    0  501 -0.00000000000E+00  0.00000000000E+00  0.11637667736E+03  0.11637667736E+03  0.00000000000E+00 0.  1.
          1   -1    0    0  502    0  0.00000000000E+00 -0.00000000000E+00 -0.52873933145E+03  0.52873933145E+03  0.00000000000E+00 0. -1.
         23    2    1    2    0    0  0.24606826859E+02  0.70388347217E+02  0.39276007836E+02  0.12454401333E+03  0.91698370286E+02 0.  0.
        -24    2    1    2    0    0 -0.22022578893E+02 -0.10966173838E+03 -0.46020496436E+03  0.48029223470E+03  0.79883231353E+02 0.  0.
         13    1    4    4    0    0 -0.52082129048E+02 -0.72619973165E+02 -0.28268013742E+03  0.29646967596E+03  0.00000000000E+00 0. -1.
        -14    1    4    4    0    0  0.30059550155E+02 -0.37041765210E+02 -0.17752482694E+03  0.18382255875E+03  0.00000000000E+00 0.  1.
        -11    1    3    3    0    0  0.13678020382E+02  0.92276436993E+02  0.35391739918E+02  0.99772763418E+02  0.00000000000E+00 0. -1.
         11    1    3    3    0    0  0.10928806476E+02 -0.21888089775E+02  0.38842679176E+01  0.24771249913E+02  0.00000000000E+00 0.  1.
         21    1    1    2  502  501 -0.25842479654E+01  0.39273391158E+02  0.85663024326E+01  0.40279760774E+02  0.00000000000E+00 0. -1.
<scales pt_clust_5="13000.00000" pt_clust_6="13000.00000" pt_clust_7="13000.00000" pt_clust_8="13000.00000" pt_clust_9="39.35832"></scales>
<clustering>
<clus scale="   39.358">  1  9  2 -1</clus>
<clus scale="   79.883">  5  6 -1 -1</clus>
<clus scale="   91.698">  7  8 -1 -1</clus>
<clus scale="  134.097">  2  5  1 -1</clus>
<clus scale="  134.097">  2  5  1 -1</clus>
</clustering>
</event>
<event>
 9    1  0.6106093E-005  0.1195056E+03  0.7546771E-02  0.1247038E+00
         -2   -1    0    0    0  501 -0.00000000000E+00  0.00000000000E+00  0.10260951543E+03  0.10260951543E+03  0.00000000000E+00 0.  1.
          1   -1    0    0  502    0  0.00000000000E+00 -0.00000000000E+00 -0.27682936435E+03  0.27682936435E+03  0.00000000000E+00 0. -1.
        -24    2    1    2    0    0  0.14020926596E+02  0.56593779314E+02  0.40140697961E+02  0.10744520312E+03  0.80831638611E+02 0.  0.
         23    2    1    2    0    0 -0.23324720879E+02 -0.78757655968E+02 -0.21563402918E+03  0.24792253681E+03  0.90668289601E+02 0.  0.
         11    1    3    3    0    0 -0.78000936746E+01  0.25063956281E+02 -0.22118178064E+02  0.34325750781E+02  0.00000000000E+00 0. -1.
        -12    1    3    3    0    0  0.21821020270E+02  0.31529823033E+02  0.62258876025E+02  0.73119452337E+02  0.00000000000E+00 0.  1.
        -13    1    4    4    0    0 -0.34052145903E+02 -0.33416819700E+02 -0.18754400006E+03  0.19351740086E+03  0.00000000000E+00 0. -1.
         13    1    4    4    0    0  0.10727425024E+02 -0.45340836268E+02 -0.28090029125E+02  0.54405135947E+02  0.00000000000E+00 0.  1.
         21    1    1    2  502  501  0.93037942830E+01  0.22163876654E+02  0.12734822984E+01  0.24071139848E+02  0.00000000000E+00 0.  1.
<scales pt_clust_5="13000.00000" pt_clust_6="13000.00000" pt_clust_7="13000.00000" pt_clust_8="13000.00000" pt_clust_9="24.03743"></scales>
<clustering>
<clus scale="   24.037">  1  9  2 -1</clus>
<clus scale="   80.832">  5  6 -1 -1</clus>
<clus scale="   90.668">  7  8 -1 -1</clus>
<clus scale="  112.226">  1  5  2 -1</clus>
<clus scale="  119.506">  2  5  1 -1</clus>
</clustering>
</event>
<event>
 9    1  0.6106093E-005  0.9416488E+02  0.7546771E-02  0.1299199E+00
          1   -1    0    0  502    0  0.00000000000E+00  0.00000000000E+00  0.66082979285E+02  0.66082979285E+02  0.00000000000E+00 0. -1.
         -2   -1    0    0    0  501 -0.00000000000E+00 -0.00000000000E+00 -0.21286278872E+03  0.21286278872E+03  0.00000000000E+00 0.  1.
        -24    2    1    2    0    0  0.27697219824E+02 -0.64650898219E+01 -0.59891234817E+02  0.10435203552E+03  0.80581970294E+02 0.  0.
         23    2    1    2    0    0 -0.18492678014E+02 -0.19016077228E+02 -0.12832370300E+02  0.95737313204E+02  0.91089917547E+02 0.  0.
         11    1    3    3    0    0  0.47748093154E+01  0.36270015112E+02 -0.20945479631E+02  0.42154785223E+02  0.00000000000E+00 0. -1.
        -12    1    3    3    0    0  0.22922410509E+02 -0.42735104934E+02 -0.38945755186E+02  0.62197250295E+02  0.00000000000E+00 0.  1.
        -13    1    4    4    0    0 -0.39597071146E+02  0.23588667968E+02  0.13858536408E+01  0.46111537495E+02  0.00000000000E+00 0. -1.
         13    1    4    4    0    0  0.21104393132E+02 -0.42604745196E+02 -0.14218223941E+02  0.49625775709E+02  0.00000000000E+00 0.  1.
         21    1    1    2  502  501 -0.92045418102E+01  0.25481167050E+02 -0.74056204317E+02  0.78856419282E+02  0.00000000000E+00 0.  1.
<scales pt_clust_5="13000.00000" pt_clust_6="13000.00000" pt_clust_7="13000.00000" pt_clust_8="13000.00000" pt_clust_9="27.09268"></scales>
<clustering>
<clus scale="   27.093">  2  9  1 -1</clus>
<clus scale="   80.582">  5  6 -1 -1</clus>
<clus scale="   84.042">  2  5  1 -1</clus>
<clus scale="   91.090">  7  8 -1 -1</clus>
<clus scale="   94.165">  1  5  2 -1</clus>
</clustering>
</event>
<event>
 9    1  0.6106093E-005  0.1268354E+03  0.7546771E-02  0.1237545E+00
         -2   -1    0    0    0  501 -0.00000000000E+00  0.00000000000E+00  0.20745732052E+03  0.20745732052E+03  0.00000000000E+00 0.  1.
          1   -1    0    0  502    0  0.00000000000E+00 -0.00000000000E+00 -0.10667425479E+03  0.10667425479E+03  0.00000000000E+00 0. -1.
        -24    2    1    2    0    0 -0.26632726026E+02  0.64666972019E+02  0.29566799337E+02  0.11037730823E+03  0.80111392339E+02 0.  0.
         23    2    1    2    0    0  0.35673710160E+02 -0.84250041848E+02  0.48998442641E+01  0.13401830892E+03  0.97807031975E+02 0.  0.
         13    1    3    3    0    0 -0.81813544943E+01  0.54348556244E+02 -0.18399452987E+02  0.57958950969E+02  0.00000000000E+00 0. -1.
        -14    1    3    3    0    0 -0.18451371532E+02  0.10318415775E+02  0.47966252324E+02  0.52418357257E+02  0.00000000000E+00 0.  1.
        -13    1    4    4    0    0 -0.75591272249E+01 -0.73706097198E+02 -0.27437317807E+02  0.79009718245E+02  0.00000000000E+00 0. -1.
         13    1    4    4    0    0  0.43232837385E+02 -0.10543944649E+02  0.32337162071E+02  0.55008590674E+02  0.00000000000E+00 0.  1.
         21    1    1    2  502  501 -0.90409841337E+01  0.19583069828E+02  0.66316422127E+02  0.69735958169E+02  0.00000000000E+00 0.  1.
<scales pt_clust_5="13000.00000" pt_clust_6="13000.00000" pt_clust_7="13000.00000" pt_clust_8="13000.00000" pt_clust_9="21.56933"></scales>
<clustering>
<clus scale="   21.569">  1  9  2 -1</clus>
<clus scale="   80.111">  5  6 -1 -1</clus>
<clus scale="   97.807">  7  8 -1 -1</clus>
<clus scale="  113.749">  1  5  2 -1</clus>
<clus scale="  126.835">  2  5  1 -1</clus>
</clustering>
</event>
<event>
 9    1  0.6106093E-005  0.1195572E+03  0.7546771E-02  0.1247721E+00
         -2   -1    0    0    0  501 -0.00000000000E+00  0.00000000000E+00  0.56215738713E+02  0.56215738713E+02  0.00000000000E+00 0.  1.
          1   -1    0    0  502    0  0.00000000000E+00 -0.00000000000E+00 -0.44722939521E+03  0.44722939521E+03  0.00000000000E+00 0. -1.
        -24    2    1    2    0    0 -0.42901676141E+02  0.95353606610E+01 -0.46184623976E+02  0.10136100220E+03  0.78800738302E+02 0.  0.
         23    2    1    2    0    0  0.91271464538E+02 -0.17086086646E+02 -0.32356599168E+03  0.34871029170E+03  0.91002758051E+02 0.  0.
         13    1    3    3    0    0 -0.38839944181E+01  0.31021836767E+02 -0.47422880613E+02  0.56801138850E+02  0.00000000000E+00 0. -1.
        -14    1    3    3    0    0 -0.39017681723E+02 -0.21486476106E+02  0.12382566364E+01  0.44559863352E+02  0.00000000000E+00 0.  1.
        -11    1    4    4    0    0  0.97150043896E+02 -0.40732688072E+02 -0.25297094612E+03  0.27402843372E+03  0.00000000000E+00 0.  1.
         11    1    4    4    0    0 -0.58785793579E+01  0.23646601426E+02 -0.70595045556E+02  0.74681857980E+02  0.00000000000E+00 0. -1.
         21    1    1    2  502  501 -0.48369788397E+02  0.75507259849E+01 -0.21263040844E+02  0.53373840019E+02  0.00000000000E+00 0.  1.
<scales pt_clust_5="13000.00000" pt_clust_6="13000.00000" pt_clust_7="13000.00000" pt_clust_8="13000.00000" pt_clust_9="48.95559"></scales>
<clustering>
<clus scale="   48.956">  1  9  2 -1</clus>
<clus scale="   78.801">  5  6 -1 -1</clus>
<clus scale="   91.003">  7  8 -1 -1</clus>
<clus scale="  110.553">  1  5  2 -1</clus>
<clus scale="  119.557">  2  5  1 -1</clus>
</clustering>
</event>
<event>
 9    1  0.6106093E-005  0.1045856E+03  0.7546771E-02  0.1275870E+00
          3   -1    0    0  502    0  0.00000000000E+00  0.00000000000E+00  0.48063670917E+03  0.48063670917E+03  0.00000000000E+00 0. -1.
         -4   -1    0    0    0  501 -0.00000000000E+00 -0.00000000000E+00 -0.37779019136E+02  0.37779019136E+02  0.00000000000E+00 0.  1.
         23    2    1    2    0    0  0.26469532421E+02  0.36923814986E+02  0.18003172752E+03  0.20718706975E+03  0.91929618175E+02 0.  0.
        -24    2    1    2    0    0 -0.58902606166E+02 -0.94258662980E+01  0.24550563084E+03  0.26531531252E+03  0.80998989602E+02 0.  0.
         11    1    4    4    0    0 -0.62749051595E+02 -0.36362536021E+02  0.16211513213E+03  0.17759784224E+03  0.00000000000E+00 0. -1.
        -12    1    4    4    0    0  0.38464454289E+01  0.26936669723E+02  0.83390498704E+02  0.87717470280E+02  0.00000000000E+00 0.  1.
        -11    1    3    3    0    0 -0.34911136988E+01  0.29166408913E+02  0.54406816605E+01  0.29874207950E+02  0.00000000000E+00 0.  1.
         11    1    3    3    0    0  0.29960646120E+02  0.77574060728E+01  0.17459104586E+03  0.17731286180E+03  0.00000000000E+00 0. -1.
         21    1    1    2  502  501  0.32433073744E+02 -0.27497948688E+02  0.17320331669E+02  0.45913346030E+02  0.00000000000E+00 0. -1.
<scales pt_clust_5="13000.00000" pt_clust_6="13000.00000" pt_clust_7="13000.00000" pt_clust_8="13000.00000" pt_clust_9="42.52107"></scales>
<clustering>
<clus scale="   42.521">  2  9  1 -1</clus>
<clus scale="   80.999">  5  6 -1 -1</clus>
<clus scale="   91.930">  7  8 -1 -1</clus>
<clus scale="   95.121">  1  5  2 -1</clus>
<clus scale="   95.121">  1  5  2 -1</clus>
</clustering>
</event>
<event>
 9    1  0.6106093E-005  0.1030255E+03  0.7546771E-02  0.1284422E+00
         -2   -1    0    0    0  501 -0.00000000000E+00  0.00000000000E+00  0.46206065252E+02  0.46206065252E+02  0.00000000000E+00 0.  1.
          1   -1    0    0  502    0  0.00000000000E+00 -0.00000000000E+00 -0.33575411012E+03  0.33575411012E+03  0.00000000000E+00 0. -1.
         23    2    1    2    0    0  0.16568850108E+02 -0.40917873574E+02 -0.13182298192E+03  0.16995943884E+03  0.97775830931E+02 0.  0.
        -24    2    1    2    0    0 -0.18494679042E+02  0.20188368420E+02 -0.16911268460E+03  0.18827102672E+03  0.78084928369E+02 0.  0.
         11    1    4    4    0    0  0.15089586007E+02 -0.18071707407E+02 -0.98160360113E+02  0.10094423466E+03  0.00000000000E+00 0. -1.
        -12    1    4    4    0    0 -0.33584265049E+02  0.38260075827E+02 -0.70952324486E+02  0.87326792058E+02  0.00000000000E+00 0.  1.
        -11    1    3    3    0    0 -0.21996059280E+02 -0.56213750532E+02 -0.50649745081E+02  0.78798534564E+02  0.00000000000E+00 0.  1.
         11    1    3    3    0    0  0.38564909388E+02  0.15295876958E+02 -0.81173236843E+02  0.91160904271E+02  0.00000000000E+00 0. -1.
         21    1    1    2  502  501  0.19258289339E+01  0.20729505155E+02  0.11387621652E+02  0.23729709816E+02  0.00000000000E+00 0.  1.
<scales pt_clust_5="13000.00000" pt_clust_6="13000.00000" pt_clust_7="13000.00000" pt_clust_8="13000.00000" pt_clust_9="20.81877"></scales>
<clustering>
<clus scale="   20.819">  1  9  2 -1</clus>
<clus scale="   78.085">  5  6 -1 -1</clus>
<clus scale="   84.566">  2  5  1 -1</clus>
<clus scale="   97.776">  7  8 -1 -1</clus>
<clus scale="   84.566">  2  5  1 -1</clus>
</clustering>
</event>
<event>
 9    1  0.6106093E-005  0.1304990E+03  0.7546771E-02  0.1230150E+00
         -2   -1    0    0    0  501 -0.00000000000E+00  0.00000000000E+00  0.31223992393E+03  0.31223992393E+03  0.00000000000E+00 0.  1.
          1   -1    0    0  502    0  0.00000000000E+00 -0.00000000000E+00 -0.18789057109E+03  0.18789057109E+03  0.00000000000E+00 0. -1.
         23    2    1    2    0    0 -0.38483932852E+02 -0.55009893801E+02  0.89726073559E+02  0.14372624299E+03  0.89996461847E+02 0.  0.
        -24    2    1    2    0    0  0.19713755846E+02  0.99692818443E+02 -0.13175448584E+03  0.18311130922E+03  0.76440936716E+02 0.  0.
         11    1    4    4    0    0  0.27745230480E+02  0.32715473734E+02 -0.99472510949E+02  0.10832765331E+03  0.00000000000E+00 0. -1.
        -12    1    4    4    0    0 -0.80314746336E+01  0.66977344708E+02 -0.32281974893E+02  0.74783655915E+02  0.00000000000E+00 0.  1.
        -13    1    3    3    0    0 -0.38015761526E+02 -0.15806853065E+02  0.95594683965E+02  0.10408361221E+03  0.00000000000E+00 0.  1.
         13    1    3    3    0    0 -0.46817132651E+00 -0.39203040736E+02 -0.58686104064E+01  0.39642630784E+02  0.00000000000E+00 0. -1.
         21    1    1    2  502  501  0.18770177006E+02 -0.44682924642E+02  0.16637776512E+03  0.17329294280E+03  0.00000000000E+00 0.  1.
<scales pt_clust_5="13000.00000" pt_clust_6="13000.00000" pt_clust_7="13000.00000" pt_clust_8="13000.00000" pt_clust_9="48.46528"></scales>
<clustering>
<clus scale="   48.465">  1  9  2 -1</clus>
<clus scale="   76.441">  5  6 -1 -1</clus>
<clus scale="   89.996">  7  8 -1 -1</clus>
<clus scale="  121.548">  2  5  1 -1</clus>
<clus scale="  121.548">  2  5  1 -1</clus>
</clustering>
</event>
<event>
 9    1  0.6106093E-005  0.1225656E+03  0.7546771E-02  0.1243764E+00
         -2   -1    0    0    0  501 -0.00000000000E+00  0.00000000000E+00  0.20910297848E+03  0.20910297848E+03  0.00000000000E+00 0.  1.
          1   -1    0    0  502    0  0.00000000000E+00 -0.00000000000E+00 -0.26509806101E+03  0.26509806101E+03  0.00000000000E+00 0. -1.
        -24    2    1    2    0    0  0.25986971502E+02  0.42378002856E+01  0.51246557740E+02  0.99577112366E+02  0.81216439148E+02 0.  0.
         23    2    1    2    0    0 -0.85704236713E+02  0.21814006089E+02 -0.21328377541E+03  0.25016597114E+03  0.96291106594E+02 0.  0.
         13    1    3    3    0    0  0.37398425658E+02  0.33158823216E+02  0.46231070387E+02  0.68084224809E+02  0.00000000000E+00 0. -1.
        -14    1    3    3    0    0 -0.11411454156E+02 -0.28921022931E+02  0.50154873530E+01  0.31492887557E+02  0.00000000000E+00 0.  1.
        -13    1    4    4    0    0 -0.67477596684E+02  0.52393580929E+02 -0.18800392284E+03  0.20650372486E+03  0.00000000000E+00 0. -1.
         13    1    4    4    0    0 -0.18226640029E+02 -0.30579574840E+02 -0.25279852571E+02  0.43662246279E+02  0.00000000000E+00 0.  1.
         21    1    1    2  502  501  0.59717265211E+02 -0.26051806374E+02  0.10604213515E+03  0.12445795598E+03  0.00000000000E+00 0.  1.
<scales pt_clust_5="13000.00000" pt_clust_6="13000.00000" pt_clust_7="13000.00000" pt_clust_8="13000.00000" pt_clust_9="65.15250"></scales>
<clustering>
<clus scale="   65.153">  1  9  2 -1</clus>
<clus scale="   81.216">  5  6 -1 -1</clus>
<clus scale="   96.291">  7  8 -1 -1</clus>
<clus scale="  111.115">  1  5  2 -1</clus>
<clus scale="  122.566">  2  5  1 -1</clus>
</clustering>
</event>
<event>
 9    1  0.6106093E-005  0.1751054E+03  0.7546771E-02  0.1174865E+00
          1   -1    0    0  502    0  0.00000000000E+00  0.00000000000E+00  0.85131571899E+03  0.85131571899E+03  0.00000000000E+00 0. -1.
         -2   -1    0    0    0  501 -0.00000000000E+00 -0.00000000000E+00 -0.50846115204E+02  0.50846115204E+02  0.00000000000E+00 0.  1.
        -24    2    1    2    0    0  0.10531360144E+02  0.15782343223E+03  0.42090685726E+03  0.45689895407E+03  0.81085920075E+02 0.  0.
         23    2    1    2    0    0 -0.33986803207E+02 -0.12966403179E+03  0.37275168484E+03  0.40798687975E+03  0.97681173028E+02 0.  0.
         11    1    3    3    0    0 -0.33394386543E+02  0.42256111317E+02  0.13920507436E+03  0.14926090152E+03  0.00000000000E+00 0. -1.
        -12    1    3    3    0    0  0.43925746688E+02  0.11556732092E+03  0.28170178290E+03  0.30763805255E+03  0.00000000000E+00 0.  1.
        -13    1    4    4    0    0 -0.46594414651E+02 -0.14965529240E+02  0.87053048622E+02  0.99866109449E+02  0.00000000000E+00 0.  1.
         13    1    4    4    0    0  0.12607611443E+02 -0.11469850255E+03  0.28569863622E+03  0.30812077030E+03  0.00000000000E+00 0. -1.
         21    1    1    2  502  501  0.23455443063E+02 -0.28159400438E+02  0.68110616831E+01  0.37276000370E+02  0.00000000000E+00 0. -1.
<scales pt_clust_5="13000.00000" pt_clust_6="13000.00000" pt_clust_7="13000.00000" pt_clust_8="13000.00000" pt_clust_9="36.64846"></scales>
<clustering>
<clus scale="   36.648">  2  9  1 -1</clus>
<clus scale="   81.086">  5  6 -1 -1</clus>
<clus scale="   97.681">  7  8 -1 -1</clus>
<clus scale="  166.419">  2  5  1 -1</clus>
<clus scale="  175.105">  1  5  2 -1</clus>
</clustering>
</event>
<event>
 9    1  0.6106093E-005  0.1553006E+03  0.7546771E-02  0.1194857E+00
         -2   -1    0    0    0  501 -0.00000000000E+00  0.00000000000E+00  0.23855614387E+03  0.23855614387E+03  0.00000000000E+00 0.  1.
          1   -1    0    0  502    0  0.00000000000E+00 -0.00000000000E+00 -0.76597733877E+03  0.76597733877E+03  0.00000000000E+00 0. -1.
        -24    2    1    2    0    0  0.17496005969E+03  0.77236839894E+01  0.57811840620E+02  0.20212149734E+03  0.82705580172E+02 0.  0.
         23    2    1    2    0    0 -0.10094870722E+03 -0.77450637110E+02 -0.65897760745E+03  0.67680231141E+03  0.87296270970E+02 0.  0.
         13    1    3    3    0    0  0.65327307950E+02  0.15694605953E+02 -0.16817661548E+02  0.69259017896E+02  0.00000000000E+00 0. -1.
        -14    1    3    3    0    0  0.10963275174E+03 -0.79709219641E+01  0.74629502168E+02  0.13286247945E+03  0.00000000000E+00 0.  1.
        -11    1    4    4    0    0  0.37837715154E+01 -0.42567956474E+02 -0.22367253619E+03  0.22771857915E+03  0.00000000000E+00 0.  1.
         11    1    4    4    0    0 -0.10473247873E+03 -0.34882680636E+02 -0.43530507126E+03  0.44908373225E+03  0.00000000000E+00 0. -1.
         21    1    1    2  502  501 -0.74011352470E+02  0.69726953120E+02  0.73744571927E+02  0.12560967389E+03  0.00000000000E+00 0.  1.
<scales pt_clust_5="13000.00000" pt_clust_6="13000.00000" pt_clust_7="13000.00000" pt_clust_8="13000.00000" pt_clust_9="101.68347"></scales>
<clustering>
<clus scale="   82.706">  5  6 -1 -1</clus>
<clus scale="   87.296">  7  8 -1 -1</clus>
<clus scale="  101.683">  1  9  2 -1</clus>
<clus scale="  152.767">  1  5  2 -1</clus>
<clus scale="  155.301">  2  5  1 -1</clus>
</clustering>
</event>
<event>
 9    1  0.6106093E-005  0.1126368E+03  0.7546771E-02  0.1258759E+00
          1   -1    0    0  502    0  0.00000000000E+00  0.00000000000E+00  0.13887418068E+03  0.13887418068E+03  0.00000000000E+00 0. -1.
         -2   -1    0    0    0  501 -0.00000000000E+00 -0.00000000000E+00 -0.15615555838E+03  0.15615555838E+03  0.00000000000E+00 0.  1.
        -24    2    1    2    0    0 -0.41425412737E+02  0.51675832520E+02 -0.86522303971E+02  0.13596038978E+03  0.81318276045E+02 0.  0.
         23    2    1    2    0    0  0.32200684959E+02 -0.71692320247E+02  0.67475303299E+02  0.13695888098E+03  0.89599919809E+02 0.  0.
         11    1    3    3    0    0  0.12983625447E+02  0.16771964650E+02  0.69440881449E+01  0.22318012639E+02  0.00000000000E+00 0. -1.
        -12    1    3    3    0    0 -0.54409038183E+02  0.34903867870E+02 -0.93466392116E+02  0.11364237715E+03  0.00000000000E+00 0.  1.
        -11    1    4    4    0    0  0.36659159549E+02 -0.12305499773E+02  0.67052008395E+02  0.77403431017E+02  0.00000000000E+00 0. -1.
         11    1    4    4    0    0 -0.44584745898E+01 -0.59386820475E+02  0.42329490456E+00  0.59555449963E+02  0.00000000000E+00 0.  1.
         21    1    1    2  502  501  0.92247277775E+01  0.20016487727E+02  0.17656229693E+01  0.22110468289E+02  0.00000000000E+00 0. -1.
<scales pt_clust_5="13000.00000" pt_clust_6="13000.00000" pt_clust_7="13000.00000" pt_clust_8="13000.00000" pt_clust_9="22.03986"></scales>
<clustering>
<clus scale="   22.040">  1  9  2 -1</clus>
<clus scale="   81.318">  5  6 -1 -1</clus>
<clus scale="   89.600">  7  8 -1 -1</clus>
<clus scale="  106.168">  2  5  1 -1</clus>
<clus scale="   22.040">  1  5  2 -1</clus>
</clustering>
</event>
<event>
 9    1  0.6106093E-005  0.9442433E+02  0.7546771E-02  0.1299564E+00
         -2   -1    0    0    0  501 -0.00000000000E+00  0.00000000000E+00  0.12855247230E+03  0.12855247230E+03  0.00000000000E+00 0.  1.
          1   -1    0    0  502    0  0.00000000000E+00 -0.00000000000E+00 -0.14775700827E+03  0.14775700827E+03  0.00000000000E+00 0. -1.
         23    2    1    2    0    0 -0.12960844338E+02 -0.87318575266E+01  0.69813259276E+02  0.11795349513E+03  0.93781165602E+02 0.  0.
        -24    2    1    2    0    0  0.58522372644E+01 -0.11344924972E+02 -0.10342718295E+03  0.13264139922E+03  0.82058531618E+02 0.  0.
         11    1    4    4    0    0 -0.35227854411E+02 -0.20231433899E+02 -0.57270906795E+02  0.70215877187E+02  0.00000000000E+00 0. -1.
        -12    1    4    4    0    0  0.41080091676E+02  0.88865089267E+01 -0.46156276152E+02  0.62425522034E+02  0.00000000000E+00 0.  1.
        -11    1    3    3    0    0 -0.16201703173E+02 -0.45847370990E+02  0.63794768936E+02  0.80213771610E+02  0.00000000000E+00 0. -1.
         11    1    3    3    0    0  0.32408588345E+01  0.37115513463E+02  0.60184903406E+01  0.37739723523E+02  0.00000000000E+00 0.  1.
         21    1    1    2  502  501  0.71086070741E+01  0.20076782499E+02  0.14409387706E+02  0.25714586213E+02  0.00000000000E+00 0.  1.
<scales pt_clust_5="13000.00000" pt_clust_6="13000.00000" pt_clust_7="13000.00000" pt_clust_8="13000.00000" pt_clust_9="21.29811"></scales>
<clustering>
<clus scale="   21.298">  1  9  2 -1</clus>
<clus scale="   82.059">  5  6 -1 -1</clus>
<clus scale="   82.793">  2  5  1 -1</clus>
<clus scale="   93.781">  7  8 -1 -1</clus>
<clus scale="   82.793">  2  5  1 -1</clus>
</clustering>
</event>
<event>
 9    1  0.6106093E-005  0.1217917E+03  0.7546771E-02  0.1243304E+00
         -2   -1    0    0    0  501 -0.00000000000E+00  0.00000000000E+00  0.25987840904E+03  0.25987840904E+03  0.00000000000E+00 0.  1.
          1   -1    0    0  502    0  0.00000000000E+00 -0.00000000000E+00 -0.27906364314E+03  0.27906364314E+03  0.00000000000E+00 0. -1.
         23    2    1    2    0    0 -0.38119864586E+01 -0.46100254365E+02  0.20854915845E+03  0.23237333734E+03  0.91459563310E+02 0.  0.
        -24    2    1    2    0    0  0.48636750915E+01  0.82321853205E+02 -0.24149987507E+03  0.26780534579E+03  0.81221737997E+02 0.  0.
         13    1    4    4    0    0  0.28159273456E+02  0.61149094118E+02 -0.21899367602E+03  0.22910780548E+03  0.00000000000E+00 0. -1.
        -14    1    4    4    0    0 -0.23295598364E+02  0.21172759087E+02 -0.22506199049E+02  0.38697540311E+02  0.00000000000E+00 0.  1.
        -11    1    3    3    0    0  0.20022232563E+02 -0.39675706900E+02  0.20200478557E+03  0.20683564710E+03  0.00000000000E+00 0.  1.
         11    1    3    3    0    0 -0.23834219022E+02 -0.64245474648E+01  0.65443728793E+01  0.25537690242E+02  0.00000000000E+00 0. -1.
         21    1    1    2  502  501 -0.10516886329E+01 -0.36221598841E+02  0.13765482519E+02  0.38763369055E+02  0.00000000000E+00 0. -1.
<scales pt_clust_5="13000.00000" pt_clust_6="13000.00000" pt_clust_7="13000.00000" pt_clust_8="13000.00000" pt_clust_9="36.23686"></scales>
<clustering>
<clus scale="   36.237">  1  9  2 -1</clus>
<clus scale="   81.222">  5  6 -1 -1</clus>
<clus scale="   91.460">  7  8 -1 -1</clus>
<clus scale="  114.304">  2  5  1 -1</clus>
<clus scale="  114.304">  2  5  1 -1</clus>
</clustering>
</event>
<event>
 9    1  0.6106093E-005  0.1059688E+03  0.7546771E-02  0.1270991E+00
          1   -1    0    0  502    0  0.00000000000E+00  0.00000000000E+00  0.73007954849E+03  0.73007954849E+03  0.00000000000E+00 0. -1.
         -2   -1    0    0    0  501 -0.00000000000E+00 -0.00000000000E+00 -0.24142455415E+03  0.24142455415E+03  0.00000000000E+00 0.  1.
         23    2    1    2    0    0  0.54762710075E+02 -0.64942416409E+02 -0.92724678480E+02  0.15380869444E+03  0.88559452478E+02 0.  0.
        -24    2    1    2    0    0 -0.46729397195E+02  0.33485991571E+02  0.69364959299E+03  0.70082549866E+03  0.81863749736E+02 0.  0.
         13    1    4    4    0    0 -0.26438622069E+02  0.27042514253E+02  0.10187955901E+03  0.10867264080E+03  0.00000000000E+00 0. -1.
        -14    1    4    4    0    0 -0.20290775126E+02  0.64434773178E+01  0.59177003398E+03  0.59215285786E+03  0.00000000000E+00 0.  1.
        -11    1    3    3    0    0  0.65212008128E+02 -0.10353508932E+02 -0.60544820353E+02  0.89585023430E+02  0.00000000000E+00 0.  1.
         11    1    3    3    0    0 -0.10449298054E+02 -0.54588907476E+02 -0.32179858127E+02  0.64223671013E+02  0.00000000000E+00 0. -1.
         21    1    1    2  502  501 -0.80333128799E+01  0.31456424838E+02 -0.11226992017E+03  0.11686990954E+03  0.00000000000E+00 0. -1.
<scales pt_clust_5="13000.00000" pt_clust_6="13000.00000" pt_clust_7="13000.00000" pt_clust_8="13000.00000" pt_clust_9="32.46599"></scales>
<clustering>
<clus scale="   32.466">  2  9  1 -1</clus>
<clus scale="   81.864">  5  6 -1 -1</clus>
<clus scale="   88.559">  7  8 -1 -1</clus>
<clus scale="  100.440">  1  5  2 -1</clus>
<clus scale="  100.440">  1  5  2 -1</clus>
</clustering>
</event>
<event>
 9    1  0.6106093E-005  0.1497324E+03  0.7546771E-02  0.1207061E+00
         -2   -1    0    0    0  501 -0.00000000000E+00  0.00000000000E+00  0.47773339222E+03  0.47773339222E+03  0.00000000000E+00 0.  1.
          1   -1    0    0  502    0  0.00000000000E+00 -0.00000000000E+00 -0.10727095315E+03  0.10727095315E+03  0.00000000000E+00 0. -1.
        -24    2    1    2    0    0 -0.12666890061E+03 -0.22827502458E+02  0.28364236718E+03  0.32150624701E+03  0.79669122983E+02 0.  0.
         23    2    1    2    0    0  0.92978094547E+02  0.33701574218E+02 -0.22921430855E+02  0.14818759029E+03  0.10795113594E+03 0.  0.
         13    1    3    3    0    0 -0.85044549572E+02 -0.52777206124E+02  0.18677683915E+03  0.21190468740E+03  0.00000000000E+00 0. -1.
        -14    1    3    3    0    0 -0.41624351037E+02  0.29949703666E+02  0.96865528028E+02  0.10960155961E+03  0.00000000000E+00 0.  1.
        -11    1    4    4    0    0  0.81704737663E+02  0.11815323923E+02  0.31576076433E+02  0.88387299081E+02  0.00000000000E+00 0.  1.
         11    1    4    4    0    0  0.11273356884E+02  0.21886250295E+02 -0.54497507289E+02  0.59800291204E+02  0.00000000000E+00 0. -1.
         21    1    1    2  502  501  0.33690806062E+02 -0.10874071760E+02  0.10974150274E+03  0.11531050808E+03  0.00000000000E+00 0. -1.
<scales pt_clust_5="13000.00000" pt_clust_6="13000.00000" pt_clust_7="13000.00000" pt_clust_8="13000.00000" pt_clust_9="35.40220"></scales>
<clustering>
<clus scale="   35.402">  1  9  2 -1</clus>
<clus scale="   79.669">  5  6 -1 -1</clus>
<clus scale="  107.951">  7  8 -1 -1</clus>
<clus scale="  130.819">  1  5  2 -1</clus>
<clus scale="  149.732">  2  5  1 -1</clus>
</clustering>
</event>
<event>
 9    1  0.6106093E-005  0.1545986E+03  0.7546771E-02  0.1196618E+00
         -4   -1    0    0    0  501 -0.00000000000E+00  0.00000000000E+00  0.71780054181E+03  0.71780054181E+03  0.00000000000E+00 0.  1.
          3   -1    0    0  502    0  0.00000000000E+00 -0.00000000000E+00 -0.17186012319E+03  0.17186012319E+03  0.00000000000E+00 0. -1.
         23    2    1    2    0    0  0.31667679472E+02 -0.13562155444E+03  0.60503796298E+03  0.62758610616E+03  0.91636979690E+02 0.  0.
        -24    2    1    2    0    0  0.99571154199E+01  0.12361438208E+03 -0.11744651024E+03  0.18940133435E+03  0.81850614440E+02 0.  0.
         13    1    4    4    0    0 -0.43187715055E+01  0.46950854142E+02 -0.98422375890E+02  0.10913293988E+03  0.00000000000E+00 0. -1.
        -14    1    4    4    0    0  0.14275886925E+02  0.76663527936E+02 -0.19024134348E+02  0.80268394470E+02  0.00000000000E+00 0.  1.
        -13    1    3    3    0    0  0.46242829504E+02 -0.11286236521E+03  0.57220925011E+03  0.58506387572E+03  0.00000000000E+00 0.  1.
         13    1    3    3    0    0 -0.14575150032E+02 -0.22759189233E+02  0.32828712872E+02  0.42522230442E+02  0.00000000000E+00 0. -1.
         21    1    1    2  502  501 -0.41624794892E+02  0.12007172361E+02  0.58348965880E+02  0.72673224486E+02  0.00000000000E+00 0. -1.
<scales pt_clust_5="13000.00000" pt_clust_6="13000.00000" pt_clust_7="13000.00000" pt_clust_8="13000.00000" pt_clust_9="43.32200"></scales>
<clustering>
<clus scale="   43.322">  1  9  2 -1</clus>
<clus scale="   81.851">  5  6 -1 -1</clus>
<clus scale="   91.637">  7  8 -1 -1</clus>
<clus scale="  149.006">  2  5  1 -1</clus>
<clus scale="  149.006">  2  5  1 -1</clus>
</clustering>
</event>
<event>
 9    1  0.6106093E-005  0.2229326E+03  0.7546771E-02  0.1162659E+00
          1   -1    0    0  502    0  0.00000000000E+00  0.00000000000E+00  0.98943236338E+03  0.98943236338E+03  0.00000000000E+00 0. -1.
         -2   -1    0    0    0  501 -0.00000000000E+00 -0.00000000000E+00 -0.13007964581E+03  0.13007964581E+03  0.00000000000E+00 0.  1.
         23    2    1    2    0    0 -0.12546947772E+03 -0.84084177989E+02  0.66765780780E+03  0.69055448211E+03  0.91026400697E+02 0.  0.
        -24    2    1    2    0    0 -0.83327047773E+02  0.39575160123E+02  0.18714881699E+03  0.21542132713E+03  0.53591774506E+02 0.  0.
         13    1    4    4    0    0 -0.63108147220E+02  0.12696545332E+02  0.15908935796E+03  0.17161953364E+03  0.00000000000E+00 0. -1.
        -14    1    4    4    0    0 -0.20218900553E+02  0.26878614792E+02  0.28059459024E+02  0.43801793495E+02  0.00000000000E+00 0.  1.
        -11    1    3    3    0    0 -0.41356666682E+02 -0.55227936849E+02  0.14736778424E+03  0.16271989036E+03  0.00000000000E+00 0.  1.
         11    1    3    3    0    0 -0.84112811034E+02 -0.28856241140E+02  0.52029002356E+03  0.52783459175E+03  0.00000000000E+00 0. -1.
         21    1    1    2  502  501  0.20879652549E+03  0.44509017866E+02  0.45460927834E+01  0.21353619995E+03  0.00000000000E+00 0.  1.
<scales pt_clust_5="13000.00000" pt_clust_6="13000.00000" pt_clust_7="13000.00000" pt_clust_8="13000.00000" pt_clust_9="203.50219"></scales>
<clustering>
<clus scale="   53.592">  5  6 -1 -1</clus>
<clus scale="   91.026">  7  8 -1 -1</clus>
<clus scale="  106.685">  1  5  2 -1</clus>
<clus scale="  203.502">  2  9  1 -1</clus>
<clus scale="  106.685">  1  5  2 -1</clus>
</clustering>
</event>
<event>
 9    1  0.6106093E-005  0.1121827E+03  0.7546771E-02  0.1260834E+00
         -2   -1    0    0    0  501 -0.00000000000E+00  0.00000000000E+00  0.74769201587E+02  0.74769201587E+02  0.00000000000E+00 0.  1.
          1   -1    0    0  502    0  0.00000000000E+00 -0.00000000000E+00 -0.36749636045E+03  0.36749636045E+03  0.00000000000E+00 0. -1.
         23    2    1    2    0    0  0.69848933990E+02  0.16213948458E+02  0.94142687799E+01  0.11607586301E+03  0.90792135186E+02 0.  0.
        -24    2    1    2    0    0 -0.38148241609E+02 -0.69502670803E+01 -0.24124988304E+03  0.25691827712E+03  0.79384510449E+02 0.  0.
         13    1    4    4    0    0  0.22874032823E+02  0.92590418464E+01 -0.81117773363E+02  0.84788232608E+02  0.00000000000E+00 0. -1.
        -14    1    4    4    0    0 -0.61022274432E+02 -0.16209308927E+02 -0.16013210968E+03  0.17213004451E+03  0.00000000000E+00 0.  1.
        -11    1    3    3    0    0  0.88380709823E+02  0.31285463118E+01  0.20567784472E+02  0.90796318367E+02  0.00000000000E+00 0.  1.
         11    1    3    3    0    0 -0.18531775833E+02  0.13085402146E+02 -0.11153515692E+02  0.25279544639E+02  0.00000000000E+00 0. -1.
         21    1    1    2  502  501 -0.31700692381E+02 -0.92636813773E+01 -0.60891544602E+02  0.69271421915E+02  0.00000000000E+00 0.  1.
<scales pt_clust_5="13000.00000" pt_clust_6="13000.00000" pt_clust_7="13000.00000" pt_clust_8="13000.00000" pt_clust_9="33.02650"></scales>
<clustering>
<clus scale="   33.026">  2  9  1 -1</clus>
<clus scale="   79.385">  5  6 -1 -1</clus>
<clus scale="   90.792">  7  8 -1 -1</clus>
<clus scale="  103.168">  2  5  1 -1</clus>
<clus scale="   33.026">  2  5  1 -1</clus>
</clustering>
</event>
<event>
 9    1  0.9285681E-005  0.1050252E+03  0.7546771E-02  0.1282629E+00
          1   -1    0    0  502    0  0.00000000000E+00  0.00000000000E+00  0.38884348195E+03  0.38884348195E+03  0.00000000000E+00 0. -1.
         -2   -1    0    0    0  501 -0.00000000000E+00 -0.00000000000E+00 -0.13132081015E+03  0.13132081015E+03  0.00000000000E+00 0.  1.
        -24    2    1    2    0    0  0.12991452109E+02 -0.19391582814E+02 -0.91867911984E+02  0.12251024818E+03  0.77615954184E+02 0.  0.
         23    2    1    2    0    0 -0.28636711934E+02 -0.77161194824E+01  0.35082446092E+03  0.36632262707E+03  0.10116750935E+03 0.  0.
         13    1    3    3    0    0 -0.75226917914E+01 -0.19120014735E+02  0.68689635647E+01  0.21664452813E+02  0.00000000000E+00 0. -1.
        -14    1    3    3    0    0  0.20514143901E+02 -0.27156807913E+00 -0.98736875549E+02  0.10084579536E+03  0.00000000000E+00 0.  1.
        -11    1    4    4    0    0  0.37884466282E+02 -0.85965706617E+01  0.12390545707E+03  0.12985259375E+03  0.00000000000E+00 0.  1.
         11    1    4    4    0    0 -0.66521178216E+02  0.88045117924E+00  0.22691900386E+03  0.23647003332E+03  0.00000000000E+00 0. -1.
         21    1    1    2  502  501  0.15645259825E+02  0.27107702296E+02 -0.14338771335E+01  0.31331416859E+02  0.00000000000E+00 0. -1.
<scales pt_clust_5="13000.00000" pt_clust_6="13000.00000" pt_clust_7="13000.00000" pt_clust_8="13000.00000" pt_clust_9="31.29859"></scales>
<clustering>
<clus scale="   31.299">  2  9  1 -1</clus>
<clus scale="   77.616">  5  6 -1 -1</clus>
<clus scale="   82.581">  2  5  1 -1</clus>
<clus scale="  101.168">  7  8 -1 -1</clus>
<clus scale="  105.025">  1  5  2 -1</clus>
</clustering>
</event>
<event>
 9    1  0.6106093E-005  0.1190635E+03  0.7546771E-02  0.1248015E+00
         -2   -1    0    0    0  501 -0.00000000000E+00  0.00000000000E+00  0.47964062712E+02  0.47964062712E+02  0.00000000000E+00 0.  1.
          1   -1    0    0  502    0  0.00000000000E+00 -0.00000000000E+00 -0.39067535464E+03  0.39067535464E+03  0.00000000000E+00 0. -1.
        -24    2    1    2    0    0  0.70897919399E+02 -0.19263196914E+02 -0.95124536565E+02  0.14501282829E+03  0.81132343620E+02 0.  0.
         23    2    1    2    0    0 -0.84203086780E+02 -0.10934256540E+02 -0.19435876631E+03  0.23099965801E+03  0.91519365005E+02 0.  0.
         11    1    3    3    0    0  0.11459512351E+02  0.29302186178E+02 -0.18219220498E+02  0.36357647526E+02  0.00000000000E+00 0. -1.
        -12    1    3    3    0    0  0.59438407048E+02 -0.48565383091E+02 -0.76905316068E+02  0.10865518076E+03  0.00000000000E+00 0.  1.
        -13    1    4    4    0    0 -0.63576267996E+02 -0.39921517977E+02 -0.73686060771E+02  0.10519175349E+03  0.00000000000E+00 0.  1.
         13    1    4    4    0    0 -0.20626818784E+02  0.28987261437E+02 -0.12067270554E+03  0.12580790452E+03  0.00000000000E+00 0. -1.
         21    1    1    2  502  501  0.13305167381E+02  0.30197453453E+02 -0.53227989051E+02  0.62626931048E+02  0.00000000000E+00 0. -1.
<scales pt_clust_5="13000.00000" pt_clust_6="13000.00000" pt_clust_7="13000.00000" pt_clust_8="13000.00000" pt_clust_9="32.99869"></scales>
<clustering>
<clus scale="   32.999">  2  9  1 -1</clus>
<clus scale="   81.132">  5  6 -1 -1</clus>
<clus scale="   91.519">  7  8 -1 -1</clus>
<clus scale="  111.278">  1  5  2 -1</clus>
<clus scale="   32.999">  2  5  1 -1</clus>
</clustering>
</event>
<event>
 9    1  0.6106093E-005  0.1497004E+03  0.7546771E-02  0.1224558E+00
         -2   -1    0    0    0  501 -0.00000000000E+00  0.00000000000E+00  0.59762210704E+02  0.59762210704E+02  0.00000000000E+00 0.  1.
          1   -1    0    0  502    0  0.00000000000E+00 -0.00000000000E+00 -0.66608387723E+03  0.66608387723E+03  0.00000000000E+00 0. -1.
        -24    2    1    2    0    0  0.11944176954E+02  0.39492948256E+02 -0.55316276546E+02  0.10599905135E+03  0.80458387446E+02 0.  0.
         23    2    1    2    0    0  0.72775284727E+02  0.82549828272E+02 -0.27368524762E+03  0.30523888690E+03  0.78463030131E+02 0.  0.
         11    1    3    3    0    0 -0.31731256375E+02  0.81428057972E+00 -0.15171721903E+02  0.35181199944E+02  0.00000000000E+00 0. -1.
        -12    1    3    3    0    0  0.43675433330E+02  0.38678667676E+02 -0.40144554643E+02  0.70817851402E+02  0.00000000000E+00 0.  1.
        -11    1    4    4    0    0  0.66191697801E+02  0.56288050992E+02 -0.11433119918E+03  0.14360121395E+03  0.00000000000E+00 0.  1.
         11    1    4    4    0    0  0.65835869256E+01  0.26261777279E+02 -0.15935404844E+03  0.16163767295E+03  0.00000000000E+00 0. -1.
         21    1    1    2  502  501 -0.84719461681E+02 -0.12204277653E+03 -0.27732014236E+03  0.31460814969E+03  0.00000000000E+00 0.  1.
<scales pt_clust_5="13000.00000" pt_clust_6="13000.00000" pt_clust_7="13000.00000" pt_clust_8="13000.00000" pt_clust_9="127.49026"></scales>
<clustering>
<clus scale="   78.463">  7  8 -1 -1</clus>
<clus scale="   80.458">  5  6 -1 -1</clus>
<clus scale="   90.421">  1  5  2 -1</clus>
<clus scale="  127.490">  1  9  2 -1</clus>
<clus scale="  149.700">  2  5  1 -1</clus>
</clustering>
</event>
<event>
 9    1  0.6106093E-005  0.1440884E+03  0.7546771E-02  0.1210956E+00
         -2   -1    0    0    0  501 -0.00000000000E+00  0.00000000000E+00  0.30142251083E+03  0.30142251083E+03  0.00000000000E+00 0.  1.
          1   -1    0    0  502    0  0.00000000000E+00 -0.00000000000E+00 -0.13547096231E+03  0.13547096231E+03  0.00000000000E+00 0. -1.
        -24    2    1    2    0    0 -0.83060848412E+01 -0.10276196328E+03  0.55158497639E+02  0.14097702011E+03  0.78759432409E+02 0.  0.
         23    2    1    2    0    0  0.42501618289E+02  0.10756407650E+03 -0.29400675390E+02  0.15153267387E+03  0.93388079686E+02 0.  0.
         13    1    3    3    0    0 -0.31629282458E+02 -0.95014331071E+01  0.20041946947E+02  0.38631184001E+02  0.00000000000E+00 0. -1.
        -14    1    3    3    0    0  0.23323197617E+02 -0.93260530177E+02  0.35116550692E+02  0.10234583611E+03  0.00000000000E+00 0.  1.
        -11    1    4    4    0    0 -0.28608054298E+02  0.24853956087E+02 -0.17715223283E+02  0.41832631280E+02  0.00000000000E+00 0.  1.
         11    1    4    4    0    0  0.71109672587E+02  0.82710120410E+02 -0.11685452108E+02  0.10970004259E+03  0.00000000000E+00 0. -1.
         21    1    1    2  502  501 -0.34195533448E+02 -0.48021132130E+01  0.14019372627E+03  0.14438377916E+03  0.00000000000E+00 0.  1.
<scales pt_clust_5="13000.00000" pt_clust_6="13000.00000" pt_clust_7="13000.00000" pt_clust_8="13000.00000" pt_clust_9="34.53107"></scales>
<clustering>
<clus scale="   34.531">  1  9  2 -1</clus>
<clus scale="   78.759">  5  6 -1 -1</clus>
<clus scale="   93.388">  7  8 -1 -1</clus>
<clus scale="  135.067">  1  5  2 -1</clus>
<clus scale="  144.088">  2  5  1 -1</clus>
</clustering>
</event>
<event>
 9    1  0.6106093E-005  0.9191794E+02  0.7546771E-02  0.1304134E+00
         -2   -1    0    0    0  501 -0.00000000000E+00  0.00000000000E+00  0.36570940035E+02  0.36570940035E+02  0.00000000000E+00 0.  1.
          1   -1    0    0  502    0  0.00000000000E+00 -0.00000000000E+00 -0.49026927707E+03  0.49026927707E+03  0.00000000000E+00 0. -1.
         23    2    1    2    0    0  0.11324743749E+02  0.21206783982E+02 -0.47050207110E+02  0.10407748130E+03  0.89668403675E+02 0.  0.
        -24    2    1    2    0    0 -0.21574133956E+02  0.14511105738E+01 -0.36469028586E+03  0.37398886099E+03  0.80006965743E+02 0.  0.
         11    1    4    4    0    0 -0.50471968508E+02  0.39163948636E+01 -0.17798546808E+03  0.18504481782E+03  0.00000000000E+00 0. -1.
        -12    1    4    4    0    0  0.28897834552E+02 -0.24652842897E+01 -0.18670481778E+03  0.18894404317E+03  0.00000000000E+00 0.  1.
        -11    1    3    3    0    0  0.26093236316E+02 -0.10711653645E+02 -0.60239537950E+02  0.66516151705E+02  0.00000000000E+00 0. -1.
         11    1    3    3    0    0 -0.14768492567E+02  0.31918437627E+02  0.13189330840E+02  0.37561329599E+02  0.00000000000E+00 0.  1.
         21    1    1    2  502  501  0.10249390208E+02 -0.22657894556E+02 -0.41957844060E+02  0.48773874805E+02  0.00000000000E+00 0. -1.
<scales pt_clust_5="13000.00000" pt_clust_6="13000.00000" pt_clust_7="13000.00000" pt_clust_8="13000.00000" pt_clust_9="24.86826"></scales>
<clustering>
<clus scale="   24.868">  1  9  2 -1</clus>
<clus scale="   80.007">  5  6 -1 -1</clus>
<clus scale="   82.520">  2  5  1 -1</clus>
<clus scale="   89.668">  7  8 -1 -1</clus>
<clus scale="   82.520">  2  5  1 -1</clus>
</clustering>
</event>
<event>
 9    1  0.6106093E-005  0.2140867E+03  0.7546771E-02  0.1138616E+00
          1   -1    0    0  502    0  0.00000000000E+00  0.00000000000E+00  0.18703018717E+04  0.18703018717E+04  0.00000000000E+00 0. -1.
         -2   -1    0    0    0  501 -0.00000000000E+00 -0.00000000000E+00 -0.33217349513E+02  0.33217349513E+02  0.00000000000E+00 0.  1.
        -24    2    1    2    0    0  0.14921123865E+03  0.13210136464E+03  0.69486312516E+03  0.72794426380E+03  0.85751526019E+02 0.  0.
         23    2    1    2    0    0 -0.17967273410E+03 -0.77449135874E+02  0.91521872252E+03  0.94010737356E+03  0.88858897865E+02 0.  0.
         11    1    3    3    0    0  0.10949586839E+03  0.12820317107E+03  0.62646738891E+03  0.64875788059E+03  0.00000000000E+00 0. -1.
        -12    1    3    3    0    0  0.39715370263E+02  0.38981935751E+01  0.68395736252E+02  0.79186383209E+02  0.00000000000E+00 0.  1.
        -11    1    4    4    0    0 -0.93173061759E+02 -0.83303882528E+02  0.61753072353E+03  0.63005154613E+03  0.00000000000E+00 0.  1.
         11    1    4    4    0    0 -0.86499672344E+02  0.58547466548E+01  0.29768799899E+03  0.31005582742E+03  0.00000000000E+00 0. -1.
         21    1    1    2  502  501  0.30461495452E+02 -0.54652228767E+02  0.22700267448E+03  0.23546758384E+03  0.00000000000E+00 0.  1.
<scales pt_clust_5="13000.00000" pt_clust_6="13000.00000" pt_clust_7="13000.00000" pt_clust_8="13000.00000" pt_clust_9="62.56811"></scales>
<clustering>
<clus scale="   62.568">  2  9  1 -1</clus>
<clus scale="   85.752">  5  6 -1 -1</clus>
<clus scale="   88.859">  7  8 -1 -1</clus>
<clus scale="  212.816">  2  5  1 -1</clus>
<clus scale="  214.087">  1  5  2 -1</clus>
</clustering>
</event>
<event>
 9    1  0.6106093E-005  0.1089703E+03  0.7546771E-02  0.1262660E+00
         -2   -1    0    0    0  501 -0.00000000000E+00  0.00000000000E+00  0.39945584752E+03  0.39945584752E+03  0.00000000000E+00 0.  1.
          1   -1    0    0  502    0  0.00000000000E+00 -0.00000000000E+00 -0.68666839825E+02  0.68666839825E+02  0.00000000000E+00 0. -1.
         23    2    1    2    0    0 -0.51967617195E+02  0.24791511047E+02  0.31974702359E+03  0.33822780411E+03  0.94045925587E+02 0.  0.
        -24    2    1    2    0    0  0.29397620958E+02 -0.32161812276E+02 -0.10031350757E+01  0.10327137922E+03  0.93623550448E+02 0.  0.
         13    1    4    4    0    0  0.59752018603E+02 -0.20056631144E+02 -0.19173781549E+02  0.65880240428E+02  0.00000000000E+00 0. -1.
        -14    1    4    4    0    0 -0.30354397645E+02 -0.12105181133E+02  0.18170646473E+02  0.37391138788E+02  0.00000000000E+00 0.  1.
        -13    1    3    3    0    0 -0.37001422676E+02  0.53714260822E+02  0.27651002321E+03  0.28409878569E+03  0.00000000000E+00 0.  1.
         13    1    3    3    0    0 -0.14966194520E+02 -0.28922749775E+02  0.43237000390E+02  0.54129018425E+02  0.00000000000E+00 0. -1.
         21    1    1    2  502  501  0.22569996237E+02  0.73703012289E+01  0.12045119180E+02  0.26623504022E+02  0.00000000000E+00 0. -1.
<scales pt_clust_5="13000.00000" pt_clust_6="13000.00000" pt_clust_7="13000.00000" pt_clust_8="13000.00000" pt_clust_9="23.74292"></scales>
<clustering>
<clus scale="   23.743">  2  9  1 -1</clus>
<clus scale="   93.624">  5  6 -1 -1</clus>
<clus scale="   94.046">  7  8 -1 -1</clus>
<clus scale="  108.606">  2  5  1 -1</clus>
<clus scale="   23.743">  2  5  1 -1</clus>
</clustering>
</event>
<event>
 9    1  0.6106093E-005  0.1864004E+03  0.7546771E-02  0.1162930E+00
         -2   -1    0    0    0  501 -0.00000000000E+00  0.00000000000E+00  0.10993236656E+04  0.10993236656E+04  0.00000000000E+00 0.  1.
          1   -1    0    0  502    0  0.00000000000E+00 -0.00000000000E+00 -0.64060147908E+02  0.64060147908E+02  0.00000000000E+00 0. -1.
         23    2    1    2    0    0 -0.17444094889E+03 -0.63675622207E+02  0.77704949113E+03  0.80415440482E+03  0.91510467245E+02 0.  0.
        -24    2    1    2    0    0  0.15328516375E+03  0.37513945763E+02  0.11313245086E+03  0.21029766537E+03  0.80762114078E+02 0.  0.
         13    1    4    4    0    0  0.82925677917E+02  0.29666996612E+02  0.15073796357E+02  0.89353332800E+02  0.00000000000E+00 0. -1.
        -14    1    4    4    0    0  0.70359485829E+02  0.78469491509E+01  0.98058654505E+02  0.12094433257E+03  0.00000000000E+00 0.  1.
        -13    1    3    3    0    0 -0.23039497876E+02  0.89928280489E+01  0.32170320275E+02  0.40578552528E+02  0.00000000000E+00 0. -1.
         13    1    3    3    0    0 -0.15140145102E+03 -0.72668450256E+02  0.74487917085E+03  0.76357585229E+03  0.00000000000E+00 0.  1.
         21    1    1    2  502  501  0.21155785147E+02  0.26161676444E+02  0.14508157567E+03  0.14893174329E+03  0.00000000000E+00 0.  1.
<scales pt_clust_5="13000.00000" pt_clust_6="13000.00000" pt_clust_7="13000.00000" pt_clust_8="13000.00000" pt_clust_9="33.64522"></scales>
<clustering>
<clus scale="   33.645">  1  9  2 -1</clus>
<clus scale="   80.762">  5  6 -1 -1</clus>
<clus scale="   91.510">  7  8 -1 -1</clus>
<clus scale="  181.366">  2  5  1 -1</clus>
<clus scale="  181.366">  2  5  1 -1</clus>
</clustering>
</event>
<event>
 9    1  0.6106093E-005  0.1149191E+03  0.7546771E-02  0.1255169E+00
          1   -1    0    0  502    0  0.00000000000E+00  0.00000000000E+00  0.40753243944E+03  0.40753243944E+03  0.00000000000E+00 0. -1.
         -2   -1    0    0    0  501 -0.00000000000E+00 -0.00000000000E+00 -0.62438524962E+02  0.62438524962E+02  0.00000000000E+00 0.  1.
        -24    2    1    2    0    0  0.26043263292E+02  0.19589866295E+02  0.16817179424E+02  0.88869956958E+02  0.80950832618E+02 0.  0.
         23    2    1    2    0    0 -0.54552697852E+02 -0.63658763937E+02  0.29263084598E+03  0.31765429747E+03  0.90790999623E+02 0.  0.
         11    1    3    3    0    0  0.26952057885E+02  0.29430317305E+02  0.44323848231E+02  0.59641935942E+02  0.00000000000E+00 0. -1.
        -12    1    3    3    0    0 -0.90879459325E+00 -0.98404510100E+01 -0.27506668807E+02  0.29228021016E+02  0.00000000000E+00 0.  1.
        -13    1    4    4    0    0  0.33709363307E+00  0.20038081233E+02  0.25803119330E+02  0.32671689561E+02  0.00000000000E+00 0.  1.
         13    1    4    4    0    0 -0.54889791485E+02 -0.83696845171E+02  0.26682772665E+03  0.28498260791E+03  0.00000000000E+00 0. -1.
         21    1    1    2  502  501  0.28509434560E+02  0.44068897643E+02  0.35645889067E+02  0.63446709968E+02  0.00000000000E+00 0. -1.
<scales pt_clust_5="13000.00000" pt_clust_6="13000.00000" pt_clust_7="13000.00000" pt_clust_8="13000.00000" pt_clust_9="52.48672"></scales>
<clustering>
<clus scale="   52.487">  2  9  1 -1</clus>
<clus scale="   80.951">  5  6 -1 -1</clus>
<clus scale="   90.791">  7  8 -1 -1</clus>
<clus scale="  107.315">  2  5  1 -1</clus>
<clus scale="  114.919">  1  5  2 -1</clus>
</clustering>
</event>
<event>
 9    1  0.6106093E-005  0.2080308E+03  0.7546771E-02  0.1166272E+00
         -4   -1    0    0    0  501 -0.00000000000E+00  0.00000000000E+00  0.12035999402E+04  0.12035999402E+04  0.00000000000E+00 0.  1.
          3   -1    0    0  502    0  0.00000000000E+00 -0.00000000000E+00 -0.17397077682E+03  0.17397077682E+03  0.00000000000E+00 0. -1.
        -24    2    1    2    0    0  0.11138447949E+03  0.50828761597E+02 -0.99771944114E+02  0.17697164665E+03  0.79840200450E+02 0.  0.
         23    2    1    2    0    0  0.51195467166E+02  0.60387868143E+02  0.11337493527E+03  0.16565435667E+03  0.91213044348E+02 0.  0.
         13    1    3    3    0    0  0.10670680191E+03  0.36773658931E+02 -0.11106257453E+03  0.15834626306E+03  0.00000000000E+00 0. -1.
        -14    1    3    3    0    0  0.46776775778E+01  0.14055102666E+02  0.11290630414E+02  0.18625383583E+02  0.00000000000E+00 0.  1.
        -13    1    4    4    0    0  0.68355937458E+02  0.11952693086E+02  0.64956314592E+02  0.95051164449E+02  0.00000000000E+00 0. -1.
         13    1    4    4    0    0 -0.17160470292E+02  0.48435175057E+02  0.48418620675E+02  0.70603192219E+02  0.00000000000E+00 0.  1.
         21    1    1    2  502  501 -0.16257994666E+03 -0.11121662974E+03  0.10160261723E+04  0.10349447137E+04  0.00000000000E+00 0.  1.
<scales pt_clust_5="13000.00000" pt_clust_6="13000.00000" pt_clust_7="13000.00000" pt_clust_8="13000.00000" pt_clust_9="192.09991"></scales>
<clustering>
<clus scale="   79.840">  5  6 -1 -1</clus>
<clus scale="   91.213">  7  8 -1 -1</clus>
<clus scale="  120.779">  2  7  1 -1</clus>
<clus scale="  192.100">  1  9  2 -1</clus>
<clus scale="  120.779">  2  5  1 -1</clus>
</clustering>
</event>
<event>
 9    1  0.6106093E-005  0.9949576E+02  0.7546771E-02  0.1288234E+00
          1   -1    0    0  502    0  0.00000000000E+00  0.00000000000E+00  0.93869922823E+02  0.93869922823E+02  0.00000000000E+00 0. -1.
         -2   -1    0    0    0  501 -0.00000000000E+00 -0.00000000000E+00 -0.21853912165E+03  0.21853912165E+03  0.00000000000E+00 0.  1.
        -24    2    1    2    0    0  0.36966146997E+02  0.19968923806E+02 -0.13430127941E+03  0.16130058630E+03  0.78840291402E+02 0.  0.
         23    2    1    2    0    0 -0.37831895691E+02  0.51031747018E+01  0.43665276625E+02  0.10882822547E+03  0.92084914901E+02 0.  0.
         11    1    3    3    0    0  0.13633074722E+02  0.49311732118E+02 -0.67490722587E+02  0.84690644620E+02  0.00000000000E+00 0. -1.
        -12    1    3    3    0    0  0.23333072275E+02 -0.29342808312E+02 -0.66810556823E+02  0.76609941681E+02  0.00000000000E+00 0.  1.
        -11    1    4    4    0    0 -0.15862200904E+02  0.22689866052E+02 -0.23303430883E+02  0.36186866815E+02  0.00000000000E+00 0.  1.
         11    1    4    4    0    0 -0.21969694787E+02 -0.17586691350E+02  0.66968707509E+02  0.72641358654E+02  0.00000000000E+00 0. -1.
         21    1    1    2  502  501  0.86574869376E+00 -0.25072098508E+02 -0.34033196040E+02  0.42280232699E+02  0.00000000000E+00 0.  1.
<scales pt_clust_5="13000.00000" pt_clust_6="13000.00000" pt_clust_7="13000.00000" pt_clust_8="13000.00000" pt_clust_9="25.08704"></scales>
<clustering>
<clus scale="   25.087">  2  9  1 -1</clus>
<clus scale="   78.840">  5  6 -1 -1</clus>
<clus scale="   87.382">  2  5  1 -1</clus>
<clus scale="   92.085">  7  8 -1 -1</clus>
<clus scale="   99.496">  1  5  2 -1</clus>
</clustering>
</event>
<event>
 9    1  0.6106093E-005  0.1147358E+03  0.7546771E-02  0.1258052E+00
          1   -1    0    0  502    0  0.00000000000E+00  0.00000000000E+00  0.67378430998E+03  0.67378430998E+03  0.00000000000E+00 0. -1.
         -2   -1    0    0    0  501 -0.00000000000E+00 -0.00000000000E+00 -0.60645008510E+02  0.60645008510E+02  0.00000000000E+00 0.  1.
        -24    2    1    2    0    0 -0.57023374161E+02  0.64264559198E+02  0.17948864705E+03  0.21157897875E+03  0.71888045322E+02 0.  0.
         23    2    1    2    0    0  0.63916662117E+02 -0.25667276114E+02  0.46130391426E+03  0.47487148545E+03  0.89204695088E+02 0.  0.
         11    1    3    3    0    0 -0.24141250507E+02  0.69666677314E+02  0.14974428752E+03  0.16691194549E+03  0.00000000000E+00 0. -1.
        -12    1    3    3    0    0 -0.32882123654E+02 -0.54021181154E+01  0.29744359530E+02  0.44667033257E+02  0.00000000000E+00 0.  1.
        -11    1    4    4    0    0 -0.17831600965E+02 -0.17692701974E+02  0.56707466190E+02  0.62022047836E+02  0.00000000000E+00 0.  1.
         11    1    4    4    0    0  0.81748263083E+02 -0.79745741401E+01  0.40459644807E+03  0.41284943761E+03  0.00000000000E+00 0. -1.
         21    1    1    2  502  501 -0.68932879563E+01 -0.38597283084E+02 -0.27653259829E+02  0.47978854295E+02  0.00000000000E+00 0.  1.
<scales pt_clust_5="13000.00000" pt_clust_6="13000.00000" pt_clust_7="13000.00000" pt_clust_8="13000.00000" pt_clust_9="39.20801"></scales>
<clustering>
<clus scale="   39.208">  2  9  1 -1</clus>
<clus scale="   71.888">  5  6 -1 -1</clus>
<clus scale="   89.205">  7  8 -1 -1</clus>
<clus scale="  101.856">  2  5  1 -1</clus>
<clus scale="  114.736">  1  5  2 -1</clus>
</clustering>
</event>
<event>
 9    1  0.6106093E-005  0.1229629E+03  0.7546771E-02  0.1242405E+00
          1   -1    0    0  502    0  0.00000000000E+00  0.00000000000E+00  0.19644151310E+03  0.19644151310E+03  0.00000000000E+00 0. -1.
         -2   -1    0    0    0  501 -0.00000000000E+00 -0.00000000000E+00 -0.20033902264E+03  0.20033902264E+03  0.00000000000E+00 0.  1.
         23    2    1    2    0    0 -0.58169344984E+02  0.35202832080E+02 -0.13038486854E+03  0.17345145355E+03  0.91990655572E+02 0.  0.
        -24    2    1    2    0    0  0.55696632886E+02 -0.62465422074E+02  0.14892733838E+03  0.18793253161E+03  0.78327775724E+02 0.  0.
         13    1    4    4    0    0  0.37577954987E+02 -0.65888316742E+02  0.15139064298E+03  0.16932955964E+03  0.00000000000E+00 0. -1.
        -14    1    4    4    0    0  0.18118677899E+02  0.34228946688E+01 -0.24633045987E+01  0.18602971974E+02  0.00000000000E+00 0.  1.
        -11    1    3    3    0    0 -0.69074499902E+02 -0.64778130587E+01 -0.95361242268E+02  0.11792800823E+03  0.00000000000E+00 0.  1.
         11    1    3    3    0    0  0.10905154918E+02  0.41680645138E+02 -0.35023626276E+02  0.55523445322E+02  0.00000000000E+00 0. -1.
         21    1    1    2  502  501  0.24727120976E+01  0.27262589994E+02 -0.22439979376E+02  0.35396550576E+02  0.00000000000E+00 0.  1.
<scales pt_clust_5="13000.00000" pt_clust_6="13000.00000" pt_clust_7="13000.00000" pt_clust_8="13000.00000" pt_clust_9="27.37450"></scales>
<clustering>
<clus scale="   27.374">  2  9  1 -1</clus>
<clus scale="   78.328">  5  6 -1 -1</clus>
<clus scale="   91.991">  7  8 -1 -1</clus>
<clus scale="  113.105">  1  5  2 -1</clus>
<clus scale="  113.105">  1  5  2 -1</clus>
</clustering>
</event>
<event>
 9    1  0.6106093E-005  0.1502398E+03  0.7546771E-02  0.1211213E+00
          1   -1    0    0  502    0  0.00000000000E+00  0.00000000000E+00  0.46786446511E+03  0.46786446511E+03  0.00000000000E+00 0. -1.
         -2   -1    0    0    0  501 -0.00000000000E+00 -0.00000000000E+00 -0.54137478686E+02  0.54137478686E+02  0.00000000000E+00 0.  1.
        -24    2    1    2    0    0  0.90591261656E+02  0.40959557465E+02  0.15338576831E+03  0.20004298892E+03  0.81274482220E+02 0.  0.
         23    2    1    2    0    0 -0.75077173461E+02 -0.14081542089E+02  0.25059761698E+03  0.28943123737E+03  0.12303009277E+03 0.  0.
         13    1    3    3    0    0  0.41892307884E+02  0.33790938417E+02  0.13854274546E+03  0.14863002825E+03  0.00000000000E+00 0. -1.
        -14    1    3    3    0    0  0.48698953772E+02  0.71686190479E+01  0.14843022855E+02  0.51412960672E+02  0.00000000000E+00 0.  1.
        -13    1    4    4    0    0 -0.16789217957E+02  0.30734838762E+02  0.79825393112E+01  0.35919759008E+02  0.00000000000E+00 0.  1.
         13    1    4    4    0    0 -0.58287955504E+02 -0.44816380850E+02  0.24261507767E+03  0.25351147836E+03  0.00000000000E+00 0. -1.
         21    1    1    2  502  501 -0.15514088195E+02 -0.26878015376E+02  0.97436011339E+01  0.32527717506E+02  0.00000000000E+00 0.  1.
<scales pt_clust_5="13000.00000" pt_clust_6="13000.00000" pt_clust_7="13000.00000" pt_clust_8="13000.00000" pt_clust_9="31.03409"></scales>
<clustering>
<clus scale="   31.034">  2  9  1 -1</clus>
<clus scale="   81.274">  5  6 -1 -1</clus>
<clus scale="  118.495">  2  5  1 -1</clus>
<clus scale="  123.030">  7  8 -1 -1</clus>
<clus scale="  150.240">  1  5  2 -1</clus>
</clustering>
</event>
<event>
 9    1  0.6106093E-005  0.9400333E+02  0.7546771E-02  0.1298213E+00
          1   -1    0    0  502    0  0.00000000000E+00  0.00000000000E+00  0.29927041007E+03  0.29927041007E+03  0.00000000000E+00 0. -1.
         -2   -1    0    0    0  501 -0.00000000000E+00 -0.00000000000E+00 -0.91932027825E+02  0.91932027825E+02  0.00000000000E+00 0.  1.
        -24    2    1    2    0    0 -0.43968805146E+02 -0.94159840903E+01  0.44575846724E+02  0.10321544475E+03  0.81513835276E+02 0.  0.
         23    2    1    2    0    0  0.20269445716E+02  0.83563408727E+01  0.21311089874E+03  0.23232964717E+03  0.89889548516E+02 0.  0.
         13    1    3    3    0    0  0.18059330863E+02  0.16995623817E+02  0.18465732839E+02  0.30918828396E+02  0.00000000000E+00 0. -1.
        -14    1    3    3    0    0 -0.62028136009E+02 -0.26411607907E+02  0.26110113886E+02  0.72296616354E+02  0.00000000000E+00 0.  1.
        -13    1    4    4    0    0  0.52392213347E+02  0.12030937358E+02  0.88098545685E+02  0.10320388183E+03  0.00000000000E+00 0. -1.
         13    1    4    4    0    0 -0.32122767631E+02 -0.36745964851E+01  0.12501235305E+03  0.12912576534E+03  0.00000000000E+00 0.  1.
         21    1    1    2  502  501  0.23699359430E+02  0.10596432177E+01 -0.50348363221E+02  0.55657345968E+02  0.00000000000E+00 0.  1.
<scales pt_clust_5="13000.00000" pt_clust_6="13000.00000" pt_clust_7="13000.00000" pt_clust_8="13000.00000" pt_clust_9="23.72304"></scales>
<clustering>
<clus scale="   23.723">  2  9  1 -1</clus>
<clus scale="   81.514">  5  6 -1 -1</clus>
<clus scale="   86.029">  2  5  1 -1</clus>
<clus scale="   89.890">  7  8 -1 -1</clus>
<clus scale="   94.003">  1  5  2 -1</clus>
</clustering>
</event>
<event>
 9    1  0.6106093E-005  0.1049788E+03  0.7546771E-02  0.1275938E+00
          1   -1    0    0  502    0  0.00000000000E+00  0.00000000000E+00  0.22779744013E+03  0.22779744013E+03  0.00000000000E+00 0. -1.
         -2   -1    0    0    0  501 -0.00000000000E+00 -0.00000000000E+00 -0.13768072019E+03  0.13768072019E+03  0.00000000000E+00 0.  1.
        -24    2    1    2    0    0 -0.32809387567E+02 -0.27149330196E+02 -0.70027795191E+02  0.12074288342E+03  0.88664591322E+02 0.  0.
         23    2    1    2    0    0  0.10974464139E+02  0.27906202035E+02  0.18443145600E+03  0.21206736860E+03  0.10029163420E+03 0.  0.
         13    1    3    3    0    0 -0.33552151546E+01  0.31488350949E+02 -0.14704941210E+02  0.34914309534E+02  0.00000000000E+00 0. -1.
        -14    1    3    3    0    0 -0.29454172413E+02 -0.58637681145E+02 -0.55322853981E+02  0.85828573885E+02  0.00000000000E+00 0.  1.
        -11    1    4    4    0    0  0.50309095319E+02  0.39055976171E+00  0.13052509793E+03  0.13988552033E+03  0.00000000000E+00 0.  1.
         11    1    4    4    0    0 -0.39334631180E+02  0.27515642274E+02  0.53906358065E+02  0.72181848270E+02  0.00000000000E+00 0. -1.
         21    1    1    2  502  501  0.21834923428E+02 -0.75687183895E+00 -0.24286940863E+02  0.32667908298E+02  0.00000000000E+00 0.  1.
<scales pt_clust_5="13000.00000" pt_clust_6="13000.00000" pt_clust_7="13000.00000" pt_clust_8="13000.00000" pt_clust_9="21.84804"></scales>
<clustering>
<clus scale="   21.848">  2  9  1 -1</clus>
<clus scale="   88.665">  5  6 -1 -1</clus>
<clus scale="   93.934">  2  5  1 -1</clus>
<clus scale="  100.292">  7  8 -1 -1</clus>
<clus scale="  104.979">  1  5  2 -1</clus>
</clustering>
</event>
<event>
 9    1  0.6106093E-005  0.1126291E+03  0.7546771E-02  0.1260406E+00
         -4   -1    0    0    0  501 -0.00000000000E+00  0.00000000000E+00  0.22432185775E+03  0.22432185775E+03  0.00000000000E+00 0.  1.
          3   -1    0    0  502    0  0.00000000000E+00 -0.00000000000E+00 -0.75218901473E+02  0.75218901473E+02  0.00000000000E+00 0. -1.
        -24    2    1    2    0    0 -0.53585634263E+02  0.13342749853E+02  0.11698963542E+03  0.15263031182E+03  0.80993753572E+02 0.  0.
         23    2    1    2    0    0  0.58564335211E+02 -0.34194876826E+02  0.92820345305E+01  0.11559166234E+03  0.93146150098E+02 0.  0.
         13    1    3    3    0    0 -0.36851345944E+01 -0.28932238631E+02  0.18960011540E+02  0.34787018941E+02  0.00000000000E+00 0. -1.
        -14    1    3    3    0    0 -0.49900499668E+02  0.42274988484E+02  0.98029623885E+02  0.11784329288E+03  0.00000000000E+00 0.  1.
        -13    1    4    4    0    0  0.26629919239E+02  0.31948093822E+02  0.64503263542E+01  0.42088478324E+02  0.00000000000E+00 0.  1.
         13    1    4    4    0    0  0.31934415972E+02 -0.66142970648E+02  0.28317081763E+01  0.73503184018E+02  0.00000000000E+00 0. -1.
         21    1    1    2  502  501 -0.49787009479E+01  0.20852126973E+02  0.22831286325E+02  0.31318785061E+02  0.00000000000E+00 0.  1.
<scales pt_clust_5="13000.00000" pt_clust_6="13000.00000" pt_clust_7="13000.00000" pt_clust_8="13000.00000" pt_clust_9="21.43825"></scales>
<clustering>
<clus scale="   21.438">  1  9  2 -1</clus>
<clus scale="   80.994">  5  6 -1 -1</clus>
<clus scale="   93.146">  7  8 -1 -1</clus>
<clus scale="  102.806">  1  5  2 -1</clus>
<clus scale="  112.629">  2  5  1 -1</clus>
</clustering>
</event>
<event>
 9    1  0.6106093E-005  0.5179477E+03  0.7546771E-02  0.1009382E+00
          1   -1    0    0  502    0  0.00000000000E+00  0.00000000000E+00  0.15503128987E+04  0.15503128987E+04  0.00000000000E+00 0. -1.
         -2   -1    0    0    0  501 -0.00000000000E+00 -0.00000000000E+00 -0.31608173932E+03  0.31608173932E+03  0.00000000000E+00 0.  1.
        -24    2    1    2    0    0 -0.42079706640E+03 -0.29184815736E+03  0.80114046465E+01  0.51762866888E+03  0.75031581292E+02 0.  0.
         23    2    1    2    0    0  0.43360389308E+03  0.26677900842E+03  0.12105595906E+04  0.13165523419E+04  0.93124492824E+02 0.  0.
         11    1    3    3    0    0 -0.33791620637E+03 -0.24006536772E+03  0.35726634751E+02  0.41604703549E+03  0.00000000000E+00 0. -1.
        -12    1    3    3    0    0 -0.82880860028E+02 -0.51782789647E+02 -0.27715230105E+02  0.10158163339E+03  0.00000000000E+00 0.  1.
        -13    1    4    4    0    0  0.41188749283E+03  0.26616961204E+03  0.11073775043E+04  0.12111079663E+04  0.00000000000E+00 0. -1.
         13    1    4    4    0    0  0.21716400249E+02  0.60939637998E+00  0.10318208632E+03  0.10544437557E+03  0.00000000000E+00 0.  1.
         21    1    1    2  502  501 -0.12806826681E+02  0.25069148942E+02  0.15660164110E+02  0.32213627214E+02  0.00000000000E+00 0. -1.
<scales pt_clust_5="13000.00000" pt_clust_6="13000.00000" pt_clust_7="13000.00000" pt_clust_8="13000.00000" pt_clust_9="28.15097"></scales>
<clustering>
<clus scale="   28.151">  2  9  1 -1</clus>
<clus scale="   75.032">  5  6 -1 -1</clus>
<clus scale="   93.124">  7  8 -1 -1</clus>
<clus scale="  515.002">  2  5  1 -1</clus>
<clus scale="  517.948">  1  5  2 -1</clus>
</clustering>
</event>
<event>
 9    1  0.6106093E-005  0.4259752E+03  0.7546771E-02  0.1064527E+00
         -2   -1    0    0    0  501 -0.00000000000E+00  0.00000000000E+00  0.36701396759E+03  0.36701396759E+03  0.00000000000E+00 0.  1.
          1   -1    0    0  502    0  0.00000000000E+00 -0.00000000000E+00 -0.10050782290E+04  0.10050782290E+04  0.00000000000E+00 0. -1.
         23    2    1    2    0    0  0.31129991846E+03  0.78343594151E+02 -0.59896655858E+03  0.68566246741E+03  0.91250879149E+02 0.  0.
        -24    2    1    2    0    0  0.71716660950E+02  0.14955926837E+03 -0.13777964106E+03  0.22994365077E+03  0.79872390884E+02 0.  0.
         11    1    4    4    0    0  0.34092394096E+02  0.87850457864E+02 -0.12501210328E+03  0.15655037607E+03  0.00000000000E+00 0. -1.
        -12    1    4    4    0    0  0.37624266854E+02  0.61708810501E+02 -0.12767537786E+02  0.73393274698E+02  0.00000000000E+00 0.  1.
        -13    1    3    3    0    0  0.17331750149E+03  0.44123353188E+02 -0.42431586083E+03  0.46046691126E+03  0.00000000000E+00 0. -1.
         13    1    3    3    0    0  0.13798241697E+03  0.34220240963E+02 -0.17465069775E+03  0.22519555615E+03  0.00000000000E+00 0.  1.
         21    1    1    2  502  501 -0.38301657941E+03 -0.22790286252E+03  0.98681938238E+02  0.45648607841E+03  0.00000000000E+00 0.  1.
<scales pt_clust_5="13000.00000" pt_clust_6="13000.00000" pt_clust_7="13000.00000" pt_clust_8="13000.00000" pt_clust_9="416.08668"></scales>
<clustering>
<clus scale="   79.872">  5  6 -1 -1</clus>
<clus scale="   91.251">  7  8 -1 -1</clus>
<clus scale="  184.095">  2  5  1 -1</clus>
<clus scale="  416.087">  1  9  2 -1</clus>
<clus scale="  184.095">  2  5  1 -1</clus>
</clustering>
</event>
<event>
 9    1  0.6106093E-005  0.1642245E+03  0.7546771E-02  0.1192714E+00
          1   -1    0    0  502    0  0.00000000000E+00  0.00000000000E+00  0.50803704395E+03  0.50803704395E+03  0.00000000000E+00 0. -1.
         -2   -1    0    0    0  501 -0.00000000000E+00 -0.00000000000E+00 -0.11463982841E+03  0.11463982841E+03  0.00000000000E+00 0.  1.
        -24    2    1    2    0    0 -0.10821576983E+03 -0.82877650659E+02  0.22110542098E+03  0.27180800739E+03  0.80078885355E+02 0.  0.
         23    2    1    2    0    0  0.71134739746E+02 -0.67903487535E+02  0.13492910397E+03  0.19116311969E+03  0.93093718432E+02 0.  0.
         13    1    3    3    0    0 -0.45843805747E+02 -0.46567279987E+02  0.39426796621E+02  0.76319318541E+02  0.00000000000E+00 0. -1.
        -14    1    3    3    0    0 -0.62371964084E+02 -0.36310370672E+02  0.18167862436E+03  0.19548868885E+03  0.00000000000E+00 0.  1.
        -13    1    4    4    0    0 -0.21122754632E+02 -0.85515647034E+01  0.99417656320E+01  0.24862395822E+02  0.00000000000E+00 0.  1.
         13    1    4    4    0    0  0.92257494378E+02 -0.59351922832E+02  0.12498733834E+03  0.16630072386E+03  0.00000000000E+00 0. -1.
         21    1    1    2  502  501  0.37081030086E+02  0.15078113819E+03  0.37362690599E+02  0.15970574528E+03  0.00000000000E+00 0.  1.
<scales pt_clust_5="13000.00000" pt_clust_6="13000.00000" pt_clust_7="13000.00000" pt_clust_8="13000.00000" pt_clust_9="143.37738"></scales>
<clustering>
<clus scale="   80.079">  5  6 -1 -1</clus>
<clus scale="   93.094">  7  8 -1 -1</clus>
<clus scale="  135.416">  1  7  2 -1</clus>
<clus scale="  143.377">  2  9  1 -1</clus>
<clus scale="  135.416">  1  5  2 -1</clus>
</clustering>
</event>
<event>
 9    1  0.7064617E-005  0.1329948E+03  0.7546771E-02  0.1231506E+00
          3   -1    0    0  502    0  0.00000000000E+00  0.00000000000E+00  0.16392180652E+03  0.16392180652E+03  0.00000000000E+00 0. -1.
         -4   -1    0    0    0  501 -0.00000000000E+00 -0.00000000000E+00 -0.22469145420E+03  0.22469145420E+03  0.00000000000E+00 0.  1.
        -24    2    1    2    0    0  0.41400121468E+02 -0.89537594392E+02 -0.14490791550E+03  0.19260265290E+03  0.79790519883E+02 0.  0.
         23    2    1    2    0    0 -0.35665415367E+02  0.65131547900E+02  0.10148377827E+03  0.16552440287E+03  0.10763470772E+03 0.  0.
         13    1    3    3    0    0  0.16490258847E+02  0.11982929015E+02 -0.37761156877E+02  0.42911818807E+02  0.00000000000E+00 0. -1.
        -14    1    3    3    0    0  0.24909862621E+02 -0.10152052341E+03 -0.10714675862E+03  0.14969083409E+03  0.00000000000E+00 0.  1.
        -11    1    4    4    0    0 -0.88832066132E+01 -0.27350029196E+02  0.49427954387E+01  0.29178188489E+02  0.00000000000E+00 0.  1.
         11    1    4    4    0    0 -0.26782208754E+02  0.92481577096E+02  0.96540982835E+02  0.13634621438E+03  0.00000000000E+00 0. -1.
         21    1    1    2  502  501 -0.57347061008E+01  0.24406046492E+02 -0.17345510457E+02  0.30486204954E+02  0.00000000000E+00 0.  1.
<scales pt_clust_5="13000.00000" pt_clust_6="13000.00000" pt_clust_7="13000.00000" pt_clust_8="13000.00000" pt_clust_9="25.07074"></scales>
<clustering>
<clus scale="   25.071">  2  9  1 -1</clus>
<clus scale="   79.791">  5  6 -1 -1</clus>
<clus scale="  107.635">  7  8 -1 -1</clus>
<clus scale="  111.664">  2  5  1 -1</clus>
<clus scale="  132.995">  1  5  2 -1</clus>
</clustering>
</event>
<event>
 9    1  0.6106093E-005  0.9587915E+02  0.7546771E-02  0.1290555E+00
          1   -1    0    0  502    0  0.00000000000E+00  0.00000000000E+00  0.18636243985E+03  0.18636243985E+03  0.00000000000E+00 0. -1.
         -2   -1    0    0    0  501 -0.00000000000E+00 -0.00000000000E+00 -0.15340111894E+03  0.15340111894E+03  0.00000000000E+00 0.  1.
        -24    2    1    2    0    0  0.13356362656E+02 -0.19107532945E+02 -0.72111978340E+02  0.11725942359E+03  0.89477062772E+02 0.  0.
         23    2    1    2    0    0 -0.28469973577E+02  0.37589848693E+01  0.14677172603E+03  0.17557058687E+03  0.91969680058E+02 0.  0.
         11    1    3    3    0    0 -0.14066455419E+02 -0.30933175406E+02  0.52029235799E+01  0.34377273344E+02  0.00000000000E+00 0. -1.
        -12    1    3    3    0    0  0.27422818076E+02  0.11825642461E+02 -0.77314901920E+02  0.82882150248E+02  0.00000000000E+00 0.  1.
        -11    1    4    4    0    0 -0.14851768176E+02  0.39842797558E+02  0.28549236484E+02  0.51216036932E+02  0.00000000000E+00 0.  1.
         11    1    4    4    0    0 -0.13618205401E+02 -0.36083812688E+02  0.11822248954E+03  0.12435454994E+03  0.00000000000E+00 0. -1.
         21    1    1    2  502  501  0.15113610920E+02  0.15348548076E+02 -0.41698426776E+02  0.46933548329E+02  0.00000000000E+00 0.  1.
<scales pt_clust_5="13000.00000" pt_clust_6="13000.00000" pt_clust_7="13000.00000" pt_clust_8="13000.00000" pt_clust_9="21.54064"></scales>
<clustering>
<clus scale="   21.541">  2  9  1 -1</clus>
<clus scale="   89.477">  5  6 -1 -1</clus>
<clus scale="   91.970">  7  8 -1 -1</clus>
<clus scale="   93.491">  2  5  1 -1</clus>
<clus scale="   95.879">  1  5  2 -1</clus>
</clustering>
</event>
<event>
 9    1  0.6106093E-005  0.2455954E+03  0.7546771E-02  0.1116713E+00
         -2   -1    0    0    0  501 -0.00000000000E+00  0.00000000000E+00  0.80696965448E+02  0.80696965448E+02  0.00000000000E+00 0.  1.
          1   -1    0    0  502    0  0.00000000000E+00 -0.00000000000E+00 -0.14075560355E+04  0.14075560355E+04  0.00000000000E+00 0. -1.
         23    2    1    2    0    0  0.33750326823E+02 -0.20995804115E+03 -0.25169592388E+03  0.34125753100E+03  0.88794148266E+02 0.  0.
        -24    2    1    2    0    0 -0.61895540892E+02  0.22602063196E+03 -0.10852845571E+04  0.11130454646E+04  0.78174500106E+02 0.  0.
         13    1    4    4    0    0 -0.19276473615E+02  0.18455057151E+03 -0.75630724135E+03  0.77873688701E+03  0.00000000000E+00 0. -1.
        -14    1    4    4    0    0 -0.42619067277E+02  0.41470060454E+02 -0.32897731572E+03  0.33430857762E+03  0.00000000000E+00 0.  1.
        -11    1    3    3    0    0  0.10815445251E+02 -0.94007186524E+02 -0.17905831736E+03  0.20252458120E+03  0.00000000000E+00 0.  1.
         11    1    3    3    0    0  0.22934881572E+02 -0.11595085462E+03 -0.72637606519E+02  0.13873294981E+03  0.00000000000E+00 0. -1.
         21    1    1    2  502  501  0.28145214069E+02 -0.16062590813E+02  0.10121410938E+02  0.33950005272E+02  0.00000000000E+00 0. -1.
<scales pt_clust_5="13000.00000" pt_clust_6="13000.00000" pt_clust_7="13000.00000" pt_clust_8="13000.00000" pt_clust_9="32.40617"></scales>
<clustering>
<clus scale="   32.406">  1  9  2 -1</clus>
<clus scale="   78.175">  5  6 -1 -1</clus>
<clus scale="   88.794">  7  8 -1 -1</clus>
<clus scale="  241.959">  2  5  1 -1</clus>
<clus scale="  241.959">  2  5  1 -1</clus>
</clustering>
</event>
<event>
 9    1  0.6106093E-005  0.1039342E+03  0.7546771E-02  0.1277077E+00
          3   -1    0    0  502    0  0.00000000000E+00  0.00000000000E+00  0.88174382521E+02  0.88174382521E+02  0.00000000000E+00 0. -1.
         -4   -1    0    0    0  501 -0.00000000000E+00 -0.00000000000E+00 -0.19042540882E+03  0.19042540882E+03  0.00000000000E+00 0.  1.
         23    2    1    2    0    0  0.45089575976E+02  0.37947220330E+02 -0.10078768025E+03  0.14880569679E+03  0.92260053729E+02 0.  0.
        -24    2    1    2    0    0 -0.30102452181E+02 -0.10731150980E+01  0.11672754179E+02  0.87879053750E+02  0.81726162852E+02 0.  0.
         13    1    4    4    0    0 -0.55514303810E+02 -0.23165830343E+01  0.22865565545E+02  0.60083596532E+02  0.00000000000E+00 0. -1.
        -14    1    4    4    0    0  0.25411851629E+02  0.12434679362E+01 -0.11192811365E+02  0.27795457218E+02  0.00000000000E+00 0.  1.
        -11    1    3    3    0    0 -0.50778785301E+01 -0.21391745627E+02 -0.57077843250E+00  0.21993576775E+02  0.00000000000E+00 0. -1.
         11    1    3    3    0    0  0.50167454506E+02  0.59338965957E+02 -0.10021690181E+03  0.12681212001E+03  0.00000000000E+00 0.  1.
         21    1    1    2  502  501 -0.14987123794E+02 -0.36874105232E+02 -0.13136100230E+02  0.41915040803E+02  0.00000000000E+00 0. -1.
<scales pt_clust_5="13000.00000" pt_clust_6="13000.00000" pt_clust_7="13000.00000" pt_clust_8="13000.00000" pt_clust_9="39.80344"></scales>
<clustering>
<clus scale="   39.803">  1  9  2 -1</clus>
<clus scale="   81.726">  5  6 -1 -1</clus>
<clus scale="   92.260">  7  8 -1 -1</clus>
<clus scale="   94.708">  1  5  2 -1</clus>
<clus scale="   39.803">  1  5  2 -1</clus>
</clustering>
</event>
<event>
 9    1  0.6106093E-005  0.9204127E+02  0.7546771E-02  0.1304793E+00
          1   -1    0    0  502    0  0.00000000000E+00  0.00000000000E+00  0.37916800728E+02  0.37916800728E+02  0.00000000000E+00 0. -1.
         -2   -1    0    0    0  501 -0.00000000000E+00 -0.00000000000E+00 -0.56382177068E+03  0.56382177068E+03  0.00000000000E+00 0.  1.
        -24    2    1    2    0    0  0.98136106632E+01  0.25734757464E+02 -0.39352503421E+03  0.40242735944E+03  0.79543965033E+02 0.  0.
         23    2    1    2    0    0  0.10148199295E+02 -0.12754462911E+02 -0.34039434839E+02  0.98129118593E+02  0.90581336481E+02 0.  0.
         11    1    3    3    0    0  0.42312547291E+02  0.27627222271E+02 -0.26977637912E+03  0.27446841312E+03  0.00000000000E+00 0. -1.
        -12    1    3    3    0    0 -0.32498936628E+02 -0.18924648074E+01 -0.12374865510E+03  0.12795894632E+03  0.00000000000E+00 0.  1.
        -13    1    4    4    0    0  0.49313631637E+02 -0.40001661286E+01 -0.29841019178E+02  0.57778214059E+02  0.00000000000E+00 0. -1.
         13    1    4    4    0    0 -0.39165432342E+02 -0.87542967827E+01 -0.41984156612E+01  0.40350904534E+02  0.00000000000E+00 0.  1.
         21    1    1    2  502  501 -0.19961809958E+02 -0.12980294553E+02 -0.98340500902E+02  0.10118209338E+03  0.00000000000E+00 0.  1.
<scales pt_clust_5="13000.00000" pt_clust_6="13000.00000" pt_clust_7="13000.00000" pt_clust_8="13000.00000" pt_clust_9="23.81096"></scales>
<clustering>
<clus scale="   23.811">  2  9  1 -1</clus>
<clus scale="   79.544">  5  6 -1 -1</clus>
<clus scale="   81.203">  2  5  1 -1</clus>
<clus scale="   90.581">  7  8 -1 -1</clus>
<clus scale="   92.041">  1  5  2 -1</clus>
</clustering>
</event>
<event>
 9    1  0.6106093E-005  0.1368874E+03  0.7546771E-02  0.1221531E+00
          1   -1    0    0  502    0  0.00000000000E+00  0.00000000000E+00  0.99035458938E+02  0.99035458938E+02  0.00000000000E+00 0. -1.
         -2   -1    0    0    0  501 -0.00000000000E+00 -0.00000000000E+00 -0.25782559726E+03  0.25782559726E+03  0.00000000000E+00 0.  1.
        -24    2    1    2    0    0 -0.50615301846E+02 -0.98670537255E+02 -0.95204737726E+02  0.16657795886E+03  0.79915521582E+02 0.  0.
         23    2    1    2    0    0  0.26154305543E+02  0.86618084429E+02 -0.12850795288E+02  0.13268446771E+03  0.96193995566E+02 0.  0.
         11    1    3    3    0    0 -0.41739467329E+02 -0.20055262363E+02 -0.49725627674E+01  0.46573845255E+02  0.00000000000E+00 0. -1.
        -12    1    3    3    0    0 -0.88758345167E+01 -0.78615274892E+02 -0.90232174958E+02  0.12000411361E+03  0.00000000000E+00 0.  1.
        -11    1    4    4    0    0 -0.26908544935E+02  0.70943439850E+02 -0.14867905641E+02  0.77318148364E+02  0.00000000000E+00 0.  1.
         11    1    4    4    0    0  0.53062850479E+02  0.15674644579E+02  0.20171103526E+01  0.55366319345E+02  0.00000000000E+00 0. -1.
         21    1    1    2  502  501  0.24460996302E+02  0.12052452826E+02 -0.50734605305E+02  0.57598629625E+02  0.00000000000E+00 0.  1.
<scales pt_clust_5="13000.00000" pt_clust_6="13000.00000" pt_clust_7="13000.00000" pt_clust_8="13000.00000" pt_clust_9="27.26907"></scales>
<clustering>
<clus scale="   27.269">  2  9  1 -1</clus>
<clus scale="   79.916">  5  6 -1 -1</clus>
<clus scale="   96.194">  7  8 -1 -1</clus>
<clus scale="  125.982">  2  5  1 -1</clus>
<clus scale="  136.887">  1  5  2 -1</clus>
</clustering>
</event>
<event>
 9    1  0.6106093E-005  0.1884708E+03  0.7546771E-02  0.1161098E+00
          1   -1    0    0  502    0  0.00000000000E+00  0.00000000000E+00  0.81558059043E+03  0.81558059043E+03  0.00000000000E+00 0. -1.
         -2   -1    0    0    0  501 -0.00000000000E+00 -0.00000000000E+00 -0.53376475621E+02  0.53376475621E+02  0.00000000000E+00 0.  1.
         23    2    1    2    0    0 -0.16972495871E+03  0.32169196095E+02  0.31948460780E+03  0.37441082223E+03  0.90948504092E+02 0.  0.
        -24    2    1    2    0    0  0.16090851992E+03 -0.24343887187E+01  0.41812725979E+03  0.45496509950E+03  0.79154016644E+02 0.  0.
         13    1    4    4    0    0  0.11566685955E+03 -0.10088120848E+02  0.19318629965E+03  0.22539196736E+03  0.00000000000E+00 0. -1.
        -14    1    4    4    0    0  0.45241660372E+02  0.76537321289E+01  0.22494096014E+03  0.22957313213E+03  0.00000000000E+00 0.  1.
        -13    1    3    3    0    0 -0.14504828426E+03  0.36549492545E+02  0.31532529383E+03  0.34900560325E+03  0.00000000000E+00 0. -1.
         13    1    3    3    0    0 -0.24676674449E+02 -0.43802964499E+01  0.41593139745E+01  0.25405218983E+02  0.00000000000E+00 0.  1.
         21    1    1    2  502  501  0.88164387814E+01 -0.29734807377E+02  0.24592247218E+02  0.39581144321E+02  0.00000000000E+00 0. -1.
<scales pt_clust_5="13000.00000" pt_clust_6="13000.00000" pt_clust_7="13000.00000" pt_clust_8="13000.00000" pt_clust_9="31.01433"></scales>
<clustering>
<clus scale="   31.014">  2  9  1 -1</clus>
<clus scale="   79.154">  5  6 -1 -1</clus>
<clus scale="   90.949">  7  8 -1 -1</clus>
<clus scale="  183.071">  1  5  2 -1</clus>
<clus scale="  183.071">  1  5  2 -1</clus>
</clustering>
</event>
<event>
 9    1  0.6106093E-005  0.9241762E+02  0.7546771E-02  0.1303189E+00
          3   -1    0    0  502    0  0.00000000000E+00  0.00000000000E+00  0.46967115041E+02  0.46967115041E+02  0.00000000000E+00 0. -1.
         -4   -1    0    0    0  501 -0.00000000000E+00 -0.00000000000E+00 -0.40088137173E+03  0.40088137173E+03  0.00000000000E+00 0.  1.
        -24    2    1    2    0    0 -0.22959597323E+02 -0.34289076257E+02 -0.27622540037E+03  0.29054812814E+03  0.80092815512E+02 0.  0.
         23    2    1    2    0    0  0.19135125361E+01  0.16476534419E+02 -0.20708773061E+02  0.93999851369E+02  0.90177497520E+02 0.  0.
         11    1    3    3    0    0 -0.15072706872E+02 -0.60608832663E+02 -0.18347119702E+03  0.19380995131E+03  0.00000000000E+00 0. -1.
        -12    1    3    3    0    0 -0.78868904514E+01  0.26319756406E+02 -0.92754203348E+02  0.96738176833E+02  0.00000000000E+00 0.  1.
        -11    1    4    4    0    0 -0.31194346487E+02  0.33986263140E+02  0.79861595867E+01  0.46818074287E+02  0.00000000000E+00 0. -1.
         11    1    4    4    0    0  0.33107859024E+02 -0.17509728721E+02 -0.28694932648E+02  0.47181777082E+02  0.00000000000E+00 0.  1.
         21    1    1    2  502  501  0.21046084787E+02  0.17812541838E+02 -0.56980083264E+02  0.63300507268E+02  0.00000000000E+00 0.  1.
<scales pt_clust_5="13000.00000" pt_clust_6="13000.00000" pt_clust_7="13000.00000" pt_clust_8="13000.00000" pt_clust_9="27.57217"></scales>
<clustering>
<clus scale="   27.572">  2  9  1 -1</clus>
<clus scale="   80.093">  5  6 -1 -1</clus>
<clus scale="   82.607">  2  5  1 -1</clus>
<clus scale="   90.177">  7  8 -1 -1</clus>
<clus scale="   92.418">  1  5  2 -1</clus>
</clustering>
</event>
<event>
 9    1  0.6106093E-005  0.1107952E+03  0.7546771E-02  0.1262980E+00
         -2   -1    0    0    0  501 -0.00000000000E+00  0.00000000000E+00  0.34006856080E+02  0.34006856080E+02  0.00000000000E+00 0.  1.
          1   -1    0    0  502    0  0.00000000000E+00 -0.00000000000E+00 -0.54531272259E+03  0.54531272259E+03  0.00000000000E+00 0. -1.
        -24    2    1    2    0    0 -0.93440941439E+01  0.47247209062E+02 -0.86391493216E+02  0.12671575052E+03  0.79207199606E+02 0.  0.
         23    2    1    2    0    0 -0.11183896394E+02 -0.72873834462E+02 -0.37770750832E+03  0.39510069410E+03  0.89475814346E+02 0.  0.
         13    1    3    3    0    0  0.12444591504E+02  0.25113983704E+02 -0.91089387646E+02  0.95304021830E+02  0.00000000000E+00 0. -1.
        -14    1    3    3    0    0 -0.21788685648E+02  0.22133225358E+02  0.46978944298E+01  0.31411728687E+02  0.00000000000E+00 0.  1.
        -13    1    4    4    0    0  0.31846533445E+01 -0.90787220134E+02 -0.32795498436E+03  0.34030417735E+03  0.00000000000E+00 0. -1.
         13    1    4    4    0    0 -0.14368549739E+02  0.17913385672E+02 -0.49752523955E+02  0.54796516748E+02  0.00000000000E+00 0.  1.
         21    1    1    2  502  501  0.20527990538E+02  0.25626625399E+02 -0.47206864978E+02  0.57503134054E+02  0.00000000000E+00 0.  1.
<scales pt_clust_5="13000.00000" pt_clust_6="13000.00000" pt_clust_7="13000.00000" pt_clust_8="13000.00000" pt_clust_9="32.83477"></scales>
<clustering>
<clus scale="   32.835">  1  9  2 -1</clus>
<clus scale="   79.207">  5  6 -1 -1</clus>
<clus scale="   89.476">  7  8 -1 -1</clus>
<clus scale="  102.681">  1  5  2 -1</clus>
<clus scale="  110.795">  2  5  1 -1</clus>
</clustering>
</event>
<event>
 9    1  0.6106093E-005  0.1102827E+03  0.7546771E-02  0.1264835E+00
          1   -1    0    0  502    0  0.00000000000E+00  0.00000000000E+00  0.51205825085E+03  0.51205825085E+03  0.00000000000E+00 0. -1.
         -2   -1    0    0    0  501 -0.00000000000E+00 -0.00000000000E+00 -0.48909423362E+02  0.48909423362E+02  0.00000000000E+00 0.  1.
         23    2    1    2    0    0  0.97856684296E+01  0.48507244005E+02  0.22057441227E+03  0.24406989066E+03  0.92023519564E+02 0.  0.
        -24    2    1    2    0    0 -0.24363656780E+02 -0.66797127805E+02  0.26420354128E+03  0.28504096815E+03  0.79933711564E+02 0.  0.
         13    1    4    4    0    0 -0.22310655936E+02  0.75929910340E+01  0.12491579503E+03  0.12711952930E+03  0.00000000000E+00 0. -1.
        -14    1    4    4    0    0 -0.20530008436E+01 -0.74390118839E+02  0.13928774624E+03  0.15792143884E+03  0.00000000000E+00 0.  1.
        -13    1    3    3    0    0  0.12774703697E+02  0.68694423007E+02  0.10128705405E+03  0.12304951900E+03  0.00000000000E+00 0.  1.
         13    1    3    3    0    0 -0.29890352676E+01 -0.20187179002E+02  0.11928735821E+03  0.12102037166E+03  0.00000000000E+00 0. -1.
         21    1    1    2  502  501  0.14577988350E+02  0.18289883800E+02 -0.21629126056E+02  0.31856815404E+02  0.00000000000E+00 0.  1.
<scales pt_clust_5="13000.00000" pt_clust_6="13000.00000" pt_clust_7="13000.00000" pt_clust_8="13000.00000" pt_clust_9="23.38883"></scales>
<clustering>
<clus scale="   23.389">  2  9  1 -1</clus>
<clus scale="   79.934">  5  6 -1 -1</clus>
<clus scale="   92.024">  7  8 -1 -1</clus>
<clus scale="  100.416">  1  5  2 -1</clus>
<clus scale="  100.416">  1  5  2 -1</clus>
</clustering>
</event>
<event>
 9    1  0.1145969E-004  0.5435716E+03  0.7546771E-02  0.1003097E+00
          1   -1    0    0  502    0  0.00000000000E+00  0.00000000000E+00  0.73218969516E+03  0.73218969516E+03  0.00000000000E+00 0. -1.
         -2   -1    0    0    0  501 -0.00000000000E+00 -0.00000000000E+00 -0.17668624282E+04  0.17668624282E+04  0.00000000000E+00 0.  1.
         23    2    1    2    0    0 -0.43168694439E+03  0.77953071925E+02 -0.13423860160E+04  0.14152050093E+04  0.91513403543E+02 0.  0.
        -24    2    1    2    0    0  0.53070053714E+03  0.13389026545E+03  0.52644386162E+03  0.76365286489E+03  0.80329915493E+02 0.  0.
         13    1    4    4    0    0  0.49614420431E+03  0.10682642603E+03  0.46638859623E+03  0.68926720469E+03  0.00000000000E+00 0. -1.
        -14    1    4    4    0    0  0.34556332826E+02  0.27063839425E+02  0.60055265387E+02  0.74385660201E+02  0.00000000000E+00 0.  1.
        -11    1    3    3    0    0 -0.35955602426E+03  0.36232729144E+02 -0.11528045093E+04  0.12081190264E+04  0.00000000000E+00 0.  1.
         11    1    3    3    0    0 -0.72130920130E+02  0.41720342781E+02 -0.18958150672E+03  0.20708598294E+03  0.00000000000E+00 0. -1.
         21    1    1    2  502  501 -0.99013592743E+02 -0.21184333738E+03 -0.21873057858E+03  0.32019424908E+03  0.00000000000E+00 0.  1.
<scales pt_clust_5="13000.00000" pt_clust_6="13000.00000" pt_clust_7="13000.00000" pt_clust_8="13000.00000" pt_clust_9="233.84031"></scales>
<clustering>
<clus scale="   80.330">  5  6 -1 -1</clus>
<clus scale="   91.513">  7  8 -1 -1</clus>
<clus scale="  233.840">  2  9  1 -1</clus>
<clus scale="  541.801">  1  5  2 -1</clus>
<clus scale="  541.801">  1  5  2 -1</clus>
</clustering>
</event>
<event>
 9    1  0.6106093E-005  0.1150528E+03  0.7546771E-02  0.1253577E+00
          3   -1    0    0  502    0  0.00000000000E+00  0.00000000000E+00  0.84296207300E+02  0.84296207300E+02  0.00000000000E+00 0. -1.
         -4   -1    0    0    0  501 -0.00000000000E+00 -0.00000000000E+00 -0.30145516873E+03  0.30145516873E+03  0.00000000000E+00 0.  1.
         23    2    1    2    0    0 -0.80432830007E+02  0.35096435294E+02 -0.15751588030E+03  0.20084993398E+03  0.88477361623E+02 0.  0.
        -24    2    1    2    0    0  0.56206660859E+02  0.29076561923E+02 -0.20156428741E+02  0.10575425915E+03  0.82298520835E+02 0.  0.
         13    1    4    4    0    0  0.66667844539E+02 -0.51427078135E+01 -0.55180330631E+01  0.67093201056E+02  0.00000000000E+00 0. -1.
        -14    1    4    4    0    0 -0.10461183680E+02  0.34219269736E+02 -0.14638395678E+02  0.38661058098E+02  0.00000000000E+00 0.  1.
        -13    1    3    3    0    0 -0.45542727622E+02  0.62479802514E+01 -0.14748090824E+03  0.15447911053E+03  0.00000000000E+00 0.  1.
         13    1    3    3    0    0 -0.34890102384E+02  0.28848455043E+02 -0.10034972061E+02  0.46370823446E+02  0.00000000000E+00 0. -1.
         21    1    1    2  502  501  0.24226169148E+02 -0.64172997217E+02 -0.39486652389E+02  0.79147182896E+02  0.00000000000E+00 0. -1.
<scales pt_clust_5="13000.00000" pt_clust_6="13000.00000" pt_clust_7="13000.00000" pt_clust_8="13000.00000" pt_clust_9="68.59359"></scales>
<clustering>
<clus scale="   68.594">  1  9  2 -1</clus>
<clus scale="   82.299">  5  6 -1 -1</clus>
<clus scale="   88.477">  7  8 -1 -1</clus>
<clus scale="  110.372">  1  5  2 -1</clus>
<clus scale="   68.594">  1  5  2 -1</clus>
</clustering>
</event>
<event>
 9    1  0.6106093E-005  0.1841539E+03  0.7546771E-02  0.1166273E+00
         -2   -1    0    0    0  501 -0.00000000000E+00  0.00000000000E+00  0.26165951435E+02  0.26165951435E+02  0.00000000000E+00 0.  1.
          1   -1    0    0  502    0  0.00000000000E+00 -0.00000000000E+00 -0.15677641544E+04  0.15677641544E+04  0.00000000000E+00 0. -1.
         23    2    1    2    0    0  0.13069288826E+03 -0.10206004893E+03 -0.58398331942E+03  0.61528544516E+03  0.10021365690E+03 0.  0.
        -24    2    1    2    0    0 -0.12436919939E+03  0.82208461069E+02 -0.92169920651E+03  0.93712345601E+03  0.80280855009E+02 0.  0.
         11    1    4    4    0    0 -0.58206933429E+02  0.31825646072E+02 -0.20151645158E+03  0.21215512981E+03  0.00000000000E+00 0. -1.
        -12    1    4    4    0    0 -0.66162265958E+02  0.50382814997E+02 -0.72018275494E+03  0.72496832620E+03  0.00000000000E+00 0.  1.
        -11    1    3    3    0    0  0.11172360177E+03 -0.89415438016E+02 -0.57180543909E+03  0.58943934711E+03  0.00000000000E+00 0. -1.
         11    1    3    3    0    0  0.18969286485E+02 -0.12644610914E+02 -0.12177880334E+02  0.25846098049E+02  0.00000000000E+00 0.  1.
         21    1    1    2  502  501 -0.63236888711E+01  0.19851587861E+02 -0.35915677076E+02  0.41521204719E+02  0.00000000000E+00 0.  1.
<scales pt_clust_5="13000.00000" pt_clust_6="13000.00000" pt_clust_7="13000.00000" pt_clust_8="13000.00000" pt_clust_9="20.83446"></scales>
<clustering>
<clus scale="   20.834">  1  9  2 -1</clus>
<clus scale="   80.281">  5  6 -1 -1</clus>
<clus scale="  100.214">  7  8 -1 -1</clus>
<clus scale="  174.112">  2  5  1 -1</clus>
<clus scale="  174.112">  2  5  1 -1</clus>
</clustering>
</event>
<event>
 9    1  0.6106093E-005  0.9728625E+02  0.7546771E-02  0.1289674E+00
          1   -1    0    0  502    0  0.00000000000E+00  0.00000000000E+00  0.12563090329E+03  0.12563090329E+03  0.00000000000E+00 0. -1.
         -2   -1    0    0    0  501 -0.00000000000E+00 -0.00000000000E+00 -0.27638578253E+03  0.27638578253E+03  0.00000000000E+00 0.  1.
        -24    2    1    2    0    0 -0.12869289403E+02  0.41851321811E+02 -0.15687970861E+03  0.18332812000E+03  0.84147518446E+02 0.  0.
         23    2    1    2    0    0 -0.24259269218E+02  0.41208281966E+02  0.53557285078E+02  0.11608610240E+03  0.91219327667E+02 0.  0.
         11    1    3    3    0    0  0.27691858696E+02  0.29768706435E+02 -0.12164095763E+03  0.12825575034E+03  0.00000000000E+00 0. -1.
        -12    1    3    3    0    0 -0.40561148099E+02  0.12082615376E+02 -0.35238750978E+02  0.55072369659E+02  0.00000000000E+00 0.  1.
        -13    1    4    4    0    0 -0.13811860950E+02 -0.16264212737E+02  0.53579275134E+02  0.57671750821E+02  0.00000000000E+00 0. -1.
         13    1    4    4    0    0 -0.10447408268E+02  0.57472494703E+02 -0.21990056027E-01  0.58414351579E+02  0.00000000000E+00 0.  1.
         21    1    1    2  502  501  0.37128558621E+02 -0.83059603776E+02 -0.47432455713E+02  0.10260246342E+03  0.00000000000E+00 0.  1.
<scales pt_clust_5="13000.00000" pt_clust_6="13000.00000" pt_clust_7="13000.00000" pt_clust_8="13000.00000" pt_clust_9="90.98037"></scales>
<clustering>
<clus scale="   84.148">  5  6 -1 -1</clus>
<clus scale="   90.980">  2  9  1 -1</clus>
<clus scale="   90.980">  2  5  1 -1</clus>
<clus scale="   91.219">  7  8 -1 -1</clus>
<clus scale="   97.286">  1  5  2 -1</clus>
</clustering>
</event>
<event>
 9    1  0.6106093E-005  0.1058919E+03  0.7546771E-02  0.1272682E+00
         -4   -1    0    0    0  501 -0.00000000000E+00  0.00000000000E+00  0.82619149383E+03  0.82619149383E+03  0.00000000000E+00 0.  1.
          3   -1    0    0  502    0  0.00000000000E+00 -0.00000000000E+00 -0.22573778092E+02  0.22573778092E+02  0.00000000000E+00 0. -1.
        -24    2    1    2    0    0  0.36412316986E+02  0.11783225544E+02  0.48320406573E+03  0.49136725950E+03  0.80566204677E+02 0.  0.
         23    2    1    2    0    0 -0.60370310060E+02 -0.66706035087E+01  0.15134150783E+03  0.18656033041E+03  0.90616960895E+02 0.  0.
         13    1    3    3    0    0  0.24826909145E+02 -0.12407799461E+02  0.48836483943E+02  0.56172333662E+02  0.00000000000E+00 0. -1.
        -14    1    3    3    0    0  0.11585407842E+02  0.24191025005E+02  0.43436758179E+03  0.43519492584E+03  0.00000000000E+00 0.  1.
        -11    1    4    4    0    0 -0.30312815428E+02  0.39953501280E+02  0.95392326566E+02  0.10777219034E+03  0.00000000000E+00 0. -1.
         11    1    4    4    0    0 -0.30057494632E+02 -0.46624104788E+02  0.55949181268E+02  0.78788140068E+02  0.00000000000E+00 0.  1.
         21    1    1    2  502  501  0.23957993074E+02 -0.51126220353E+01  0.16907214217E+03  0.17083768201E+03  0.00000000000E+00 0.  1.
<scales pt_clust_5="13000.00000" pt_clust_6="13000.00000" pt_clust_7="13000.00000" pt_clust_8="13000.00000" pt_clust_9="24.49744"></scales>
<clustering>
<clus scale="   24.497">  1  9  2 -1</clus>
<clus scale="   80.566">  5  6 -1 -1</clus>
<clus scale="   90.617">  7  8 -1 -1</clus>
<clus scale="   97.430">  1  5  2 -1</clus>
<clus scale="  105.892">  2  5  1 -1</clus>
</clustering>
</event>
<event>
 9    1  0.6106093E-005  0.1208814E+03  0.7546771E-02  0.1246086E+00
          1   -1    0    0  502    0  0.00000000000E+00  0.00000000000E+00  0.25240082045E+03  0.25240082045E+03  0.00000000000E+00 0. -1.
         -2   -1    0    0    0  501 -0.00000000000E+00 -0.00000000000E+00 -0.41187616967E+03  0.41187616967E+03  0.00000000000E+00 0.  1.
        -24    2    1    2    0    0  0.13350901168E+02 -0.78444791585E+00 -0.33596819240E+03  0.34576810759E+03  0.80635575293E+02 0.  0.
         23    2    1    2    0    0 -0.64060128609E+02  0.45787104068E+02  0.20967552484E+03  0.24302540639E+03  0.94325836629E+02 0.  0.
         13    1    3    3    0    0  0.38802759179E+02 -0.14446062736E+02 -0.10291778977E+03  0.11093427920E+03  0.00000000000E+00 0. -1.
        -14    1    3    3    0    0 -0.25451858011E+02  0.13661614820E+02 -0.23305040263E+03  0.23483382840E+03  0.00000000000E+00 0.  1.
        -13    1    4    4    0    0 -0.56311726418E+02 -0.86225105432E+01  0.15652679542E+03  0.16657129376E+03  0.00000000000E+00 0.  1.
         13    1    4    4    0    0 -0.77484021910E+01  0.54409614611E+02  0.53148729423E+02  0.76454112630E+02  0.00000000000E+00 0. -1.
         21    1    1    2  502  501  0.50709227440E+02 -0.45002656152E+02 -0.33182681659E+02  0.75483476142E+02  0.00000000000E+00 0.  1.
<scales pt_clust_5="13000.00000" pt_clust_6="13000.00000" pt_clust_7="13000.00000" pt_clust_8="13000.00000" pt_clust_9="67.79871"></scales>
<clustering>
<clus scale="   67.799">  2  9  1 -1</clus>
<clus scale="   80.636">  5  6 -1 -1</clus>
<clus scale="   94.326">  7  8 -1 -1</clus>
<clus scale="  110.531">  2  5  1 -1</clus>
<clus scale="  120.881">  1  5  2 -1</clus>
</clustering>
</event>
<event>
 9    1  0.6106093E-005  0.9724781E+02  0.7546771E-02  0.1294086E+00
          1   -1    0    0  502    0  0.00000000000E+00  0.00000000000E+00  0.37493035702E+03  0.37493035702E+03  0.00000000000E+00 0. -1.
         -2   -1    0    0    0  501 -0.00000000000E+00 -0.00000000000E+00 -0.79575993864E+02  0.79575993864E+02  0.00000000000E+00 0.  1.
         23    2    1    2    0    0  0.13992240508E+01 -0.41096296397E+02  0.94878382134E+01  0.10373182538E+03  0.94759744185E+02 0.  0.
        -24    2    1    2    0    0 -0.49328951253E+01  0.19058889716E+02  0.30815804812E+03  0.31923017371E+03  0.80987322807E+02 0.  0.
         13    1    4    4    0    0  0.33000016917E+02  0.19090192248E+02  0.89123120528E+02  0.96934860443E+02  0.00000000000E+00 0. -1.
        -14    1    4    4    0    0 -0.37932912042E+02 -0.31302531539E-01  0.21903492759E+03  0.22229531326E+03  0.00000000000E+00 0.  1.
        -11    1    3    3    0    0 -0.38347116659E+02  0.89033631651E+01  0.19447219381E+01  0.39415138908E+02  0.00000000000E+00 0.  1.
         11    1    3    3    0    0  0.39746340710E+02 -0.49999659562E+02  0.75431162752E+01  0.64316686476E+02  0.00000000000E+00 0. -1.
         21    1    1    2  502  501  0.35336710745E+01  0.22037406681E+02 -0.22291523175E+02  0.31544351791E+02  0.00000000000E+00 0. -1.
<scales pt_clust_5="13000.00000" pt_clust_6="13000.00000" pt_clust_7="13000.00000" pt_clust_8="13000.00000" pt_clust_9="22.31892"></scales>
<clustering>
<clus scale="   22.319">  2  9  1 -1</clus>
<clus scale="   80.987">  5  6 -1 -1</clus>
<clus scale="   83.885">  1  5  2 -1</clus>
<clus scale="   94.760">  7  8 -1 -1</clus>
<clus scale="   83.885">  1  5  2 -1</clus>
</clustering>
</event>
<event>
 9    1  0.6106093E-005  0.1067671E+03  0.7546771E-02  0.1277487E+00
          1   -1    0    0  502    0  0.00000000000E+00  0.00000000000E+00  0.58989738061E+03  0.58989738061E+03  0.00000000000E+00 0. -1.
         -2   -1    0    0    0  501 -0.00000000000E+00 -0.00000000000E+00 -0.57114849258E+02  0.57114849258E+02  0.00000000000E+00 0.  1.
        -24    2    1    2    0    0  0.26969718579E+01  0.31785061584E+01  0.22819818495E+02  0.83277710071E+02  0.79981599884E+02 0.  0.
         23    2    1    2    0    0 -0.82055129403E+01 -0.38113513717E+02  0.51647207083E+03  0.52777383962E+03  0.10139948459E+03 0.  0.
         13    1    3    3    0    0  0.21423140251E+02  0.88817607685E+00  0.47557243783E+02  0.52167338739E+02  0.00000000000E+00 0. -1.
        -14    1    3    3    0    0 -0.18726168393E+02  0.22903300815E+01 -0.24737425287E+02  0.31110371332E+02  0.00000000000E+00 0.  1.
        -13    1    4    4    0    0  0.91874780685E+01  0.30580187958E+02  0.90957357185E+02  0.96399162210E+02  0.00000000000E+00 0.  1.
         13    1    4    4    0    0 -0.17392991009E+02 -0.68693701675E+02  0.42551471364E+03  0.43137467741E+03  0.00000000000E+00 0. -1.
         21    1    1    2  502  501  0.55085410824E+01  0.34935007559E+02 -0.65093579644E+01  0.35960680181E+02  0.00000000000E+00 0.  1.
<scales pt_clust_5="13000.00000" pt_clust_6="13000.00000" pt_clust_7="13000.00000" pt_clust_8="13000.00000" pt_clust_9="35.36663"></scales>
<clustering>
<clus scale="   35.367">  2  9  1 -1</clus>
<clus scale="   79.982">  5  6 -1 -1</clus>
<clus scale="   86.686">  2  5  1 -1</clus>
<clus scale="  101.399">  7  8 -1 -1</clus>
<clus scale="  106.767">  1  5  2 -1</clus>
</clustering>
</event>
<event>
 9    1  0.6106093E-005  0.1586734E+03  0.7546771E-02  0.1190433E+00
         -4   -1    0    0    0  501 -0.00000000000E+00  0.00000000000E+00  0.12137930624E+03  0.12137930624E+03  0.00000000000E+00 0.  1.
          3   -1    0    0  502    0  0.00000000000E+00 -0.00000000000E+00 -0.26541765291E+03  0.26541765291E+03  0.00000000000E+00 0. -1.
        -24    2    1    2    0    0 -0.10067639070E+03 -0.77113098425E+02 -0.37933553952E+02  0.16042169042E+03  0.90631113034E+02 0.  0.
         23    2    1    2    0    0  0.11687656200E+03  0.63260377014E+02 -0.54578407876E+02  0.17061406558E+03  0.92023642195E+02 0.  0.
         11    1    3    3    0    0 -0.87236520077E+02 -0.96002499523E+02 -0.43061846680E+02  0.13667850229E+03  0.00000000000E+00 0. -1.
        -12    1    3    3    0    0 -0.13439870621E+02  0.18889401099E+02  0.51282927283E+01  0.23743188128E+02  0.00000000000E+00 0.  1.
        -13    1    4    4    0    0  0.44538668835E+02  0.73736554521E+02 -0.14824626480E+02  0.87410194168E+02  0.00000000000E+00 0.  1.
         13    1    4    4    0    0  0.72337893168E+02 -0.10476177507E+02 -0.39753781395E+02  0.83203871415E+02  0.00000000000E+00 0. -1.
         21    1    1    2  502  501 -0.16200171305E+02  0.13852721411E+02 -0.51526384847E+02  0.55761203145E+02  0.00000000000E+00 0. -1.
<scales pt_clust_5="13000.00000" pt_clust_6="13000.00000" pt_clust_7="13000.00000" pt_clust_8="13000.00000" pt_clust_9="21.31533"></scales>
<clustering>
<clus scale="   21.315">  2  9  1 -1</clus>
<clus scale="   90.631">  5  6 -1 -1</clus>
<clus scale="   92.024">  7  8 -1 -1</clus>
<clus scale="  157.870">  1  5  2 -1</clus>
<clus scale="   21.315">  2  5  1 -1</clus>
</clustering>
</event>
<event>
 9    1  0.6106093E-005  0.1255429E+03  0.7546771E-02  0.1237223E+00
          1   -1    0    0  502    0  0.00000000000E+00  0.00000000000E+00  0.33046259929E+03  0.33046259929E+03  0.00000000000E+00 0. -1.
         -2   -1    0    0    0  501 -0.00000000000E+00 -0.00000000000E+00 -0.12703218848E+03  0.12703218848E+03  0.00000000000E+00 0.  1.
         23    2    1    2    0    0  0.42289881938E+02  0.79470632954E+02  0.47619036109E+02  0.13702865389E+03  0.91680225621E+02 0.  0.
        -24    2    1    2    0    0 -0.66115027223E+02 -0.55013379768E+02  0.21886201282E+03  0.24876412729E+03  0.81150117620E+02 0.  0.
         11    1    4    4    0    0 -0.26238111277E+02 -0.65259204319E+02  0.17499939209E+03  0.18860538026E+03  0.00000000000E+00 0. -1.
        -12    1    4    4    0    0 -0.39876915946E+02  0.10245824551E+02  0.43862620732E+02  0.60158747025E+02  0.00000000000E+00 0.  1.
        -11    1    3    3    0    0  0.59642257037E+02  0.26381262533E+02  0.25612348881E+01  0.65266605254E+02  0.00000000000E+00 0.  1.
         11    1    3    3    0    0 -0.17352375098E+02  0.53089370420E+02  0.45057801221E+02  0.71762048633E+02  0.00000000000E+00 0. -1.
         21    1    1    2  502  501  0.23825145285E+02 -0.24457253186E+02 -0.63050638127E+02  0.71702006593E+02  0.00000000000E+00 0.  1.
<scales pt_clust_5="13000.00000" pt_clust_6="13000.00000" pt_clust_7="13000.00000" pt_clust_8="13000.00000" pt_clust_9="34.14374"></scales>
<clustering>
<clus scale="   34.144">  2  9  1 -1</clus>
<clus scale="   81.150">  5  6 -1 -1</clus>
<clus scale="   91.680">  7  8 -1 -1</clus>
<clus scale="  118.072">  1  5  2 -1</clus>
<clus scale="  118.072">  1  5  2 -1</clus>
</clustering>
</event>
<event>
 9    1  0.6106093E-005  0.9552046E+02  0.7546771E-02  0.1295940E+00
         -2   -1    0    0    0  501 -0.00000000000E+00  0.00000000000E+00  0.95898273484E+02  0.95898273484E+02  0.00000000000E+00 0.  1.
          1   -1    0    0  502    0  0.00000000000E+00 -0.00000000000E+00 -0.22927648099E+03  0.22927648099E+03  0.00000000000E+00 0. -1.
        -24    2    1    2    0    0  0.47675259975E+00  0.53074589679E+01 -0.31837500140E+02  0.87654804823E+02  0.81494429132E+02 0.  0.
         23    2    1    2    0    0 -0.13025928360E+02 -0.34664541286E+02 -0.14982175331E+03  0.17963748692E+03  0.91933474369E+02 0.  0.
         13    1    3    3    0    0 -0.12675775380E+02  0.39350476107E+02 -0.30062154700E+02  0.51116224396E+02  0.00000000000E+00 0. -1.
        -14    1    3    3    0    0  0.13152527979E+02 -0.34043017139E+02 -0.17753454405E+01  0.36538580427E+02  0.00000000000E+00 0.  1.
        -13    1    4    4    0    0  0.34460780257E+02  0.45968124882E+01 -0.35023158750E+02  0.49348735645E+02  0.00000000000E+00 0. -1.
         13    1    4    4    0    0 -0.47486708617E+02 -0.39261353774E+02 -0.11479859456E+03  0.13028875127E+03  0.00000000000E+00 0.  1.
         21    1    1    2  502  501  0.12549175760E+02  0.29357082318E+02  0.48281045944E+02  0.57882462732E+02  0.00000000000E+00 0. -1.
<scales pt_clust_5="13000.00000" pt_clust_6="13000.00000" pt_clust_7="13000.00000" pt_clust_8="13000.00000" pt_clust_9="31.92679"></scales>
<clustering>
<clus scale="   31.927">  1  9  2 -1</clus>
<clus scale="   81.494">  5  6 -1 -1</clus>
<clus scale="   85.520">  1  5  2 -1</clus>
<clus scale="   91.933">  7  8 -1 -1</clus>
<clus scale="   95.520">  2  5  1 -1</clus>
</clustering>
</event>
<event>
 9    1  0.6106093E-005  0.9898554E+02  0.7546771E-02  0.1287709E+00
          1   -1    0    0  502    0  0.00000000000E+00  0.00000000000E+00  0.43519787567E+03  0.43519787567E+03  0.00000000000E+00 0. -1.
         -2   -1    0    0    0  501 -0.00000000000E+00 -0.00000000000E+00 -0.37373518454E+02  0.37373518454E+02  0.00000000000E+00 0.  1.
        -24    2    1    2    0    0 -0.50667149465E+02 -0.20023404088E+02  0.66493548603E+02  0.11765984919E+03  0.80338977838E+02 0.  0.
         23    2    1    2    0    0  0.34978995586E+02  0.66903251297E+01  0.31130554686E+03  0.32619046774E+03  0.90668556603E+02 0.  0.
         11    1    3    3    0    0 -0.67715569324E+02  0.67757750290E+00  0.58998374424E+02  0.89814618102E+02  0.00000000000E+00 0. -1.
        -12    1    3    3    0    0  0.17048419859E+02 -0.20700981591E+02  0.74951741784E+01  0.27845231090E+02  0.00000000000E+00 0.  1.
        -11    1    4    4    0    0  0.61059679101E+02 -0.11191824612E+02  0.24482316320E+03  0.25257062891E+03  0.00000000000E+00 0.  1.
         11    1    4    4    0    0 -0.26080683515E+02  0.17882149742E+02  0.66482383665E+02  0.73619838833E+02  0.00000000000E+00 0. -1.
         21    1    1    2  502  501  0.15688153879E+02  0.13333078958E+02  0.20025261750E+02  0.28721077187E+02  0.00000000000E+00 0. -1.
<scales pt_clust_5="13000.00000" pt_clust_6="13000.00000" pt_clust_7="13000.00000" pt_clust_8="13000.00000" pt_clust_9="20.58857"></scales>
<clustering>
<clus scale="   20.589">  2  9  1 -1</clus>
<clus scale="   80.339">  5  6 -1 -1</clus>
<clus scale="   89.620">  2  5  1 -1</clus>
<clus scale="   90.669">  7  8 -1 -1</clus>
<clus scale="   98.986">  1  5  2 -1</clus>
</clustering>
</event>
<event>
 9    1  0.6106093E-005  0.1311148E+03  0.7546771E-02  0.1229626E+00
          1   -1    0    0  502    0  0.00000000000E+00  0.00000000000E+00  0.45570685241E+03  0.45570685241E+03  0.00000000000E+00 0. -1.
         -2   -1    0    0    0  501 -0.00000000000E+00 -0.00000000000E+00 -0.13838798537E+03  0.13838798537E+03  0.00000000000E+00 0.  1.
        -24    2    1    2    0    0  0.51787727935E+02  0.81202602586E+02 -0.44148460370E+02  0.13190382241E+03  0.78572898513E+02 0.  0.
         23    2    1    2    0    0 -0.70506916553E+02 -0.59388809143E+02  0.39607216302E+03  0.41720497026E+03  0.93212515025E+02 0.  0.
         11    1    3    3    0    0  0.21357847205E+02  0.40995411049E+02  0.19951897810E+02  0.50347389113E+02  0.00000000000E+00 0. -1.
        -12    1    3    3    0    0  0.30429880730E+02  0.40207191537E+02 -0.64100358180E+02  0.81556433292E+02  0.00000000000E+00 0.  1.
        -13    1    4    4    0    0 -0.90928664209E+02 -0.61409811495E+02  0.34932409424E+03  0.36615093846E+03  0.00000000000E+00 0. -1.
         13    1    4    4    0    0  0.20421747656E+02  0.20210023515E+01  0.46748068786E+02  0.51054031800E+02  0.00000000000E+00 0.  1.
         21    1    1    2  502  501  0.18719188618E+02 -0.21813793443E+02 -0.34604835611E+02  0.44986045109E+02  0.00000000000E+00 0.  1.
<scales pt_clust_5="13000.00000" pt_clust_6="13000.00000" pt_clust_7="13000.00000" pt_clust_8="13000.00000" pt_clust_9="28.74456"></scales>
<clustering>
<clus scale="   28.745">  2  9  1 -1</clus>
<clus scale="   78.573">  5  6 -1 -1</clus>
<clus scale="   93.213">  7  8 -1 -1</clus>
<clus scale="  121.145">  2  5  1 -1</clus>
<clus scale="  131.115">  1  5  2 -1</clus>
</clustering>
</event>
<event>
 9    1  0.6106093E-005  0.1193497E+03  0.7546771E-02  0.1247898E+00
         -2   -1    0    0    0  501 -0.00000000000E+00  0.00000000000E+00  0.10961086774E+03  0.10961086774E+03  0.00000000000E+00 0.  1.
          1   -1    0    0  502    0  0.00000000000E+00 -0.00000000000E+00 -0.22382955972E+03  0.22382955972E+03  0.00000000000E+00 0. -1.
         23    2    1    2    0    0  0.86445604350E+02  0.21736641867E+02 -0.95918582233E+02  0.15918371095E+03  0.90519364238E+02 0.  0.
        -24    2    1    2    0    0 -0.63182585057E+02 -0.24307877367E+02 -0.64623123125E+02  0.12235680430E+03  0.78817051202E+02 0.  0.
         13    1    4    4    0    0 -0.12942128556E+02 -0.20926776723E+02 -0.67575965469E+02  0.71916199737E+02  0.00000000000E+00 0. -1.
        -14    1    4    4    0    0 -0.50240456501E+02 -0.33811006442E+01  0.29528423444E+01  0.50440604565E+02  0.00000000000E+00 0.  1.
        -13    1    3    3    0    0  0.50325416552E+02 -0.10667743951E+02  0.27420740593E+00  0.51444372888E+02  0.00000000000E+00 0.  1.
         13    1    3    3    0    0  0.36120187798E+02  0.32404385818E+02 -0.96192789639E+02  0.10773933806E+03  0.00000000000E+00 0. -1.
         21    1    1    2  502  501 -0.23263019293E+02  0.25712354998E+01  0.46323013382E+02  0.51899912210E+02  0.00000000000E+00 0.  1.
<scales pt_clust_5="13000.00000" pt_clust_6="13000.00000" pt_clust_7="13000.00000" pt_clust_8="13000.00000" pt_clust_9="23.40469"></scales>
<clustering>
<clus scale="   23.405">  1  9  2 -1</clus>
<clus scale="   78.817">  5  6 -1 -1</clus>
<clus scale="   90.519">  7  8 -1 -1</clus>
<clus scale="  110.737">  2  5  1 -1</clus>
<clus scale="  110.737">  2  5  1 -1</clus>
</clustering>
</event>
<event>
 9    1  0.6106093E-005  0.2360483E+03  0.7546771E-02  0.1123327E+00
          1   -1    0    0  502    0  0.00000000000E+00  0.00000000000E+00  0.12813314780E+03  0.12813314780E+03  0.00000000000E+00 0. -1.
         -2   -1    0    0    0  501 -0.00000000000E+00 -0.00000000000E+00 -0.56111298906E+03  0.56111298906E+03  0.00000000000E+00 0.  1.
         23    2    1    2    0    0  0.19176085957E+03  0.52585674386E+02 -0.34548989204E+03  0.40972400624E+03  0.94726001565E+02 0.  0.
        -24    2    1    2    0    0 -0.21613586177E+03 -0.56493500824E+02 -0.65784487576E+02  0.24665057902E+03  0.81256894760E+02 0.  0.
         11    1    4    4    0    0 -0.14447443347E+03  0.30489670572E+01 -0.37803949881E+02  0.14936966477E+03  0.00000000000E+00 0. -1.
        -12    1    4    4    0    0 -0.71661428299E+02 -0.59542467881E+02 -0.27980537695E+02  0.97280914248E+02  0.00000000000E+00 0.  1.
        -11    1    3    3    0    0  0.80487715779E+02 -0.21861689130E+02 -0.16630422352E+03  0.18604650118E+03  0.00000000000E+00 0.  1.
         11    1    3    3    0    0  0.11127314379E+03  0.74447363516E+02 -0.17918566852E+03  0.22367750505E+03  0.00000000000E+00 0. -1.
         21    1    1    2  502  501  0.24375002207E+02  0.39078264378E+01 -0.21705461642E+02  0.32871551608E+02  0.00000000000E+00 0. -1.
<scales pt_clust_5="13000.00000" pt_clust_6="13000.00000" pt_clust_7="13000.00000" pt_clust_8="13000.00000" pt_clust_9="24.68627"></scales>
<clustering>
<clus scale="   24.686">  2  9  1 -1</clus>
<clus scale="   81.257">  5  6 -1 -1</clus>
<clus scale="   94.726">  7  8 -1 -1</clus>
<clus scale="  230.973">  1  5  2 -1</clus>
<clus scale="  230.973">  1  5  2 -1</clus>
</clustering>
</event>
<event>
 9    1  0.6106093E-005  0.1267412E+03  0.7546771E-02  0.1237370E+00
         -2   -1    0    0    0  501 -0.00000000000E+00  0.00000000000E+00  0.10367771503E+04  0.10367771503E+04  0.00000000000E+00 0.  1.
          1   -1    0    0  502    0  0.00000000000E+00 -0.00000000000E+00 -0.50719004510E+02  0.50719004510E+02  0.00000000000E+00 0. -1.
        -24    2    1    2    0    0  0.64314409227E+02 -0.35575883043E+02  0.80104821782E+03  0.80792111359E+03  0.75208322916E+02 0.  0.
         23    2    1    2    0    0 -0.85545272768E+02  0.20199623750E+02  0.42637782843E+02  0.13480969099E+03  0.92895929766E+02 0.  0.
         11    1    3    3    0    0  0.23192979802E+02  0.14030009391E+02  0.90893203908E+02  0.94848985193E+02  0.00000000000E+00 0. -1.
        -12    1    3    3    0    0  0.41121429425E+02 -0.49605892434E+02  0.71015501391E+03  0.71307212840E+03  0.00000000000E+00 0.  1.
        -11    1    4    4    0    0  0.63744225131E+01  0.33750178483E+02  0.17541175494E+02  0.38566833519E+02  0.00000000000E+00 0.  1.
         11    1    4    4    0    0 -0.91919695281E+02 -0.13550554733E+02  0.25096607350E+02  0.96242857473E+02  0.00000000000E+00 0. -1.
         21    1    1    2  502  501  0.21230863540E+02  0.15376259293E+02  0.14237214513E+03  0.14476535022E+03  0.00000000000E+00 0. -1.
<scales pt_clust_5="13000.00000" pt_clust_6="13000.00000" pt_clust_7="13000.00000" pt_clust_8="13000.00000" pt_clust_9="26.21410"></scales>
<clustering>
<clus scale="   26.214">  1  9  2 -1</clus>
<clus scale="   75.208">  5  6 -1 -1</clus>
<clus scale="   92.896">  7  8 -1 -1</clus>
<clus scale="  114.411">  1  5  2 -1</clus>
<clus scale="  126.741">  2  5  1 -1</clus>
</clustering>
</event>
<event>
 9    1  0.6106093E-005  0.1000629E+03  0.7546771E-02  0.1286283E+00
         -2   -1    0    0    0  501 -0.00000000000E+00  0.00000000000E+00  0.12124516376E+03  0.12124516376E+03  0.00000000000E+00 0.  1.
          1   -1    0    0  502    0  0.00000000000E+00 -0.00000000000E+00 -0.21126565482E+03  0.21126565482E+03  0.00000000000E+00 0. -1.
        -24    2    1    2    0    0 -0.15905826473E+02  0.28939820599E+02  0.50282549844E+02  0.99142401324E+02  0.78805915954E+02 0.  0.
         23    2    1    2    0    0  0.36558231355E+02 -0.24175277762E+02 -0.16948566014E+03  0.19730114730E+03  0.91002227422E+02 0.  0.
         11    1    3    3    0    0  0.11764508111E+02 -0.16777738200E+02 -0.61777939965E+01  0.21402366431E+02  0.00000000000E+00 0. -1.
        -12    1    3    3    0    0 -0.27670334584E+02  0.45717558799E+02  0.56460343840E+02  0.77740034892E+02  0.00000000000E+00 0.  1.
        -11    1    4    4    0    0  0.21854958311E+02 -0.58389449650E+02 -0.12148414492E+03  0.13654803001E+03  0.00000000000E+00 0. -1.
         11    1    4    4    0    0  0.14703273044E+02  0.34214171888E+02 -0.48001515229E+02  0.60753117290E+02  0.00000000000E+00 0.  1.
         21    1    1    2  502  501 -0.20652404883E+02 -0.47645428368E+01  0.29182619245E+02  0.36067269954E+02  0.00000000000E+00 0.  1.
<scales pt_clust_5="13000.00000" pt_clust_6="13000.00000" pt_clust_7="13000.00000" pt_clust_8="13000.00000" pt_clust_9="21.19487"></scales>
<clustering>
<clus scale="   21.195">  1  9  2 -1</clus>
<clus scale="   78.806">  5  6 -1 -1</clus>
<clus scale="   89.115">  1  5  2 -1</clus>
<clus scale="   91.002">  7  8 -1 -1</clus>
<clus scale="  100.063">  2  5  1 -1</clus>
</clustering>
</event>
<event>
 9    1  0.6106093E-005  0.1552055E+03  0.7546771E-02  0.1203926E+00
          1   -1    0    0  502    0  0.00000000000E+00  0.00000000000E+00  0.16319084030E+04  0.16319084030E+04  0.00000000000E+00 0. -1.
         -2   -1    0    0    0  501 -0.00000000000E+00 -0.00000000000E+00 -0.48466735312E+02  0.48466735312E+02  0.00000000000E+00 0.  1.
         23    2    1    2    0    0 -0.86301603391E+02  0.87757371806E+01  0.15959923038E+03  0.20313050071E+03  0.90912626570E+02 0.  0.
        -24    2    1    2    0    0 -0.12260741158E+03 -0.32865569083E+02  0.92921384823E+03  0.93976837053E+03  0.60112323969E+02 0.  0.
         11    1    4    4    0    0 -0.77785795845E+02  0.26270484722E+01  0.40210717627E+03  0.40957015593E+03  0.00000000000E+00 0. -1.
        -12    1    4    4    0    0 -0.44821615731E+02 -0.35492617555E+02  0.52710667196E+03  0.53019821460E+03  0.00000000000E+00 0.  1.
        -11    1    3    3    0    0  0.16613112096E+02 -0.11385929415E+02  0.33870959326E+02  0.39406557422E+02  0.00000000000E+00 0. -1.
         11    1    3    3    0    0 -0.10291471549E+03  0.20161666596E+02  0.12572827105E+03  0.16372394329E+03  0.00000000000E+00 0.  1.
         21    1    1    2  502  501  0.20890901497E+03  0.24089831903E+02  0.49462858905E+03  0.53747626705E+03  0.00000000000E+00 0.  1.
<scales pt_clust_5="13000.00000" pt_clust_6="13000.00000" pt_clust_7="13000.00000" pt_clust_8="13000.00000" pt_clust_9="143.09174"></scales>
<clustering>
<clus scale="   60.112">  5  6 -1 -1</clus>
<clus scale="   90.913">  7  8 -1 -1</clus>
<clus scale="  125.659">  2  7  1 -1</clus>
<clus scale="  143.092">  2  9  1 -1</clus>
<clus scale="  155.205">  1  5  2 -1</clus>
</clustering>
</event>
<event>
 9    1  0.6106093E-005  0.9223720E+02  0.7546771E-02  0.1304589E+00
         -4   -1    0    0    0  501 -0.00000000000E+00  0.00000000000E+00  0.61899754582E+03  0.61899754582E+03  0.00000000000E+00 0.  1.
          3   -1    0    0  502    0  0.00000000000E+00 -0.00000000000E+00 -0.42334061392E+02  0.42334061392E+02  0.00000000000E+00 0. -1.
        -24    2    1    2    0    0  0.12007593726E+02  0.23134118966E+02  0.33255565127E+03  0.34323027590E+03  0.80835582150E+02 0.  0.
         23    2    1    2    0    0 -0.33829875888E+01  0.60873405436E+01  0.23377433323E+02  0.95278112274E+02  0.92102735952E+02 0.  0.
         13    1    3    3    0    0 -0.25934426130E+02  0.36435512050E+02  0.17696266071E+03  0.18252650296E+03  0.00000000000E+00 0. -1.
        -14    1    3    3    0    0  0.37942019856E+02 -0.13301393085E+02  0.15559299055E+03  0.16070377294E+03  0.00000000000E+00 0.  1.
        -13    1    4    4    0    0  0.27053640253E+02 -0.13797194749E+02  0.44013208675E+02  0.53473587609E+02  0.00000000000E+00 0.  1.
         13    1    4    4    0    0 -0.30436627842E+02  0.19884535293E+02 -0.20635775352E+02  0.41804524666E+02  0.00000000000E+00 0. -1.
         21    1    1    2  502  501 -0.86246061373E+01 -0.29221459509E+02  0.22073039984E+03  0.22282321904E+03  0.00000000000E+00 0.  1.
<scales pt_clust_5="13000.00000" pt_clust_6="13000.00000" pt_clust_7="13000.00000" pt_clust_8="13000.00000" pt_clust_9="30.46765"></scales>
<clustering>
<clus scale="   30.468">  1  9  2 -1</clus>
<clus scale="   80.836">  5  6 -1 -1</clus>
<clus scale="   80.989">  1  5  2 -1</clus>
<clus scale="   92.103">  7  8 -1 -1</clus>
<clus scale="   92.237">  2  5  1 -1</clus>
</clustering>
</event>
<event>
 9    1  0.6106093E-005  0.1565389E+03  0.7546771E-02  0.1193095E+00
         -2   -1    0    0    0  501 -0.00000000000E+00  0.00000000000E+00  0.40074576413E+02  0.40074576413E+02  0.00000000000E+00 0.  1.
          1   -1    0    0  502    0  0.00000000000E+00 -0.00000000000E+00 -0.87147143777E+03  0.87147143777E+03  0.00000000000E+00 0. -1.
         23    2    1    2    0    0 -0.48096883170E+02  0.12607581303E+03 -0.39747215089E+03  0.42952745807E+03  0.91111501458E+02 0.  0.
        -24    2    1    2    0    0  0.52748223724E+02 -0.10581018696E+03 -0.43578661532E+03  0.46114279843E+03  0.93619098889E+02 0.  0.
         13    1    4    4    0    0  0.34452664546E+02 -0.77792612989E+02 -0.41043794855E+03  0.41916343631E+03  0.00000000000E+00 0. -1.
        -14    1    4    4    0    0  0.18295559178E+02 -0.28017573966E+02 -0.25348666775E+02  0.41979362118E+02  0.00000000000E+00 0.  1.
        -11    1    3    3    0    0  0.33900930967E+01  0.78515052123E+02 -0.12079166479E+03  0.14410667030E+03  0.00000000000E+00 0.  1.
         11    1    3    3    0    0 -0.51486976266E+02  0.47560760911E+02 -0.27668048610E+03  0.28542078777E+03  0.00000000000E+00 0. -1.
         21    1    1    2  502  501 -0.46513405543E+01 -0.20265626078E+02  0.18619048581E+01  0.20875757687E+02  0.00000000000E+00 0. -1.
<scales pt_clust_5="13000.00000" pt_clust_6="13000.00000" pt_clust_7="13000.00000" pt_clust_8="13000.00000" pt_clust_9="20.79256"></scales>
<clustering>
<clus scale="   20.793">  1  9  2 -1</clus>
<clus scale="   91.112">  7  8 -1 -1</clus>
<clus scale="   93.619">  5  6 -1 -1</clus>
<clus scale="  155.052">  1  7  2 -1</clus>
<clus scale="  156.539">  2  5  1 -1</clus>
</clustering>
</event>
<event>
 9    1  0.6106093E-005  0.3073412E+03  0.7546771E-02  0.1081948E+00
          1   -1    0    0  502    0  0.00000000000E+00  0.00000000000E+00  0.10229188892E+04  0.10229188892E+04  0.00000000000E+00 0. -1.
         -2   -1    0    0    0  501 -0.00000000000E+00 -0.00000000000E+00 -0.10344166992E+03  0.10344166992E+03  0.00000000000E+00 0.  1.
        -24    2    1    2    0    0  0.28958751299E+02  0.27901047607E+03  0.34982091896E+03  0.45587687411E+03  0.82241072277E+02 0.  0.
         23    2    1    2    0    0 -0.36541289697E+02 -0.30131733442E+03  0.56279979272E+03  0.64594590769E+03  0.91515611289E+02 0.  0.
         11    1    3    3    0    0  0.17895034379E+02  0.39181210767E+02  0.10254100134E+03  0.11122075566E+03  0.00000000000E+00 0. -1.
        -12    1    3    3    0    0  0.11063716920E+02  0.23982926530E+03  0.24727991762E+03  0.34465611845E+03  0.00000000000E+00 0.  1.
        -11    1    4    4    0    0  0.30059976148E+02 -0.94672655405E+02  0.15893374524E+03  0.18742051442E+03  0.00000000000E+00 0. -1.
         11    1    4    4    0    0 -0.66601265845E+02 -0.20664467901E+03  0.40386604747E+03  0.45852539327E+03  0.00000000000E+00 0.  1.
         21    1    1    2  502  501  0.75825383983E+01  0.22306858350E+02  0.68565075625E+01  0.24537777283E+02  0.00000000000E+00 0.  1.
<scales pt_clust_5="13000.00000" pt_clust_6="13000.00000" pt_clust_7="13000.00000" pt_clust_8="13000.00000" pt_clust_9="23.56037"></scales>
<clustering>
<clus scale="   23.560">  2  9  1 -1</clus>
<clus scale="   82.241">  5  6 -1 -1</clus>
<clus scale="   91.516">  7  8 -1 -1</clus>
<clus scale="  304.708">  2  5  1 -1</clus>
<clus scale="  307.341">  1  5  2 -1</clus>
</clustering>
</event>
<event>
 9    1  0.6106093E-005  0.9504104E+02  0.7546771E-02  0.1298602E+00
          1   -1    0    0  502    0  0.00000000000E+00  0.00000000000E+00  0.18801592356E+03  0.18801592356E+03  0.00000000000E+00 0. -1.
         -2   -1    0    0    0  501 -0.00000000000E+00 -0.00000000000E+00 -0.16726903407E+03  0.16726903407E+03  0.00000000000E+00 0.  1.
         23    2    1    2    0    0  0.40780509646E+02  0.68404801382E+01 -0.11266940820E+03  0.15191788475E+03  0.93138638741E+02 0.  0.
        -24    2    1    2    0    0 -0.13934835243E+02 -0.10503873112E+02  0.15035299335E+03  0.17141457154E+03  0.80451362594E+02 0.  0.
         11    1    4    4    0    0  0.14268843945E+02 -0.27296038462E+02  0.12811813403E+03  0.13176847077E+03  0.00000000000E+00 0. -1.
        -12    1    4    4    0    0 -0.28203679188E+02  0.16792165350E+02  0.22234859323E+02  0.39646100767E+02  0.00000000000E+00 0.  1.
        -11    1    3    3    0    0  0.40890382350E+02  0.46228164440E+02 -0.77848249151E+02  0.99344936721E+02  0.00000000000E+00 0.  1.
         11    1    3    3    0    0 -0.10987270475E+00 -0.39387684302E+02 -0.34821159052E+02  0.52572948028E+02  0.00000000000E+00 0. -1.
         21    1    1    2  502  501 -0.26845674403E+02  0.36633929742E+01 -0.16936695660E+02  0.31952501343E+02  0.00000000000E+00 0. -1.
<scales pt_clust_5="13000.00000" pt_clust_6="13000.00000" pt_clust_7="13000.00000" pt_clust_8="13000.00000" pt_clust_9="27.09448"></scales>
<clustering>
<clus scale="   27.094">  2  9  1 -1</clus>
<clus scale="   80.451">  5  6 -1 -1</clus>
<clus scale="   82.646">  1  5  2 -1</clus>
<clus scale="   93.139">  7  8 -1 -1</clus>
<clus scale="   82.646">  1  5  2 -1</clus>
</clustering>
</event>
<event>
 9    1  0.6106093E-005  0.9643815E+02  0.7546771E-02  0.1295165E+00
         -4   -1    0    0    0  501 -0.00000000000E+00  0.00000000000E+00  0.10865985993E+03  0.10865985993E+03  0.00000000000E+00 0.  1.
          3   -1    0    0  502    0  0.00000000000E+00 -0.00000000000E+00 -0.14582376688E+03  0.14582376688E+03  0.00000000000E+00 0. -1.
         23    2    1    2    0    0 -0.10237779165E+02  0.75859969921E+01  0.29971050827E+02  0.98813016019E+02  0.93291954501E+02 0.  0.
        -24    2    1    2    0    0  0.27733849044E+02  0.75533498421E+01 -0.89222371216E+02  0.12368364288E+03  0.80689482059E+02 0.  0.
         13    1    4    4    0    0  0.70906462245E+01  0.19453709280E+02 -0.96557384797E+02  0.98752481626E+02  0.00000000000E+00 0. -1.
        -14    1    4    4    0    0  0.20643202820E+02 -0.11900359438E+02  0.73350135805E+01  0.24931161257E+02  0.00000000000E+00 0.  1.
        -13    1    3    3    0    0 -0.25989161407E+02  0.41032413637E+02 -0.38286864716E+01  0.48721189637E+02  0.00000000000E+00 0.  1.
         13    1    3    3    0    0  0.15751382242E+02 -0.33446416645E+02  0.33799737298E+02  0.50091826383E+02  0.00000000000E+00 0. -1.
         21    1    1    2  502  501 -0.17496069879E+02 -0.15139346834E+02  0.22087413439E+02  0.31986967912E+02  0.00000000000E+00 0.  1.
<scales pt_clust_5="13000.00000" pt_clust_6="13000.00000" pt_clust_7="13000.00000" pt_clust_8="13000.00000" pt_clust_9="23.13682"></scales>
<clustering>
<clus scale="   23.137">  1  9  2 -1</clus>
<clus scale="   80.689">  5  6 -1 -1</clus>
<clus scale="   84.307">  2  5  1 -1</clus>
<clus scale="   93.292">  7  8 -1 -1</clus>
<clus scale="   84.307">  2  5  1 -1</clus>
</clustering>
</event>
<event>
 9    1  0.6106093E-005  0.2252690E+03  0.7546771E-02  0.1130747E+00
          1   -1    0    0  502    0  0.00000000000E+00  0.00000000000E+00  0.28368115076E+03  0.28368115076E+03  0.00000000000E+00 0. -1.
         -2   -1    0    0    0  501 -0.00000000000E+00 -0.00000000000E+00 -0.34692428499E+03  0.34692428499E+03  0.00000000000E+00 0.  1.
        -24    2    1    2    0    0 -0.12808749311E+03  0.20273652535E+03 -0.84624202380E+02  0.26675820240E+03  0.80561642959E+02 0.  0.
         23    2    1    2    0    0  0.58406497690E+02 -0.18682707436E+03  0.11616590074E+03  0.24513448660E+03  0.90998490855E+02 0.  0.
         11    1    3    3    0    0 -0.26470876740E+02  0.10124543790E+03 -0.10598152226E+02  0.10518396666E+03  0.00000000000E+00 0. -1.
        -12    1    3    3    0    0 -0.10161661637E+03  0.10149108745E+03 -0.74026050154E+02  0.16157423575E+03  0.00000000000E+00 0.  1.
        -11    1    4    4    0    0  0.81695069333E+01 -0.61559156192E+02  0.87271638837E+02  0.10711026795E+03  0.00000000000E+00 0. -1.
         11    1    4    4    0    0  0.50236990756E+02 -0.12526791817E+03  0.28894261901E+02  0.13802421865E+03  0.00000000000E+00 0.  1.
         21    1    1    2  502  501  0.69680995422E+02 -0.15909450992E+02 -0.94784832586E+02  0.11871274676E+03  0.00000000000E+00 0. -1.
<scales pt_clust_5="13000.00000" pt_clust_6="13000.00000" pt_clust_7="13000.00000" pt_clust_8="13000.00000" pt_clust_9="71.47413"></scales>
<clustering>
<clus scale="   71.474">  2  9  1 -1</clus>
<clus scale="   80.562">  5  6 -1 -1</clus>
<clus scale="   90.998">  7  8 -1 -1</clus>
<clus scale="  221.259">  2  5  1 -1</clus>
<clus scale="  225.269">  1  5  2 -1</clus>
</clustering>
</event>
<event>
 9    1  0.6106093E-005  0.1243335E+03  0.7546771E-02  0.1239639E+00
         -4   -1    0    0    0  501 -0.00000000000E+00  0.00000000000E+00  0.16612388040E+03  0.16612388040E+03  0.00000000000E+00 0.  1.
          3   -1    0    0  502    0  0.00000000000E+00 -0.00000000000E+00 -0.32843378799E+03  0.32843378799E+03  0.00000000000E+00 0. -1.
        -24    2    1    2    0    0 -0.11846766754E+02  0.84187986415E+02  0.12330809562E+03  0.17048994418E+03  0.81449196930E+02 0.  0.
         23    2    1    2    0    0  0.30292200543E+02 -0.48444125411E+02 -0.23655456743E+03  0.26062421898E+03  0.93287027214E+02 0.  0.
         13    1    3    3    0    0 -0.16757878452E+02 -0.12012655129E+02  0.29836067365E+02  0.36267358454E+02  0.00000000000E+00 0. -1.
        -14    1    3    3    0    0  0.49111116978E+01  0.96200641544E+02  0.93472028255E+02  0.13422258572E+03  0.00000000000E+00 0.  1.
        -13    1    4    4    0    0 -0.10152606966E+02 -0.43786971430E+02 -0.40876314474E+02  0.60755636613E+02  0.00000000000E+00 0.  1.
         13    1    4    4    0    0  0.40444807509E+02 -0.46571539806E+01 -0.19567825296E+03  0.19986858237E+03  0.00000000000E+00 0. -1.
         21    1    1    2  502  501 -0.18445433790E+02 -0.35743861004E+02 -0.49063435778E+02  0.63443505243E+02  0.00000000000E+00 0. -1.
<scales pt_clust_5="13000.00000" pt_clust_6="13000.00000" pt_clust_7="13000.00000" pt_clust_8="13000.00000" pt_clust_9="40.22260"></scales>
<clustering>
<clus scale="   40.223">  2  9  1 -1</clus>
<clus scale="   81.449">  5  6 -1 -1</clus>
<clus scale="   93.287">  7  8 -1 -1</clus>
<clus scale="  115.717">  1  5  2 -1</clus>
<clus scale="   40.223">  2  5  1 -1</clus>
</clustering>
</event>
<event>
 9    1  0.6106093E-005  0.1364167E+03  0.7546771E-02  0.1220472E+00
          1   -1    0    0  502    0  0.00000000000E+00  0.00000000000E+00  0.31152770780E+03  0.31152770780E+03  0.00000000000E+00 0. -1.
         -2   -1    0    0    0  501 -0.00000000000E+00 -0.00000000000E+00 -0.89207820364E+02  0.89207820364E+02  0.00000000000E+00 0.  1.
         23    2    1    2    0    0  0.11250392229E+03  0.39746030672E+01  0.14177927462E+03  0.20238864646E+03  0.90481332358E+02 0.  0.
        -24    2    1    2    0    0 -0.90897203227E+02 -0.20004617829E+02  0.10508557556E+03  0.16192893451E+03  0.80718742250E+02 0.  0.
         13    1    4    4    0    0 -0.95302456317E+01 -0.28623651543E+02  0.18845735743E+01  0.30227315908E+02  0.00000000000E+00 0. -1.
        -14    1    4    4    0    0 -0.81366957595E+02  0.86190337140E+01  0.10320100199E+03  0.13170161860E+03  0.00000000000E+00 0.  1.
        -13    1    3    3    0    0  0.30948041946E+02  0.12037839676E+01  0.11089186929E+03  0.11513573325E+03  0.00000000000E+00 0. -1.
         13    1    3    3    0    0  0.81555880341E+02  0.27708190997E+01  0.30887405338E+02  0.87252913219E+02  0.00000000000E+00 0.  1.
         21    1    1    2  502  501 -0.21606719061E+02  0.16030014762E+02 -0.24544962745E+02  0.36417947196E+02  0.00000000000E+00 0.  1.
<scales pt_clust_5="13000.00000" pt_clust_6="13000.00000" pt_clust_7="13000.00000" pt_clust_8="13000.00000" pt_clust_9="26.90375"></scales>
<clustering>
<clus scale="   26.904">  2  9  1 -1</clus>
<clus scale="   80.719">  5  6 -1 -1</clus>
<clus scale="   90.481">  7  8 -1 -1</clus>
<clus scale="  130.147">  1  5  2 -1</clus>
<clus scale="  130.147">  1  5  2 -1</clus>
</clustering>
</event>
<event>
 9    1  0.6106093E-005  0.9791869E+02  0.7546771E-02  0.1292414E+00
          1   -1    0    0  502    0  0.00000000000E+00  0.00000000000E+00  0.16778767979E+03  0.16778767979E+03  0.00000000000E+00 0. -1.
         -2   -1    0    0    0  501 -0.00000000000E+00 -0.00000000000E+00 -0.14414307938E+03  0.14414307938E+03  0.00000000000E+00 0.  1.
         23    2    1    2    0    0  0.44472862785E+01 -0.26639644685E+02 -0.79590532989E+02  0.12507043003E+03  0.92620248879E+02 0.  0.
        -24    2    1    2    0    0  0.23342462914E+02  0.24287482171E+02  0.12502440970E+03  0.15146858731E+03  0.78593113913E+02 0.  0.
         11    1    4    4    0    0  0.19067864567E+00 -0.21361482756E+02  0.81586114836E+02  0.84336489362E+02  0.00000000000E+00 0. -1.
        -12    1    4    4    0    0  0.23151784268E+02  0.45648964926E+02  0.43438294863E+02  0.67132097943E+02  0.00000000000E+00 0.  1.
        -13    1    3    3    0    0  0.92816325629E+01  0.33037320940E+02 -0.16446628958E+02  0.38053973274E+02  0.00000000000E+00 0.  1.
         13    1    3    3    0    0 -0.48343462844E+01 -0.59676965624E+02 -0.63143904031E+02  0.87016456756E+02  0.00000000000E+00 0. -1.
         21    1    1    2  502  501 -0.27789749192E+02  0.23521625141E+01 -0.21789276302E+02  0.35391741839E+02  0.00000000000E+00 0.  1.
<scales pt_clust_5="13000.00000" pt_clust_6="13000.00000" pt_clust_7="13000.00000" pt_clust_8="13000.00000" pt_clust_9="27.88912"></scales>
<clustering>
<clus scale="   27.889">  2  9  1 -1</clus>
<clus scale="   78.593">  5  6 -1 -1</clus>
<clus scale="   84.773">  1  5  2 -1</clus>
<clus scale="   92.620">  7  8 -1 -1</clus>
<clus scale="   84.773">  1  5  2 -1</clus>
</clustering>
</event>
<event>
 9    1  0.6106093E-005  0.9692813E+02  0.7546771E-02  0.1293861E+00
          1   -1    0    0  502    0  0.00000000000E+00  0.00000000000E+00  0.60796104020E+03  0.60796104020E+03  0.00000000000E+00 0. -1.
         -2   -1    0    0    0  501 -0.00000000000E+00 -0.00000000000E+00 -0.37774825735E+02  0.37774825735E+02  0.00000000000E+00 0.  1.
        -24    2    1    2    0    0 -0.30929763672E+02 -0.35713138674E+02  0.85210184826E+02  0.12494898565E+03  0.78226561102E+02 0.  0.
         23    2    1    2    0    0  0.49179618848E+01  0.31029164832E+02  0.48489617741E+03  0.49435659804E+03  0.90978831254E+02 0.  0.
         11    1    3    3    0    0 -0.92881594300E+01 -0.26375413648E+02  0.95294261750E+02  0.99312278562E+02  0.00000000000E+00 0. -1.
        -12    1    3    3    0    0 -0.21641604242E+02 -0.93377250260E+01 -0.10084076924E+02  0.25636707087E+02  0.00000000000E+00 0.  1.
        -11    1    4    4    0    0  0.27923441024E+02 -0.23662825842E+02  0.16593712390E+03  0.16992579843E+03  0.00000000000E+00 0.  1.
         11    1    4    4    0    0 -0.23005479139E+02  0.54691990674E+02  0.31895905351E+03  0.32443079960E+03  0.00000000000E+00 0. -1.
         21    1    1    2  502  501  0.26011801788E+02  0.46839738417E+01  0.79852224323E-01  0.26430282245E+02  0.00000000000E+00 0.  1.
<scales pt_clust_5="13000.00000" pt_clust_6="13000.00000" pt_clust_7="13000.00000" pt_clust_8="13000.00000" pt_clust_9="26.43016"></scales>
<clustering>
<clus scale="   26.430">  2  9  1 -1</clus>
<clus scale="   78.227">  5  6 -1 -1</clus>
<clus scale="   85.072">  2  5  1 -1</clus>
<clus scale="   90.979">  7  8 -1 -1</clus>
<clus scale="   96.928">  1  5  2 -1</clus>
</clustering>
</event>
<event>
 9    1  0.6106093E-005  0.2626660E+03  0.7546771E-02  0.1105909E+00
         -2   -1    0    0    0  501 -0.00000000000E+00  0.00000000000E+00  0.33109404205E+03  0.33109404205E+03  0.00000000000E+00 0.  1.
          1   -1    0    0  502    0  0.00000000000E+00 -0.00000000000E+00 -0.95207581948E+03  0.95207581948E+03  0.00000000000E+00 0. -1.
         23    2    1    2    0    0 -0.29014674161E+03  0.41090647305E+02  0.18005554922E+03  0.35588531207E+03  0.91437309565E+02 0.  0.
        -24    2    1    2    0    0  0.23359446250E+03  0.72248162546E+02 -0.74529417068E+03  0.78889688553E+03  0.84313256726E+02 0.  0.
         11    1    4    4    0    0  0.14722457197E+03  0.68511308706E+02 -0.37506835899E+03  0.40871157059E+03  0.00000000000E+00 0. -1.
        -12    1    4    4    0    0  0.86369890530E+02  0.37368538403E+01 -0.37022581168E+03  0.38018531495E+03  0.00000000000E+00 0.  1.
        -11    1    3    3    0    0 -0.65404862879E+02  0.64524654618E+01 -0.18226166230E+00  0.65722626379E+02  0.00000000000E+00 0. -1.
         11    1    3    3    0    0 -0.22474187873E+03  0.34638181843E+02  0.18023781088E+03  0.29016268569E+03  0.00000000000E+00 0.  1.
         21    1    1    2  502  501  0.56552279108E+02 -0.11333880985E+03 -0.55743155967E+02  0.13838766393E+03  0.00000000000E+00 0.  1.
<scales pt_clust_5="13000.00000" pt_clust_6="13000.00000" pt_clust_7="13000.00000" pt_clust_8="13000.00000" pt_clust_9="126.66430"></scales>
<clustering>
<clus scale="   84.313">  5  6 -1 -1</clus>
<clus scale="   91.437">  7  8 -1 -1</clus>
<clus scale="  126.664">  1  9  2 -1</clus>
<clus scale="  260.272">  2  5  1 -1</clus>
<clus scale="  260.272">  2  5  1 -1</clus>
</clustering>
</event>
<event>
 9    1  0.6106093E-005  0.1337537E+03  0.7546771E-02  0.1245076E+00
          1   -1    0    0  502    0  0.00000000000E+00  0.00000000000E+00  0.62156654759E+03  0.62156654759E+03  0.00000000000E+00 0. -1.
         -2   -1    0    0    0  501 -0.00000000000E+00 -0.00000000000E+00 -0.76585140842E+02  0.76585140842E+02  0.00000000000E+00 0.  1.
        -24    2    1    2    0    0 -0.26099423411E+01 -0.15671219055E+02  0.15030640823E+02  0.84612685590E+02  0.81737307843E+02 0.  0.
         23    2    1    2    0    0  0.95454297828E+02  0.13669148542E+02  0.49721516911E+03  0.51507224738E+03  0.93691659365E+02 0.  0.
         13    1    3    3    0    0 -0.38869136108E+02 -0.13610876333E+00 -0.69034017921E+01  0.39477654739E+02  0.00000000000E+00 0. -1.
        -14    1    3    3    0    0  0.36259193767E+02 -0.15535110292E+02  0.21934042615E+02  0.45135030850E+02  0.00000000000E+00 0.  1.
        -11    1    4    4    0    0  0.73913966863E+00 -0.29691207164E+02  0.91609238370E+02  0.96303513254E+02  0.00000000000E+00 0.  1.
         11    1    4    4    0    0  0.94715158160E+02  0.43360355706E+02  0.40560593074E+03  0.41876873413E+03  0.00000000000E+00 0. -1.
         21    1    1    2  502  501 -0.92844355487E+02  0.20020705132E+01  0.32735596816E+02  0.98466755461E+02  0.00000000000E+00 0.  1.
<scales pt_clust_5="13000.00000" pt_clust_6="13000.00000" pt_clust_7="13000.00000" pt_clust_8="13000.00000" pt_clust_9="95.45637"></scales>
<clustering>
<clus scale="   81.737">  5  6 -1 -1</clus>
<clus scale="   83.267">  2  5  1 -1</clus>
<clus scale="   93.692">  7  8 -1 -1</clus>
<clus scale="   95.456">  2  9  1 -1</clus>
<clus scale="  133.754">  1  5  2 -1</clus>
</clustering>
</event>
<event>
 9    1  0.6106093E-005  0.1166217E+03  0.7546771E-02  0.1252203E+00
          1   -1    0    0  502    0  0.00000000000E+00  0.00000000000E+00  0.61281729133E+03  0.61281729133E+03  0.00000000000E+00 0. -1.
         -2   -1    0    0    0  501 -0.00000000000E+00 -0.00000000000E+00 -0.89857613893E+02  0.89857613893E+02  0.00000000000E+00 0.  1.
         23    2    1    2    0    0 -0.79712005761E+02 -0.93263649281E+01  0.74505948859E+02  0.14178539797E+03  0.90060966659E+02 0.  0.
        -24    2    1    2    0    0  0.63356438373E+02  0.38400990250E+02  0.49319761676E+03  0.50507863061E+03  0.79823928674E+02 0.  0.
         11    1    4    4    0    0  0.33356612273E+01  0.47813707402E+02  0.23361621396E+03  0.23848231104E+03  0.00000000000E+00 0. -1.
        -12    1    4    4    0    0  0.60020777146E+02 -0.94127171522E+01  0.25958140280E+03  0.26659631958E+03  0.00000000000E+00 0.  1.
        -13    1    3    3    0    0 -0.20750958003E+02  0.19830968201E+02  0.70231035636E+02  0.75870072653E+02  0.00000000000E+00 0. -1.
         13    1    3    3    0    0 -0.58961047758E+02 -0.29157333129E+02  0.42749132232E+01  0.65915325312E+02  0.00000000000E+00 0.  1.
         21    1    1    2  502  501  0.16355567388E+02 -0.29074625322E+02 -0.44743888182E+02  0.55810876645E+02  0.00000000000E+00 0.  1.
<scales pt_clust_5="13000.00000" pt_clust_6="13000.00000" pt_clust_7="13000.00000" pt_clust_8="13000.00000" pt_clust_9="33.35923"></scales>
<clustering>
<clus scale="   33.359">  2  9  1 -1</clus>
<clus scale="   79.824">  5  6 -1 -1</clus>
<clus scale="   90.061">  7  8 -1 -1</clus>
<clus scale="  108.911">  1  5  2 -1</clus>
<clus scale="  108.911">  1  5  2 -1</clus>
</clustering>
</event>
<event>
 9    1  0.1623616E-004  0.1215436E+03  0.7546771E-02  0.1245041E+00
          1   -1    0    0  502    0  0.00000000000E+00  0.00000000000E+00  0.66787654889E+03  0.66787654889E+03  0.00000000000E+00 0. -1.
         -2   -1    0    0    0  501 -0.00000000000E+00 -0.00000000000E+00 -0.17025369728E+03  0.17025369728E+03  0.00000000000E+00 0.  1.
        -24    2    1    2    0    0 -0.29005122817E+02 -0.57768014446E+02 -0.12464811013E+03  0.16260015395E+03  0.81995231956E+02 0.  0.
         23    2    1    2    0    0 -0.65444772779E+01  0.75405379538E+02  0.62398614788E+03  0.63580865496E+03  0.95734693451E+02 0.  0.
         11    1    3    3    0    0 -0.70285589409E+01  0.20836855736E+02 -0.18751019325E+02  0.28899410434E+02  0.00000000000E+00 0. -1.
        -12    1    3    3    0    0 -0.21976563876E+02 -0.78604870182E+02 -0.10589709081E+03  0.13370074352E+03  0.00000000000E+00 0.  1.
        -13    1    4    4    0    0 -0.45972296495E+02  0.13542791017E+02  0.28193569106E+03  0.28598005722E+03  0.00000000000E+00 0.  1.
         13    1    4    4    0    0  0.39427819217E+02  0.61862588521E+02  0.34205045683E+03  0.34982859775E+03  0.00000000000E+00 0. -1.
         21    1    1    2  502  501  0.35549600095E+02 -0.17637365091E+02 -0.17151861380E+01  0.39721437257E+02  0.00000000000E+00 0. -1.
<scales pt_clust_5="13000.00000" pt_clust_6="13000.00000" pt_clust_7="13000.00000" pt_clust_8="13000.00000" pt_clust_9="39.68439"></scales>
<clustering>
<clus scale="   39.684">  2  9  1 -1</clus>
<clus scale="   81.995">  5  6 -1 -1</clus>
<clus scale="   95.735">  7  8 -1 -1</clus>
<clus scale="  111.045">  2  5  1 -1</clus>
<clus scale="  121.544">  1  5  2 -1</clus>
</clustering>
</event>
<event>
 9    1  0.6106093E-005  0.8987287E+02  0.7546771E-02  0.1307088E+00
          1   -1    0    0  502    0  0.00000000000E+00  0.00000000000E+00  0.61055462798E+03  0.61055462798E+03  0.00000000000E+00 0. -1.
         -2   -1    0    0    0  501 -0.00000000000E+00 -0.00000000000E+00 -0.20047557222E+02  0.20047557222E+02  0.00000000000E+00 0.  1.
        -24    2    1    2    0    0  0.70786112849E+01  0.10129639400E+02  0.12640670743E+03  0.15148439276E+03  0.82559973566E+02 0.  0.
         23    2    1    2    0    0 -0.25883079117E+02  0.74875129983E+01  0.34647574176E+03  0.35870382453E+03  0.88865052003E+02 0.  0.
         11    1    3    3    0    0 -0.46784867731E+00  0.44027177641E+02  0.94805897833E+02  0.10453118921E+03  0.00000000000E+00 0. -1.
        -12    1    3    3    0    0  0.75464599622E+01 -0.33897538241E+02  0.31600809594E+02  0.46953203552E+02  0.00000000000E+00 0.  1.
        -13    1    4    4    0    0 -0.20671796837E+02  0.46453750611E+02  0.15151410453E+03  0.15981801526E+03  0.00000000000E+00 0. -1.
         13    1    4    4    0    0 -0.52112822801E+01 -0.38966237612E+02  0.19496163723E+03  0.19888580927E+03  0.00000000000E+00 0.  1.
         21    1    1    2  502  501  0.18804467832E+02 -0.17617152399E+02  0.11762462157E+03  0.12041396791E+03  0.00000000000E+00 0.  1.
<scales pt_clust_5="13000.00000" pt_clust_6="13000.00000" pt_clust_7="13000.00000" pt_clust_8="13000.00000" pt_clust_9="25.76766"></scales>
<clustering>
<clus scale="   25.768">  1  9  2 -1</clus>
<clus scale="   82.560">  5  6 -1 -1</clus>
<clus scale="   83.644">  2  5  1 -1</clus>
<clus scale="   88.865">  7  8 -1 -1</clus>
<clus scale="   25.768">  1  5  2 -1</clus>
</clustering>
</event>
<event>
 9    1  0.6106093E-005  0.2383678E+03  0.7546771E-02  0.1121434E+00
         -2   -1    0    0    0  501 -0.00000000000E+00  0.00000000000E+00  0.50365645745E+03  0.50365645745E+03  0.00000000000E+00 0.  1.
          1   -1    0    0  502    0  0.00000000000E+00 -0.00000000000E+00 -0.82114062424E+03  0.82114062424E+03  0.00000000000E+00 0. -1.
        -24    2    1    2    0    0 -0.51365908207E+02  0.18216819005E+03  0.32771556192E+03  0.38706784799E+03  0.81242374584E+02 0.  0.
         23    2    1    2    0    0  0.13324192035E+02 -0.22206691734E+03 -0.76718484675E+03  0.80386568514E+03  0.90200891299E+02 0.  0.
         11    1    3    3    0    0  0.17289652525E+02  0.14519614687E+02  0.57193978307E+02  0.61489043330E+02  0.00000000000E+00 0. -1.
        -12    1    3    3    0    0 -0.68655560733E+02  0.16764857536E+03  0.27052158362E+03  0.32557880466E+03  0.00000000000E+00 0.  1.
        -13    1    4    4    0    0  0.36277832808E+02 -0.50436213207E+02 -0.13901084787E+03  0.15226263029E+03  0.00000000000E+00 0.  1.
         13    1    4    4    0    0 -0.22953640773E+02 -0.17163070414E+03 -0.62817399888E+03  0.65160305486E+03  0.00000000000E+00 0. -1.
         21    1    1    2  502  501  0.38041716172E+02  0.39898727297E+02  0.12198511804E+03  0.13386354856E+03  0.00000000000E+00 0.  1.
<scales pt_clust_5="13000.00000" pt_clust_6="13000.00000" pt_clust_7="13000.00000" pt_clust_8="13000.00000" pt_clust_9="55.12786"></scales>
<clustering>
<clus scale="   55.128">  1  9  2 -1</clus>
<clus scale="   81.242">  5  6 -1 -1</clus>
<clus scale="   90.201">  7  8 -1 -1</clus>
<clus scale="  235.124">  1  5  2 -1</clus>
<clus scale="  238.368">  2  5  1 -1</clus>
</clustering>
</event>
<event>
 9    1  0.6106093E-005  0.1196845E+03  0.7546771E-02  0.1247315E+00
         -2   -1    0    0    0  501 -0.00000000000E+00  0.00000000000E+00  0.31559017798E+03  0.31559017798E+03  0.00000000000E+00 0.  1.
          1   -1    0    0  502    0  0.00000000000E+00 -0.00000000000E+00 -0.94281197761E+02  0.94281197761E+02  0.00000000000E+00 0. -1.
         23    2    1    2    0    0 -0.87393188783E+02  0.12283274258E+02  0.23806535870E+03  0.26959265259E+03  0.90645656501E+02 0.  0.
        -24    2    1    2    0    0  0.43645161958E+02  0.69493243620E+01 -0.18874476688E+02  0.92442867973E+02  0.78969897413E+02 0.  0.
         11    1    4    4    0    0  0.52354538123E+02 -0.81926180471E+01 -0.38998413135E+02  0.65795082488E+02  0.00000000000E+00 0. -1.
        -12    1    4    4    0    0 -0.87093761652E+01  0.15141942409E+02  0.20123936448E+02  0.26647785485E+02  0.00000000000E+00 0.  1.
        -11    1    3    3    0    0 -0.44703482831E+02 -0.19315620885E+02  0.35722493588E+02  0.60395290674E+02  0.00000000000E+00 0. -1.
         11    1    3    3    0    0 -0.42689705951E+02  0.31598895143E+02  0.20234286512E+03  0.20919736191E+03  0.00000000000E+00 0.  1.
         21    1    1    2  502  501  0.43748026825E+02 -0.19232598620E+02  0.21180982029E+01  0.47835855179E+02  0.00000000000E+00 0.  1.
<scales pt_clust_5="13000.00000" pt_clust_6="13000.00000" pt_clust_7="13000.00000" pt_clust_8="13000.00000" pt_clust_9="47.78894"></scales>
<clustering>
<clus scale="   47.789">  2  9  1 -1</clus>
<clus scale="   78.970">  5  6 -1 -1</clus>
<clus scale="   90.646">  7  8 -1 -1</clus>
<clus scale="  111.103">  2  5  1 -1</clus>
<clus scale="   47.789">  2  5  1 -1</clus>
</clustering>
</event>
<event>
 9    1  0.6106093E-005  0.1180259E+03  0.7546771E-02  0.1249812E+00
          1   -1    0    0  502    0  0.00000000000E+00  0.00000000000E+00  0.82884006353E+03  0.82884006353E+03  0.00000000000E+00 0. -1.
         -2   -1    0    0    0  501 -0.00000000000E+00 -0.00000000000E+00 -0.55343835690E+02  0.55343835690E+02  0.00000000000E+00 0.  1.
        -24    2    1    2    0    0 -0.46425461216E+02 -0.61659439903E+02  0.10495167242E+03  0.15356149903E+03  0.81296189704E+02 0.  0.
         23    2    1    2    0    0  0.79484610200E+02 -0.43204228352E+02  0.56535940380E+03  0.57983622123E+03  0.91620845797E+02 0.  0.
         11    1    3    3    0    0 -0.37740001329E+02 -0.27556249473E+00  0.76595821662E+02  0.85389130052E+02  0.00000000000E+00 0. -1.
        -12    1    3    3    0    0 -0.86854598869E+01 -0.61383877408E+02  0.28355850761E+02  0.68172368974E+02  0.00000000000E+00 0.  1.
        -13    1    4    4    0    0  0.12992649327E+02 -0.58182885435E+02  0.29977386389E+03  0.30564428110E+03  0.00000000000E+00 0.  1.
         13    1    4    4    0    0  0.66491960873E+02  0.14978657083E+02  0.26558553990E+03  0.27419194013E+03  0.00000000000E+00 0. -1.
         21    1    1    2  502  501 -0.33059148984E+02  0.10486366825E+03  0.10318515162E+03  0.15078617896E+03  0.00000000000E+00 0. -1.
<scales pt_clust_5="13000.00000" pt_clust_6="13000.00000" pt_clust_7="13000.00000" pt_clust_8="13000.00000" pt_clust_9="109.95134"></scales>
<clustering>
<clus scale="   81.296">  5  6 -1 -1</clus>
<clus scale="   91.621">  7  8 -1 -1</clus>
<clus scale="  109.951">  2  9  1 -1</clus>
<clus scale="  110.203">  2  5  1 -1</clus>
<clus scale="  118.026">  1  5  2 -1</clus>
</clustering>
</event>
<event>
 9    1  0.6106093E-005  0.3997647E+03  0.7546771E-02  0.1047467E+00
          1   -1    0    0  502    0  0.00000000000E+00  0.00000000000E+00  0.65179022811E+03  0.65179022811E+03  0.00000000000E+00 0. -1.
         -2   -1    0    0    0  501 -0.00000000000E+00 -0.00000000000E+00 -0.10936086678E+04  0.10936086678E+04  0.00000000000E+00 0.  1.
        -24    2    1    2    0    0 -0.69465410457E+02  0.62065215864E+03  0.16393895517E+03  0.65070058130E+03  0.80627043897E+02 0.  0.
         23    2    1    2    0    0 -0.14401572220E+03 -0.31755851713E+03  0.26950592674E+02  0.36137754780E+03  0.91013502117E+02 0.  0.
         13    1    3    3    0    0 -0.75907087889E+02  0.60611940394E+03  0.14872834260E+03  0.62869924266E+03  0.00000000000E+00 0. -1.
        -14    1    3    3    0    0  0.64416774325E+01  0.14532754700E+02  0.15210612572E+02  0.22001338643E+02  0.00000000000E+00 0.  1.
        -13    1    4    4    0    0 -0.59527303536E+02 -0.18512127941E+03 -0.24684310114E+02  0.19601709906E+03  0.00000000000E+00 0.  1.
         13    1    4    4    0    0 -0.84488418665E+02 -0.13243723771E+03  0.51634902788E+02  0.16536044874E+03  0.00000000000E+00 0. -1.
         21    1    1    2  502  501  0.21348113266E+03 -0.30309364152E+03 -0.63270798757E+03  0.73332076683E+03  0.00000000000E+00 0.  1.
<scales pt_clust_5="13000.00000" pt_clust_6="13000.00000" pt_clust_7="13000.00000" pt_clust_8="13000.00000" pt_clust_9="391.54960"></scales>
<clustering>
<clus scale="   80.627">  5  6 -1 -1</clus>
<clus scale="   91.014">  7  8 -1 -1</clus>
<clus scale="  360.371">  1  7  2 -1</clus>
<clus scale="  391.550">  2  9  1 -1</clus>
<clus scale="  360.371">  1  5  2 -1</clus>
</clustering>
</event>
<event>
 9    1  0.6106093E-005  0.9099820E+02  0.7546771E-02  0.1305550E+00
         -2   -1    0    0    0  501 -0.00000000000E+00  0.00000000000E+00  0.13401742929E+03  0.13401742929E+03  0.00000000000E+00 0.  1.
          1   -1    0    0  502    0  0.00000000000E+00 -0.00000000000E+00 -0.36358796832E+03  0.36358796832E+03  0.00000000000E+00 0. -1.
        -24    2    1    2    0    0 -0.28791322201E+02 -0.34481107575E+02 -0.71297236862E+02  0.11800480140E+03  0.82607204017E+02 0.  0.
         23    2    1    2    0    0 -0.15691582971E+02 -0.20377033414E+02 -0.24804529568E+03  0.26537645119E+03  0.90756503173E+02 0.  0.
         13    1    3    3    0    0 -0.33788126529E+02  0.17988521902E+02 -0.15636641183E+02  0.41348868933E+02  0.00000000000E+00 0. -1.
        -14    1    3    3    0    0  0.49968043279E+01 -0.52469629477E+02 -0.55660595679E+02  0.76655932466E+02  0.00000000000E+00 0.  1.
        -11    1    4    4    0    0 -0.48761989800E+02 -0.13710585281E+02 -0.85589831196E+02  0.99455170817E+02  0.00000000000E+00 0.  1.
         11    1    4    4    0    0  0.33070406829E+02 -0.66664481326E+01 -0.16245546449E+03  0.16592128037E+03  0.00000000000E+00 0. -1.
         21    1    1    2  502  501  0.44482905172E+02  0.54858140988E+02  0.89771993514E+02  0.11422414502E+03  0.00000000000E+00 0.  1.
<scales pt_clust_5="13000.00000" pt_clust_6="13000.00000" pt_clust_7="13000.00000" pt_clust_8="13000.00000" pt_clust_9="70.62680"></scales>
<clustering>
<clus scale="   70.627">  1  9  2 -1</clus>
<clus scale="   82.607">  5  6 -1 -1</clus>
<clus scale="   82.873">  1  5  2 -1</clus>
<clus scale="   90.757">  7  8 -1 -1</clus>
<clus scale="   90.998">  2  5  1 -1</clus>
</clustering>
</event>
<event>
 9    1  0.6106093E-005  0.9534019E+02  0.7546771E-02  0.1298032E+00
         -2   -1    0    0    0  501 -0.00000000000E+00  0.00000000000E+00  0.21556313644E+03  0.21556313644E+03  0.00000000000E+00 0.  1.
          1   -1    0    0  502    0  0.00000000000E+00 -0.00000000000E+00 -0.76723084021E+02  0.76723084021E+02  0.00000000000E+00 0. -1.
        -24    2    1    2    0    0  0.96545465482E+01  0.22316748232E+02  0.15045922281E+03  0.17223047050E+03  0.80212902438E+02 0.  0.
         23    2    1    2    0    0 -0.78397762097E+01  0.32471700867E+01 -0.12716175941E+02  0.94404030091E+02  0.93158003211E+02 0.  0.
         11    1    3    3    0    0  0.30849274697E+02  0.15794114138E+02  0.20236062043E+02  0.40132655006E+02  0.00000000000E+00 0. -1.
        -12    1    3    3    0    0 -0.21194728149E+02  0.65226340935E+01  0.13022316077E+03  0.13209781549E+03  0.00000000000E+00 0.  1.
        -11    1    4    4    0    0  0.34887079016E+02 -0.19427693981E+02  0.96978392978E+01  0.41092476961E+02  0.00000000000E+00 0. -1.
         11    1    4    4    0    0 -0.42726855226E+02  0.22674864068E+02 -0.22414015239E+02  0.53311553130E+02  0.00000000000E+00 0.  1.
         21    1    1    2  502  501 -0.18147703385E+01 -0.25563918318E+02  0.10970055463E+01  0.25651719871E+02  0.00000000000E+00 0. -1.
<scales pt_clust_5="13000.00000" pt_clust_6="13000.00000" pt_clust_7="13000.00000" pt_clust_8="13000.00000" pt_clust_9="25.62825"></scales>
<clustering>
<clus scale="   25.628">  2  9  1 -1</clus>
<clus scale="   80.213">  5  6 -1 -1</clus>
<clus scale="   82.737">  1  5  2 -1</clus>
<clus scale="   93.158">  7  8 -1 -1</clus>
<clus scale="   25.628">  2  5  1 -1</clus>
</clustering>
</event>
<event>
 9    1  0.1888054E-004  0.1313067E+03  0.7546771E-02  0.1244838E+00
         -2   -1    0    0    0  501 -0.00000000000E+00  0.00000000000E+00  0.25580813133E+03  0.25580813133E+03  0.00000000000E+00 0.  1.
          1   -1    0    0  502    0  0.00000000000E+00 -0.00000000000E+00 -0.30388779892E+03  0.30388779892E+03  0.00000000000E+00 0. -1.
         23    2    1    2    0    0  0.90711117657E+01  0.37630030713E+02  0.19823668719E+03  0.23750555403E+03  0.12495118954E+03 0.  0.
        -24    2    1    2    0    0  0.15181036861E+02 -0.37692463105E+02 -0.27248321175E+03  0.28651300224E+03  0.78685539396E+02 0.  0.
         13    1    4    4    0    0 -0.40978920790E+01 -0.49909495089E+02 -0.24814324595E+03  0.25314584912E+03  0.00000000000E+00 0. -1.
        -14    1    4    4    0    0  0.19278928940E+02  0.12217031984E+02 -0.24339965802E+02  0.33367153112E+02  0.00000000000E+00 0.  1.
        -11    1    3    3    0    0  0.11693666003E+02  0.73518529207E+02  0.18456368174E+03  0.19901122727E+03  0.00000000000E+00 0.  1.
         11    1    3    3    0    0 -0.26225542369E+01 -0.35888498494E+02  0.13673005450E+02  0.38494326763E+02  0.00000000000E+00 0. -1.
         21    1    1    2  502  501 -0.24252148626E+02  0.62432391950E-01  0.26166856962E+02  0.35677373979E+02  0.00000000000E+00 0.  1.
<scales pt_clust_5="13000.00000" pt_clust_6="13000.00000" pt_clust_7="13000.00000" pt_clust_8="13000.00000" pt_clust_9="24.25223"></scales>
<clustering>
<clus scale="   24.252">  1  9  2 -1</clus>
<clus scale="   78.686">  5  6 -1 -1</clus>
<clus scale="   88.431">  2  5  1 -1</clus>
<clus scale="  124.951">  7  8 -1 -1</clus>
<clus scale="   88.431">  2  5  1 -1</clus>
</clustering>
</event>
<event>
 9    1  0.6106093E-005  0.1211261E+03  0.7546771E-02  0.1248079E+00
         -2   -1    0    0    0  501 -0.00000000000E+00  0.00000000000E+00  0.29849393999E+03  0.29849393999E+03  0.00000000000E+00 0.  1.
          1   -1    0    0  502    0  0.00000000000E+00 -0.00000000000E+00 -0.62717967502E+02  0.62717967502E+02  0.00000000000E+00 0. -1.
         23    2    1    2    0    0  0.56122895040E+02 -0.29750881649E+02  0.11408030319E+03  0.16487494437E+03  0.10067043954E+03 0.  0.
        -24    2    1    2    0    0 -0.76762058103E+02 -0.65518538152E+01  0.94242825484E+02  0.14636174639E+03  0.81269368768E+02 0.  0.
         13    1    4    4    0    0 -0.46348714952E+02  0.25293669804E+02  0.13672117980E+02  0.54542643132E+02  0.00000000000E+00 0. -1.
        -14    1    4    4    0    0 -0.30413343151E+02 -0.31845523619E+02  0.80570707504E+02  0.91819103262E+02  0.00000000000E+00 0.  1.
        -13    1    3    3    0    0  0.14932668904E+02 -0.48343180677E+02  0.10801453562E+03  0.11927777506E+03  0.00000000000E+00 0.  1.
         13    1    3    3    0    0  0.41190226135E+02  0.18592299029E+02  0.60657675724E+01  0.45597169304E+02  0.00000000000E+00 0. -1.
         21    1    1    2  502  501  0.20639163063E+02  0.36302735464E+02  0.27452843815E+02  0.49975216735E+02  0.00000000000E+00 0.  1.
<scales pt_clust_5="13000.00000" pt_clust_6="13000.00000" pt_clust_7="13000.00000" pt_clust_8="13000.00000" pt_clust_9="41.75959"></scales>
<clustering>
<clus scale="   41.760">  2  9  1 -1</clus>
<clus scale="   81.269">  5  6 -1 -1</clus>
<clus scale="  100.670">  7  8 -1 -1</clus>
<clus scale="  105.554">  2  5  1 -1</clus>
<clus scale="   41.760">  2  5  1 -1</clus>
</clustering>
</event>
<event>
 9    1  0.6106093E-005  0.1883423E+03  0.7546771E-02  0.1161242E+00
         -2   -1    0    0    0  501 -0.00000000000E+00  0.00000000000E+00  0.14045535188E+03  0.14045535188E+03  0.00000000000E+00 0.  1.
          1   -1    0    0  502    0  0.00000000000E+00 -0.00000000000E+00 -0.76031950009E+03  0.76031950009E+03  0.00000000000E+00 0. -1.
        -24    2    1    2    0    0 -0.53121519649E+02  0.12387738490E+03  0.45598993855E+02  0.16251459312E+03  0.78512562025E+02 0.  0.
         23    2    1    2    0    0  0.72163222064E+02 -0.15283451601E+03 -0.67548818161E+03  0.70218251931E+03  0.90609530567E+02 0.  0.
         11    1    3    3    0    0 -0.53812888722E+02  0.76975454280E+02 -0.43140728870E+01  0.94019459577E+02  0.00000000000E+00 0. -1.
        -12    1    3    3    0    0  0.69136907266E+00  0.46901930621E+02  0.49913066742E+02  0.68495133540E+02  0.00000000000E+00 0.  1.
        -13    1    4    4    0    0  0.18127550372E+02 -0.47038235850E+02 -0.77109466747E+02  0.92125314525E+02  0.00000000000E+00 0.  1.
         13    1    4    4    0    0  0.54035671692E+02 -0.10579628016E+03 -0.59837871486E+03  0.61005720478E+03  0.00000000000E+00 0. -1.
         21    1    1    2  502  501 -0.19041702415E+02  0.28957131109E+02  0.10025039535E+02  0.36077739544E+02  0.00000000000E+00 0. -1.
<scales pt_clust_5="13000.00000" pt_clust_6="13000.00000" pt_clust_7="13000.00000" pt_clust_8="13000.00000" pt_clust_9="34.65692"></scales>
<clustering>
<clus scale="   34.657">  1  9  2 -1</clus>
<clus scale="   78.513">  5  6 -1 -1</clus>
<clus scale="   90.610">  7  8 -1 -1</clus>
<clus scale="  182.830">  1  5  2 -1</clus>
<clus scale="  188.342">  2  5  1 -1</clus>
</clustering>
</event>
<event>
 9    1  0.6106093E-005  0.9122943E+02  0.7546771E-02  0.1306872E+00
         -2   -1    0    0    0  501 -0.00000000000E+00  0.00000000000E+00  0.11567697010E+03  0.11567697010E+03  0.00000000000E+00 0.  1.
          1   -1    0    0  502    0  0.00000000000E+00 -0.00000000000E+00 -0.22213773654E+03  0.22213773654E+03  0.00000000000E+00 0. -1.
         23    2    1    2    0    0  0.70572973412E+01  0.63392853973E+01  0.53499981821E+02  0.10550046511E+03  0.90432892794E+02 0.  0.
        -24    2    1    2    0    0 -0.22821548224E+01  0.13628875510E+02 -0.18390065461E+03  0.20077619225E+03  0.79376785827E+02 0.  0.
         11    1    4    4    0    0 -0.20890122787E+02 -0.24455165221E+02 -0.43384566817E+02  0.54006230881E+02  0.00000000000E+00 0. -1.
        -12    1    4    4    0    0  0.18607967965E+02  0.38084040732E+02 -0.14051608779E+03  0.14676996137E+03  0.00000000000E+00 0.  1.
        -13    1    3    3    0    0  0.19159442649E+02 -0.22934551302E+02 -0.12421553307E+02  0.32363140648E+02  0.00000000000E+00 0. -1.
         13    1    3    3    0    0 -0.12102145308E+02  0.29273836700E+02  0.65921535128E+02  0.73137324464E+02  0.00000000000E+00 0.  1.
         21    1    1    2  502  501 -0.47751425188E+01 -0.19968160908E+02  0.23939906356E+02  0.31538049281E+02  0.00000000000E+00 0.  1.
<scales pt_clust_5="13000.00000" pt_clust_6="13000.00000" pt_clust_7="13000.00000" pt_clust_8="13000.00000" pt_clust_9="20.53118"></scales>
<clustering>
<clus scale="   20.531">  1  9  2 -1</clus>
<clus scale="   79.377">  5  6 -1 -1</clus>
<clus scale="   80.283">  2  5  1 -1</clus>
<clus scale="   90.433">  7  8 -1 -1</clus>
<clus scale="   80.283">  2  5  1 -1</clus>
</clustering>
</event>
<event>
 9    1  0.6106093E-005  0.9773166E+02  0.7546771E-02  0.1288321E+00
         -2   -1    0    0    0  501 -0.00000000000E+00  0.00000000000E+00  0.10658342747E+03  0.10658342747E+03  0.00000000000E+00 0.  1.
          1   -1    0    0  502    0  0.00000000000E+00 -0.00000000000E+00 -0.22308081433E+03  0.22308081433E+03  0.00000000000E+00 0. -1.
        -24    2    1    2    0    0  0.33885086691E+02 -0.51748186659E+02  0.34784270012E+00  0.10458282259E+03  0.84328950324E+02 0.  0.
         23    2    1    2    0    0 -0.36446671328E+02 -0.42572315282E+01 -0.13458208599E+03  0.16627865859E+03  0.90497351118E+02 0.  0.
         11    1    3    3    0    0  0.14662336598E+02 -0.66619320076E+02 -0.21890665359E+02  0.71640206251E+02  0.00000000000E+00 0. -1.
        -12    1    3    3    0    0  0.19222750093E+02  0.14871133417E+02  0.22238508059E+02  0.32942616334E+02  0.00000000000E+00 0.  1.
        -13    1    4    4    0    0 -0.52580152288E+01  0.40723003809E+02 -0.74026785037E+02  0.84652080106E+02  0.00000000000E+00 0.  1.
         13    1    4    4    0    0 -0.31188656100E+02 -0.44980235337E+02 -0.60555300956E+02  0.81626578479E+02  0.00000000000E+00 0. -1.
         21    1    1    2  502  501  0.25615846377E+01  0.56005418187E+02  0.17736856429E+02  0.58802760634E+02  0.00000000000E+00 0.  1.
<scales pt_clust_5="13000.00000" pt_clust_6="13000.00000" pt_clust_7="13000.00000" pt_clust_8="13000.00000" pt_clust_9="56.06397"></scales>
<clustering>
<clus scale="   56.064">  1  9  2 -1</clus>
<clus scale="   84.329">  5  6 -1 -1</clus>
<clus scale="   90.497">  7  8 -1 -1</clus>
<clus scale="   92.049">  1  5  2 -1</clus>
<clus scale="   97.732">  2  5  1 -1</clus>
</clustering>
</event>
<event>
 9    1  0.6106093E-005  0.1314884E+03  0.7546771E-02  0.1228107E+00
          1   -1    0    0  502    0  0.00000000000E+00  0.00000000000E+00  0.50678773028E+03  0.50678773028E+03  0.00000000000E+00 0. -1.
         -2   -1    0    0    0  501 -0.00000000000E+00 -0.00000000000E+00 -0.36146418088E+03  0.36146418088E+03  0.00000000000E+00 0.  1.
         23    2    1    2    0    0  0.67802244330E+02 -0.68379261479E+02 -0.26506772220E+03  0.29642043713E+03  0.91276012503E+02 0.  0.
        -24    2    1    2    0    0 -0.44135855185E+02  0.83802502796E+02  0.48050164520E+03  0.49624418123E+03  0.80035137146E+02 0.  0.
         11    1    4    4    0    0 -0.48669158694E+02  0.94233674239E+02  0.46543758360E+03  0.47736863805E+03  0.00000000000E+00 0. -1.
        -12    1    4    4    0    0  0.45333035091E+01 -0.10431171442E+02  0.15064061594E+02  0.18875543173E+02  0.00000000000E+00 0.  1.
        -11    1    3    3    0    0  0.63073971185E+02 -0.36973046014E+02 -0.78913652765E+02  0.10757646846E+03  0.00000000000E+00 0. -1.
         11    1    3    3    0    0  0.47282731446E+01 -0.31406215465E+02 -0.18615406944E+03  0.18884396868E+03  0.00000000000E+00 0.  1.
         21    1    1    2  502  501 -0.23666389145E+02 -0.15423241317E+02 -0.70110373595E+02  0.75587292804E+02  0.00000000000E+00 0.  1.
<scales pt_clust_5="13000.00000" pt_clust_6="13000.00000" pt_clust_7="13000.00000" pt_clust_8="13000.00000" pt_clust_9="28.24844"></scales>
<clustering>
<clus scale="   28.248">  2  9  1 -1</clus>
<clus scale="   80.035">  5  6 -1 -1</clus>
<clus scale="   91.276">  7  8 -1 -1</clus>
<clus scale="  123.950">  1  5  2 -1</clus>
<clus scale="  123.950">  1  5  2 -1</clus>
</clustering>
</event>
<event>
 9    1  0.6106093E-005  0.9192077E+02  0.7546771E-02  0.1308284E+00
         -2   -1    0    0    0  501 -0.00000000000E+00  0.00000000000E+00  0.11648794940E+03  0.11648794940E+03  0.00000000000E+00 0.  1.
          1   -1    0    0  502    0  0.00000000000E+00 -0.00000000000E+00 -0.18673577685E+03  0.18673577685E+03  0.00000000000E+00 0. -1.
        -24    2    1    2    0    0  0.11022954690E+02 -0.41222676809E+02  0.38620712690E+02  0.95585355979E+02  0.76316356147E+02 0.  0.
         23    2    1    2    0    0 -0.23900627294E+01 -0.13795058127E+02 -0.11910751937E+03  0.15101404090E+03  0.91774851405E+02 0.  0.
         13    1    3    3    0    0  0.11060140161E+02 -0.61380959996E+02  0.14284062045E+02  0.63984243208E+02  0.00000000000E+00 0. -1.
        -14    1    3    3    0    0 -0.37185470597E-01  0.20158283186E+02  0.24336650645E+02  0.31601112771E+02  0.00000000000E+00 0.  1.
        -11    1    4    4    0    0  0.85876553997E+01 -0.49487800515E+02 -0.92177615604E+02  0.10497382075E+03  0.00000000000E+00 0. -1.
         11    1    4    4    0    0 -0.10977718129E+02  0.35692742388E+02 -0.26929903766E+02  0.46040220149E+02  0.00000000000E+00 0.  1.
         21    1    1    2  502  501 -0.86328919607E+01  0.55017734937E+02  0.10238979230E+02  0.56624329372E+02  0.00000000000E+00 0.  1.
<scales pt_clust_5="13000.00000" pt_clust_6="13000.00000" pt_clust_7="13000.00000" pt_clust_8="13000.00000" pt_clust_9="55.69091"></scales>
<clustering>
<clus scale="   55.691">  1  9  2 -1</clus>
<clus scale="   76.316">  5  6 -1 -1</clus>
<clus scale="   76.492">  1  5  2 -1</clus>
<clus scale="   91.775">  7  8 -1 -1</clus>
<clus scale="   91.921">  2  5  1 -1</clus>
</clustering>
</event>
<event>
 9    1  0.6106093E-005  0.2019242E+03  0.7546771E-02  0.1149077E+00
         -2   -1    0    0    0  501 -0.00000000000E+00  0.00000000000E+00  0.78096927778E+02  0.78096927778E+02  0.00000000000E+00 0.  1.
          1   -1    0    0  502    0  0.00000000000E+00 -0.00000000000E+00 -0.10334131931E+04  0.10334131931E+04  0.00000000000E+00 0. -1.
         23    2    1    2    0    0  0.15894185048E+03 -0.36840697354E+02 -0.14518609297E+03  0.23690577253E+03  0.91791037967E+02 0.  0.
        -24    2    1    2    0    0 -0.17200129383E+03  0.67311765935E+02 -0.81630032920E+03  0.84088334725E+03  0.81383397060E+02 0.  0.
         11    1    4    4    0    0 -0.12953052228E+03  0.10461519767E+02 -0.48848405300E+03  0.50547430165E+03  0.00000000000E+00 0. -1.
        -12    1    4    4    0    0 -0.42470771552E+02  0.56850246168E+02 -0.32781627621E+03  0.33540904560E+03  0.00000000000E+00 0.  1.
        -13    1    3    3    0    0  0.13732270770E+03 -0.64114094281E+02 -0.10885229921E+03  0.18659304965E+03  0.00000000000E+00 0.  1.
         13    1    3    3    0    0  0.21619142784E+02  0.27273396928E+02 -0.36333793756E+02  0.50312722878E+02  0.00000000000E+00 0. -1.
         21    1    1    2  502  501  0.13059443349E+02 -0.30471068581E+02  0.61701568283E+01  0.33721001117E+02  0.00000000000E+00 0.  1.
<scales pt_clust_5="13000.00000" pt_clust_6="13000.00000" pt_clust_7="13000.00000" pt_clust_8="13000.00000" pt_clust_9="33.15170"></scales>
<clustering>
<clus scale="   33.152">  1  9  2 -1</clus>
<clus scale="   81.383">  5  6 -1 -1</clus>
<clus scale="   91.791">  7  8 -1 -1</clus>
<clus scale="  197.411">  2  5  1 -1</clus>
<clus scale="  197.411">  2  5  1 -1</clus>
</clustering>
</event>
<event>
 9    1  0.6106093E-005  0.1280477E+03  0.7546771E-02  0.1233087E+00
          1   -1    0    0  502    0  0.00000000000E+00  0.00000000000E+00  0.91789607312E+02  0.91789607312E+02  0.00000000000E+00 0. -1.
         -2   -1    0    0    0  501 -0.00000000000E+00 -0.00000000000E+00 -0.46125590307E+03  0.46125590307E+03  0.00000000000E+00 0.  1.
         23    2    1    2    0    0 -0.67885214276E+01  0.41325304129E+02 -0.22336435588E+03  0.24455620472E+03  0.90345099520E+02 0.  0.
        -24    2    1    2    0    0  0.69426154393E+02 -0.78250269999E+02  0.14085794926E+02  0.13257160743E+03  0.80210509343E+02 0.  0.
         13    1    4    4    0    0  0.28797191502E+02 -0.65171260232E+02 -0.24186412829E+02  0.75243298467E+02  0.00000000000E+00 0. -1.
        -14    1    4    4    0    0  0.40628962890E+02 -0.13079009767E+02  0.38272207756E+02  0.57328308963E+02  0.00000000000E+00 0.  1.
        -11    1    3    3    0    0  0.35591608806E+02  0.93909914887E+01 -0.14717586382E+03  0.15170922263E+03  0.00000000000E+00 0. -1.
         11    1    3    3    0    0 -0.42380130234E+02  0.31934312640E+02 -0.76188492054E+02  0.92846982093E+02  0.00000000000E+00 0.  1.
         21    1    1    2  502  501 -0.62637632965E+02  0.36924965871E+02 -0.16018773481E+03  0.17591769823E+03  0.00000000000E+00 0.  1.
<scales pt_clust_5="13000.00000" pt_clust_6="13000.00000" pt_clust_7="13000.00000" pt_clust_8="13000.00000" pt_clust_9="72.71125"></scales>
<clustering>
<clus scale="   72.711">  2  9  1 -1</clus>
<clus scale="   80.211">  5  6 -1 -1</clus>
<clus scale="   90.345">  7  8 -1 -1</clus>
<clus scale="  121.110">  1  5  2 -1</clus>
<clus scale="  121.110">  1  5  2 -1</clus>
</clustering>
</event>
<event>
 9    1  0.6106093E-005  0.9983508E+02  0.7546771E-02  0.1291338E+00
          1   -1    0    0  502    0  0.00000000000E+00  0.00000000000E+00  0.12196981019E+03  0.12196981019E+03  0.00000000000E+00 0. -1.
         -2   -1    0    0    0  501 -0.00000000000E+00 -0.00000000000E+00 -0.27471996105E+03  0.27471996105E+03  0.00000000000E+00 0.  1.
        -24    2    1    2    0    0 -0.11508978199E+02 -0.48461661310E+02 -0.57630064035E+02  0.10986696167E+03  0.79174085341E+02 0.  0.
         23    2    1    2    0    0  0.16118372885E+02  0.15911078050E+01  0.65882148874E+02  0.11907354666E+03  0.97855599767E+02 0.  0.
         11    1    3    3    0    0 -0.78756153793E+01 -0.63878626174E+02 -0.17462398754E+02  0.66689126323E+02  0.00000000000E+00 0. -1.
        -12    1    3    3    0    0 -0.36333628199E+01  0.15416964864E+02 -0.40167665281E+02  0.43177835346E+02  0.00000000000E+00 0.  1.
        -13    1    4    4    0    0 -0.38309276308E+02  0.15400843829E+02  0.39086754086E+02  0.56855615263E+02  0.00000000000E+00 0.  1.
         13    1    4    4    0    0  0.54427649193E+02 -0.13809736024E+02  0.26795394788E+02  0.62217931399E+02  0.00000000000E+00 0. -1.
         21    1    1    2  502  501 -0.46093946854E+01  0.46870553505E+02 -0.16100223570E+03  0.16774926290E+03  0.00000000000E+00 0.  1.
<scales pt_clust_5="13000.00000" pt_clust_6="13000.00000" pt_clust_7="13000.00000" pt_clust_8="13000.00000" pt_clust_9="47.09666"></scales>
<clustering>
<clus scale="   47.097">  2  9  1 -1</clus>
<clus scale="   79.174">  5  6 -1 -1</clus>
<clus scale="   81.608">  2  5  1 -1</clus>
<clus scale="   97.856">  7  8 -1 -1</clus>
<clus scale="   99.835">  1  5  2 -1</clus>
</clustering>
</event>
<event>
 9    1  0.6106093E-005  0.1092378E+03  0.7546771E-02  0.1265415E+00
         -2   -1    0    0    0  501 -0.00000000000E+00  0.00000000000E+00  0.69992240269E+03  0.69992240269E+03  0.00000000000E+00 0.  1.
          1   -1    0    0  502    0  0.00000000000E+00 -0.00000000000E+00 -0.24957508439E+02  0.24957508439E+02  0.00000000000E+00 0. -1.
         23    2    1    2    0    0 -0.13784061773E+02 -0.75293989833E+02  0.35631238422E+03  0.37511224548E+03  0.88834094203E+02 0.  0.
        -24    2    1    2    0    0  0.23617330704E+02  0.53267978941E+02  0.15194701391E+03  0.18132610080E+03  0.79975020507E+02 0.  0.
         13    1    4    4    0    0  0.35323118984E+02  0.70071392538E+02  0.12019254657E+03  0.14354083404E+03  0.00000000000E+00 0. -1.
        -14    1    4    4    0    0 -0.11705788279E+02 -0.16803413598E+02  0.31754467342E+02  0.37785266758E+02  0.00000000000E+00 0.  1.
        -11    1    3    3    0    0  0.26560421680E+02 -0.10172024057E+02  0.36609171946E+02  0.46359007149E+02  0.00000000000E+00 0. -1.
         11    1    3    3    0    0 -0.40344483453E+02 -0.65121965776E+02  0.31970321227E+03  0.32875323833E+03  0.00000000000E+00 0.  1.
         21    1    1    2  502  501 -0.98332689319E+01  0.22026010892E+02  0.16670549612E+03  0.16844156485E+03  0.00000000000E+00 0. -1.
<scales pt_clust_5="13000.00000" pt_clust_6="13000.00000" pt_clust_7="13000.00000" pt_clust_8="13000.00000" pt_clust_9="24.12133"></scales>
<clustering>
<clus scale="   24.121">  1  9  2 -1</clus>
<clus scale="   79.975">  5  6 -1 -1</clus>
<clus scale="   88.834">  7  8 -1 -1</clus>
<clus scale="  102.164">  2  5  1 -1</clus>
<clus scale="  102.164">  2  5  1 -1</clus>
</clustering>
</event>
<event>
 9    1  0.6106093E-005  0.2263714E+03  0.7546771E-02  0.1130050E+00
          1   -1    0    0  502    0  0.00000000000E+00  0.00000000000E+00  0.53604758590E+03  0.53604758590E+03  0.00000000000E+00 0. -1.
         -2   -1    0    0    0  501 -0.00000000000E+00 -0.00000000000E+00 -0.30953870849E+03  0.30953870849E+03  0.00000000000E+00 0.  1.
         23    2    1    2    0    0 -0.15499863702E+03 -0.38074514596E+02 -0.19999216990E+03  0.27156315555E+03  0.90969408551E+02 0.  0.
        -24    2    1    2    0    0  0.21066900685E+03  0.29739413793E+02  0.45682704694E+03  0.51008308695E+03  0.78917308602E+02 0.  0.
         11    1    4    4    0    0  0.16387064236E+03 -0.57061365990E+00  0.27734431216E+03  0.32213938057E+03  0.00000000000E+00 0. -1.
        -12    1    4    4    0    0  0.46798364486E+02  0.30310027453E+02  0.17948273478E+03  0.18794370638E+03  0.00000000000E+00 0.  1.
        -13    1    3    3    0    0 -0.66100335087E+02 -0.62980111869E+02 -0.10367553339E+03  0.13814617264E+03  0.00000000000E+00 0.  1.
         13    1    3    3    0    0 -0.88898301938E+02  0.24905597274E+02 -0.96316636503E+02  0.13341698292E+03  0.00000000000E+00 0. -1.
         21    1    1    2  502  501 -0.55670369823E+02  0.83351008032E+01 -0.30325999638E+02  0.63940051890E+02  0.00000000000E+00 0. -1.
<scales pt_clust_5="13000.00000" pt_clust_6="13000.00000" pt_clust_7="13000.00000" pt_clust_8="13000.00000" pt_clust_9="56.29089"></scales>
<clustering>
<clus scale="   56.291">  2  9  1 -1</clus>
<clus scale="   78.917">  5  6 -1 -1</clus>
<clus scale="   90.969">  7  8 -1 -1</clus>
<clus scale="  221.803">  1  5  2 -1</clus>
<clus scale="  221.803">  1  5  2 -1</clus>
</clustering>
</event>
<event>
 9    1  0.6106093E-005  0.2477400E+03  0.7546771E-02  0.1115418E+00
          1   -1    0    0  502    0  0.00000000000E+00  0.00000000000E+00  0.35934795015E+03  0.35934795015E+03  0.00000000000E+00 0. -1.
         -2   -1    0    0    0  501 -0.00000000000E+00 -0.00000000000E+00 -0.37815017527E+03  0.37815017527E+03  0.00000000000E+00 0.  1.
         23    2    1    2    0    0  0.21028359075E+03  0.57863308109E+02 -0.27154681943E+03  0.36059797822E+03  0.93412396330E+02 0.  0.
        -24    2    1    2    0    0 -0.21685498819E+03 -0.80596523280E+02  0.25408665828E+03  0.35319817531E+03  0.81651917629E+02 0.  0.
         11    1    4    4    0    0 -0.20436149876E+03 -0.55851010163E+02  0.24529216927E+03  0.32411603758E+03  0.00000000000E+00 0. -1.
        -12    1    4    4    0    0 -0.12493489436E+02 -0.24745513118E+02  0.87944890121E+01  0.29082137726E+02  0.00000000000E+00 0.  1.
        -11    1    3    3    0    0  0.13217435242E+03 -0.11103055928E+02 -0.14133400725E+03  0.19382631115E+03  0.00000000000E+00 0. -1.
         11    1    3    3    0    0  0.78109238335E+02  0.68966364037E+02 -0.13021281218E+03  0.16677166707E+03  0.00000000000E+00 0.  1.
         21    1    1    2  502  501  0.65713974383E+01  0.22733215171E+02 -0.13420639764E+01  0.23701971902E+02  0.00000000000E+00 0. -1.
<scales pt_clust_5="13000.00000" pt_clust_6="13000.00000" pt_clust_7="13000.00000" pt_clust_8="13000.00000" pt_clust_9="23.66395"></scales>
<clustering>
<clus scale="   23.664">  2  9  1 -1</clus>
<clus scale="   81.652">  5  6 -1 -1</clus>
<clus scale="   93.412">  7  8 -1 -1</clus>
<clus scale="  243.549">  1  5  2 -1</clus>
<clus scale="  243.549">  1  5  2 -1</clus>
</clustering>
</event>
<event>
 9    1  0.6106093E-005  0.1958529E+03  0.7546771E-02  0.1154018E+00
          1   -1    0    0  502    0  0.00000000000E+00  0.00000000000E+00  0.45089925112E+03  0.45089925112E+03  0.00000000000E+00 0. -1.
         -2   -1    0    0    0  501 -0.00000000000E+00 -0.00000000000E+00 -0.46575698244E+03  0.46575698244E+03  0.00000000000E+00 0.  1.
        -24    2    1    2    0    0 -0.64408163740E+02  0.16802947594E+03 -0.29857194040E+03  0.35763673626E+03  0.79853085024E+02 0.  0.
         23    2    1    2    0    0  0.21370985131E+03 -0.41272297425E+02  0.27712915063E+03  0.36305588024E+03  0.87371064837E+02 0.  0.
         13    1    3    3    0    0 -0.25452730830E+02  0.37802562915E+01 -0.60944490390E+02  0.66154083420E+02  0.00000000000E+00 0. -1.
        -14    1    3    3    0    0 -0.38955432910E+02  0.16424921965E+03 -0.23762745001E+03  0.29148265284E+03  0.00000000000E+00 0.  1.
        -13    1    4    4    0    0  0.40281999433E+02 -0.73640470074E+01  0.89910587839E+01  0.41925025996E+02  0.00000000000E+00 0.  1.
         13    1    4    4    0    0  0.17342785188E+03 -0.33908250418E+02  0.26813809184E+03  0.32113085425E+03  0.00000000000E+00 0. -1.
         21    1    1    2  502  501 -0.14930168757E+03 -0.12675717851E+03  0.65850584420E+01  0.19596361706E+03  0.00000000000E+00 0. -1.
<scales pt_clust_5="13000.00000" pt_clust_6="13000.00000" pt_clust_7="13000.00000" pt_clust_8="13000.00000" pt_clust_9="195.85295"></scales>
<clustering>
<clus scale="   79.853">  5  6 -1 -1</clus>
<clus scale="   87.371">  7  8 -1 -1</clus>
<clus scale="  195.853">  1  9  2 -1</clus>
<clus scale="  192.507">  2  5  1 -1</clus>
<clus scale="  195.853">  1  5  2 -1</clus>
</clustering>
</event>
<event>
 9    1  0.6106093E-005  0.1418231E+03  0.7546771E-02  0.1212863E+00
          1   -1    0    0  502    0  0.00000000000E+00  0.00000000000E+00  0.23177494862E+03  0.23177494862E+03  0.00000000000E+00 0. -1.
         -2   -1    0    0    0  501 -0.00000000000E+00 -0.00000000000E+00 -0.18951344414E+03  0.18951344414E+03  0.00000000000E+00 0.  1.
         23    2    1    2    0    0  0.10135319947E+03 -0.27486423863E+02 -0.11387818045E+03  0.17934025421E+03  0.90369863648E+02 0.  0.
        -24    2    1    2    0    0 -0.12522857403E+03  0.43181733301E+02  0.14048909682E+03  0.20937027557E+03  0.80943610760E+02 0.  0.
         11    1    4    4    0    0 -0.10216789526E+03  0.94906081297E+01  0.13280512896E+03  0.16782595968E+03  0.00000000000E+00 0. -1.
        -12    1    4    4    0    0 -0.23060678767E+02  0.33691125172E+02  0.76839678588E+01  0.41544315888E+02  0.00000000000E+00 0.  1.
        -13    1    3    3    0    0  0.57800408034E+02 -0.88635971861E+01 -0.11810111628E+03  0.13178514405E+03  0.00000000000E+00 0.  1.
         13    1    3    3    0    0  0.43552791437E+02 -0.18622826677E+02  0.42229358292E+01  0.47555110161E+02  0.00000000000E+00 0. -1.
         21    1    1    2  502  501  0.23875374557E+02 -0.15695309438E+02  0.15650588113E+02  0.32577862989E+02  0.00000000000E+00 0. -1.
<scales pt_clust_5="13000.00000" pt_clust_6="13000.00000" pt_clust_7="13000.00000" pt_clust_8="13000.00000" pt_clust_9="28.57230"></scales>
<clustering>
<clus scale="   28.572">  1  9  2 -1</clus>
<clus scale="   80.944">  5  6 -1 -1</clus>
<clus scale="   90.370">  7  8 -1 -1</clus>
<clus scale="  136.011">  1  5  2 -1</clus>
<clus scale="   28.572">  1  5  2 -1</clus>
</clustering>
</event>
<event>
 9    1  0.6106093E-005  0.1618729E+03  0.7546771E-02  0.1204433E+00
         -2   -1    0    0    0  501 -0.00000000000E+00  0.00000000000E+00  0.31339833135E+03  0.31339833135E+03  0.00000000000E+00 0.  1.
          1   -1    0    0  502    0  0.00000000000E+00 -0.00000000000E+00 -0.14636523371E+03  0.14636523371E+03  0.00000000000E+00 0. -1.
        -24    2    1    2    0    0  0.16107070098E+03 -0.13998176603E+02  0.10941451130E+03  0.20933994422E+03  0.75577492030E+02 0.  0.
         23    2    1    2    0    0 -0.34980978607E+02  0.49735914898E+02  0.65005354902E+01  0.10975074091E+03  0.91135273484E+02 0.  0.
         11    1    3    3    0    0  0.12325184094E+03  0.13616924176E+02  0.50031592022E+02  0.13371461071E+03  0.00000000000E+00 0. -1.
        -12    1    3    3    0    0  0.37818860043E+02 -0.27615100779E+02  0.59382919281E+02  0.75625333509E+02  0.00000000000E+00 0.  1.
        -11    1    4    4    0    0 -0.47509952919E+02  0.66042501938E+02 -0.11819065392E+02  0.82210084512E+02  0.00000000000E+00 0. -1.
         11    1    4    4    0    0  0.12528974312E+02 -0.16306587040E+02  0.18319600882E+02  0.27540656396E+02  0.00000000000E+00 0.  1.
         21    1    1    2  502  501 -0.12608972237E+03 -0.35737738295E+02  0.51118050838E+02  0.14067287993E+03  0.00000000000E+00 0.  1.
<scales pt_clust_5="13000.00000" pt_clust_6="13000.00000" pt_clust_7="13000.00000" pt_clust_8="13000.00000" pt_clust_9="143.14640"></scales>
<clustering>
<clus scale="   75.577">  5  6 -1 -1</clus>
<clus scale="   91.135">  7  8 -1 -1</clus>
<clus scale="  109.558">  2  7  1 -1</clus>
<clus scale="  143.146">  2  9  1 -1</clus>
<clus scale="  109.558">  2  5  1 -1</clus>
</clustering>
</event>
<event>
 9    1  0.6106093E-005  0.9727963E+02  0.7546771E-02  0.1296273E+00
          1   -1    0    0  502    0  0.00000000000E+00  0.00000000000E+00  0.98055776606E+02  0.98055776606E+02  0.00000000000E+00 0. -1.
         -2   -1    0    0    0  501 -0.00000000000E+00 -0.00000000000E+00 -0.15308170686E+03  0.15308170686E+03  0.00000000000E+00 0.  1.
        -24    2    1    2    0    0 -0.12861925807E+02  0.65436291023E+00 -0.85858855012E+02  0.11622773143E+03  0.77274091665E+02 0.  0.
         23    2    1    2    0    0  0.15332884016E+02  0.22450730174E+02  0.44370298063E+02  0.10801716129E+03  0.94656490353E+02 0.  0.
         11    1    3    3    0    0  0.12222388577E+02 -0.25872641302E+02 -0.71957351827E+01  0.29505236066E+02  0.00000000000E+00 0. -1.
        -12    1    3    3    0    0 -0.25084314384E+02  0.26527004212E+02 -0.78663119829E+02  0.86722495362E+02  0.00000000000E+00 0.  1.
        -11    1    4    4    0    0 -0.35569530651E+02  0.26011394277E+02  0.66558748738E+01  0.44565511478E+02  0.00000000000E+00 0.  1.
         11    1    4    4    0    0  0.50902414667E+02 -0.35606641022E+01  0.37714423189E+02  0.63451649815E+02  0.00000000000E+00 0. -1.
         21    1    1    2  502  501 -0.24709582095E+01 -0.23105093085E+02 -0.13537373304E+02  0.26892590744E+02  0.00000000000E+00 0.  1.
<scales pt_clust_5="13000.00000" pt_clust_6="13000.00000" pt_clust_7="13000.00000" pt_clust_8="13000.00000" pt_clust_9="23.23684"></scales>
<clustering>
<clus scale="   23.237">  2  9  1 -1</clus>
<clus scale="   77.274">  5  6 -1 -1</clus>
<clus scale="   80.466">  2  5  1 -1</clus>
<clus scale="   94.656">  7  8 -1 -1</clus>
<clus scale="   97.280">  1  5  2 -1</clus>
</clustering>
</event>
<event>
 9    1  0.6106093E-005  0.1149713E+03  0.7546771E-02  0.1253045E+00
         -2   -1    0    0    0  501 -0.00000000000E+00  0.00000000000E+00  0.48488316329E+02  0.48488316329E+02  0.00000000000E+00 0.  1.
          1   -1    0    0  502    0  0.00000000000E+00 -0.00000000000E+00 -0.78329041125E+03  0.78329041125E+03  0.00000000000E+00 0. -1.
         23    2    1    2    0    0  0.16478214803E+02 -0.36033371916E+02 -0.64186955402E+02  0.11200410626E+03  0.82795042850E+02 0.  0.
        -24    2    1    2    0    0  0.16992772528E+02  0.89094441634E+02 -0.63783103381E+03  0.64898915883E+03  0.78306620011E+02 0.  0.
         11    1    4    4    0    0 -0.24845208063E+02  0.54105526875E+02 -0.23235567000E+03  0.23986214746E+03  0.00000000000E+00 0. -1.
        -12    1    4    4    0    0  0.41837980591E+02  0.34988914759E+02 -0.40547536381E+03  0.40912701137E+03  0.00000000000E+00 0.  1.
        -11    1    3    3    0    0  0.15424999151E+02 -0.56706800453E+02 -0.69118404942E+02  0.90724559619E+02  0.00000000000E+00 0. -1.
         11    1    3    3    0    0  0.10532156520E+01  0.20673428536E+02  0.49314495401E+01  0.21279546641E+02  0.00000000000E+00 0.  1.
         21    1    1    2  502  501 -0.33470987331E+02 -0.53061069718E+02 -0.32784105706E+02  0.70785462487E+02  0.00000000000E+00 0. -1.
<scales pt_clust_5="13000.00000" pt_clust_6="13000.00000" pt_clust_7="13000.00000" pt_clust_8="13000.00000" pt_clust_9="62.73583"></scales>
<clustering>
<clus scale="   62.736">  1  9  2 -1</clus>
<clus scale="   78.307">  5  6 -1 -1</clus>
<clus scale="   82.795">  7  8 -1 -1</clus>
<clus scale="  111.782">  2  5  1 -1</clus>
<clus scale="  111.782">  2  5  1 -1</clus>
</clustering>
</event>
<event>
 9    1  0.6106093E-005  0.1112791E+03  0.7546771E-02  0.1262290E+00
         -2   -1    0    0    0  501 -0.00000000000E+00  0.00000000000E+00  0.37505589327E+02  0.37505589327E+02  0.00000000000E+00 0.  1.
          1   -1    0    0  502    0  0.00000000000E+00 -0.00000000000E+00 -0.44123041965E+03  0.44123041965E+03  0.00000000000E+00 0. -1.
        -24    2    1    2    0    0  0.32974409700E+02  0.41954611989E+02 -0.15795261548E+03  0.18550142115E+03  0.81328023142E+02 0.  0.
         23    2    1    2    0    0 -0.61049822032E+02 -0.41349088677E+02 -0.23550892574E+03  0.26333591663E+03  0.91894085658E+02 0.  0.
         13    1    3    3    0    0 -0.15946874399E+02  0.45336204401E+02 -0.83734722981E+02  0.96546248323E+02  0.00000000000E+00 0. -1.
        -14    1    3    3    0    0  0.48921284098E+02 -0.33815924121E+01 -0.74217892504E+02  0.88955172827E+02  0.00000000000E+00 0.  1.
        -11    1    4    4    0    0 -0.47682020321E+02  0.20040361537E+02 -0.13762564366E+03  0.14702383802E+03  0.00000000000E+00 0. -1.
         11    1    4    4    0    0 -0.13367801711E+02 -0.61389450214E+02 -0.97883282077E+02  0.11631207861E+03  0.00000000000E+00 0.  1.
         21    1    1    2  502  501  0.28075412333E+02 -0.60552331221E+00 -0.10263289096E+02  0.29898671194E+02  0.00000000000E+00 0.  1.
<scales pt_clust_5="13000.00000" pt_clust_6="13000.00000" pt_clust_7="13000.00000" pt_clust_8="13000.00000" pt_clust_9="28.08194"></scales>
<clustering>
<clus scale="   28.082">  1  9  2 -1</clus>
<clus scale="   81.328">  5  6 -1 -1</clus>
<clus scale="   91.894">  7  8 -1 -1</clus>
<clus scale="  102.727">  1  5  2 -1</clus>
<clus scale="  111.279">  2  5  1 -1</clus>
</clustering>
</event>
<event>
 9    1  0.6106093E-005  0.1137347E+03  0.7546771E-02  0.1258196E+00
          1   -1    0    0  502    0  0.00000000000E+00  0.00000000000E+00  0.48609769035E+03  0.48609769035E+03  0.00000000000E+00 0. -1.
         -2   -1    0    0    0  501 -0.00000000000E+00 -0.00000000000E+00 -0.17521273201E+03  0.17521273201E+03  0.00000000000E+00 0.  1.
        -24    2    1    2    0    0  0.21957541725E+02 -0.33053320137E+02 -0.10173948446E+03  0.13487639770E+03  0.79158476157E+02 0.  0.
         23    2    1    2    0    0 -0.14812890446E+02  0.68137150938E+02  0.45597069093E+03  0.47021286804E+03  0.91262134637E+02 0.  0.
         11    1    3    3    0    0  0.29609234828E+02 -0.37669617886E+02 -0.11167119620E+03  0.12151610165E+03  0.00000000000E+00 0. -1.
        -12    1    3    3    0    0 -0.76516931028E+01  0.46162977486E+01  0.99317117468E+01  0.13360296047E+02  0.00000000000E+00 0.  1.
        -13    1    4    4    0    0  0.30850323000E+02  0.16479544871E+02  0.71351962168E+02  0.79463326973E+02  0.00000000000E+00 0.  1.
         13    1    4    4    0    0 -0.45663213446E+02  0.51657606067E+02  0.38461872876E+03  0.39074954107E+03  0.00000000000E+00 0. -1.
         21    1    1    2  502  501 -0.71446512792E+01 -0.35083830801E+02 -0.43346248130E+02  0.56221156627E+02  0.00000000000E+00 0.  1.
<scales pt_clust_5="13000.00000" pt_clust_6="13000.00000" pt_clust_7="13000.00000" pt_clust_8="13000.00000" pt_clust_9="35.80393"></scales>
<clustering>
<clus scale="   35.804">  2  9  1 -1</clus>
<clus scale="   79.158">  5  6 -1 -1</clus>
<clus scale="   91.262">  7  8 -1 -1</clus>
<clus scale="  104.273">  2  5  1 -1</clus>
<clus scale="  113.735">  1  5  2 -1</clus>
</clustering>
</event>
<event>
 9    1  0.6106093E-005  0.2077974E+03  0.7546771E-02  0.1144484E+00
          1   -1    0    0  502    0  0.00000000000E+00  0.00000000000E+00  0.47089824610E+03  0.47089824610E+03  0.00000000000E+00 0. -1.
         -2   -1    0    0    0  501 -0.00000000000E+00 -0.00000000000E+00 -0.14249954112E+03  0.14249954112E+03  0.00000000000E+00 0.  1.
         23    2    1    2    0    0  0.71690752826E-01 -0.16342637104E+03  0.27910118196E+02  0.18969917073E+03  0.92187942739E+02 0.  0.
        -24    2    1    2    0    0 -0.48684355253E+02  0.19120937975E+03  0.30019336326E+03  0.36770599305E+03  0.78488525455E+02 0.  0.
         13    1    4    4    0    0 -0.17305309337E+02  0.27124049402E+02  0.11513506981E+02  0.34172337207E+02  0.00000000000E+00 0. -1.
        -14    1    4    4    0    0 -0.31379045916E+02  0.16408533035E+03  0.28867985628E+03  0.33353365584E+03  0.00000000000E+00 0.  1.
        -13    1    3    3    0    0 -0.27044275426E+02 -0.78144791217E+02 -0.24178791704E+02  0.86154600550E+02  0.00000000000E+00 0.  1.
         13    1    3    3    0    0  0.27115966179E+02 -0.85281579825E+02  0.52088909900E+02  0.10354457018E+03  0.00000000000E+00 0. -1.
         21    1    1    2  502  501  0.48612664500E+02 -0.27783008707E+02  0.29522352790E+00  0.55992623438E+02  0.00000000000E+00 0.  1.
<scales pt_clust_5="13000.00000" pt_clust_6="13000.00000" pt_clust_7="13000.00000" pt_clust_8="13000.00000" pt_clust_9="55.99185"></scales>
<clustering>
<clus scale="   55.992">  2  9  1 -1</clus>
<clus scale="   78.489">  5  6 -1 -1</clus>
<clus scale="   92.188">  7  8 -1 -1</clus>
<clus scale="  202.093">  1  5  2 -1</clus>
<clus scale="  202.093">  1  5  2 -1</clus>
</clustering>
</event>
<event>
 9    1  0.6106093E-005  0.3611103E+03  0.7546771E-02  0.1058390E+00
          1   -1    0    0  502    0  0.00000000000E+00  0.00000000000E+00  0.98446127056E+03  0.98446127056E+03  0.00000000000E+00 0. -1.
         -2   -1    0    0    0  501 -0.00000000000E+00 -0.00000000000E+00 -0.31536079185E+03  0.31536079185E+03  0.00000000000E+00 0.  1.
        -24    2    1    2    0    0  0.30456876627E+03  0.29292282420E+03  0.78240219445E+02  0.43767513588E+03  0.82897999410E+02 0.  0.
         23    2    1    2    0    0 -0.14922524895E+03 -0.29983406129E+03  0.61338244015E+03  0.70502715628E+03  0.93041033872E+02 0.  0.
         13    1    3    3    0    0  0.21801037177E+02  0.17781648771E+02  0.28444628428E+02  0.40007113635E+02  0.00000000000E+00 0. -1.
        -14    1    3    3    0    0  0.28276772909E+03  0.27514117543E+03  0.49795591016E+02  0.39766802225E+03  0.00000000000E+00 0.  1.
        -11    1    4    4    0    0 -0.42451331902E+02 -0.56468806108E+02  0.66639911032E+02  0.97117039627E+02  0.00000000000E+00 0.  1.
         11    1    4    4    0    0 -0.10677391705E+03 -0.24336525518E+03  0.54674252912E+03  0.60791011666E+03  0.00000000000E+00 0. -1.
         21    1    1    2  502  501 -0.15534351732E+03  0.69112370832E+01 -0.22522180884E+02  0.15711977025E+03  0.00000000000E+00 0.  1.
<scales pt_clust_5="13000.00000" pt_clust_6="13000.00000" pt_clust_7="13000.00000" pt_clust_8="13000.00000" pt_clust_9="155.49718"></scales>
<clustering>
<clus scale="   82.898">  5  6 -1 -1</clus>
<clus scale="   93.041">  7  8 -1 -1</clus>
<clus scale="  155.497">  2  9  1 -1</clus>
<clus scale="  358.631">  2  5  1 -1</clus>
<clus scale="  361.110">  1  5  2 -1</clus>
</clustering>
</event>
<event>
 9    1  0.6106093E-005  0.1091442E+03  0.7546771E-02  0.1265397E+00
          1   -1    0    0  502    0  0.00000000000E+00  0.00000000000E+00  0.59828705247E+03  0.59828705247E+03  0.00000000000E+00 0. -1.
         -2   -1    0    0    0  501 -0.00000000000E+00 -0.00000000000E+00 -0.40968713286E+02  0.40968713286E+02  0.00000000000E+00 0.  1.
        -24    2    1    2    0    0 -0.38523496020E+02 -0.62049933199E+02  0.26266462118E+03  0.28418946908E+03  0.80229029409E+02 0.  0.
         23    2    1    2    0    0  0.50953934902E+02  0.30310284967E+02  0.30194055962E+03  0.32020917200E+03  0.88604714490E+02 0.  0.
         13    1    3    3    0    0 -0.45328977071E+02 -0.60435465738E+02  0.26594300571E+03  0.27646490549E+03  0.00000000000E+00 0. -1.
        -14    1    3    3    0    0  0.68054810511E+01 -0.16144674617E+01 -0.32783845298E+01  0.77245635894E+01  0.00000000000E+00 0.  1.
        -11    1    4    4    0    0 -0.25506484914E+02  0.57505522510E+01  0.66930823656E+02  0.71856696133E+02  0.00000000000E+00 0.  1.
         11    1    4    4    0    0  0.76460419815E+02  0.24559732716E+02  0.23500973597E+03  0.24835247586E+03  0.00000000000E+00 0. -1.
         21    1    1    2  502  501 -0.12430438882E+02  0.31739648233E+02 -0.72868416117E+01  0.34857124686E+02  0.00000000000E+00 0.  1.
<scales pt_clust_5="13000.00000" pt_clust_6="13000.00000" pt_clust_7="13000.00000" pt_clust_8="13000.00000" pt_clust_9="34.08696"></scales>
<clustering>
<clus scale="   34.087">  2  9  1 -1</clus>
<clus scale="   80.229">  5  6 -1 -1</clus>
<clus scale="   88.605">  7  8 -1 -1</clus>
<clus scale="  102.462">  2  5  1 -1</clus>
<clus scale="  109.144">  1  5  2 -1</clus>
</clustering>
</event>
<event>
 9    1  0.6106093E-005  0.3158687E+03  0.7546771E-02  0.1077856E+00
         -2   -1    0    0    0  501 -0.00000000000E+00  0.00000000000E+00  0.23629167120E+03  0.23629167120E+03  0.00000000000E+00 0.  1.
          1   -1    0    0  502    0  0.00000000000E+00 -0.00000000000E+00 -0.58601756466E+03  0.58601756466E+03  0.00000000000E+00 0. -1.
        -24    2    1    2    0    0  0.29334078178E+03  0.11355435786E+03 -0.42408139198E+02  0.32807905943E+03  0.83030190432E+02 0.  0.
         23    2    1    2    0    0 -0.27185390205E+03 -0.11969140024E+03 -0.33605279026E+03  0.45782891843E+03  0.91898124890E+02 0.  0.
         11    1    3    3    0    0  0.82132485207E+02  0.27881077365E+02 -0.49838853067E+02  0.10003504824E+03  0.00000000000E+00 0. -1.
        -12    1    3    3    0    0  0.21120829657E+03  0.85673280496E+02  0.74307138684E+01  0.22804401119E+03  0.00000000000E+00 0.  1.
        -13    1    4    4    0    0 -0.12984569175E+03 -0.81286301192E+02 -0.23052524223E+03  0.27678376710E+03  0.00000000000E+00 0. -1.
         13    1    4    4    0    0 -0.14200821030E+03 -0.38405099044E+02 -0.10552754804E+03  0.18104515133E+03  0.00000000000E+00 0.  1.
         21    1    1    2  502  501 -0.21486879725E+02  0.61370423758E+01  0.28735036001E+02  0.36401257992E+02  0.00000000000E+00 0. -1.
<scales pt_clust_5="13000.00000" pt_clust_6="13000.00000" pt_clust_7="13000.00000" pt_clust_8="13000.00000" pt_clust_9="22.34612"></scales>
<clustering>
<clus scale="   22.346">  1  9  2 -1</clus>
<clus scale="   83.030">  5  6 -1 -1</clus>
<clus scale="   91.898">  7  8 -1 -1</clus>
<clus scale="  313.404">  1  5  2 -1</clus>
<clus scale="  315.869">  2  5  1 -1</clus>
</clustering>
</event>
<event>
 9    1  0.6106093E-005  0.1261621E+03  0.7546771E-02  0.1236619E+00
         -2   -1    0    0    0  501 -0.00000000000E+00  0.00000000000E+00  0.85997465399E+02  0.85997465399E+02  0.00000000000E+00 0.  1.
          1   -1    0    0  502    0  0.00000000000E+00 -0.00000000000E+00 -0.86450771215E+03  0.86450771215E+03  0.00000000000E+00 0. -1.
         23    2    1    2    0    0  0.48241913623E+02 -0.28858784478E+02  0.10553290313E+02  0.10790358093E+03  0.91496989953E+02 0.  0.
        -24    2    1    2    0    0 -0.56116907492E+01  0.91156573555E+02 -0.74585082871E+03  0.75562062979E+03  0.79549138898E+02 0.  0.
         13    1    4    4    0    0  0.19584583848E+02  0.45965885984E+02 -0.16320124573E+03  0.17067825053E+03  0.00000000000E+00 0. -1.
        -14    1    4    4    0    0 -0.25196274597E+02  0.45190687571E+02 -0.58264958299E+03  0.58494237926E+03  0.00000000000E+00 0.  1.
        -11    1    3    3    0    0  0.32680506631E+02  0.31156991701E+02  0.94186654073E+00  0.45162603536E+02  0.00000000000E+00 0. -1.
         11    1    3    3    0    0  0.15561406992E+02 -0.60015776180E+02  0.96114237725E+01  0.62740977399E+02  0.00000000000E+00 0.  1.
         21    1    1    2  502  501 -0.42630222874E+02 -0.62297789077E+02 -0.43212708347E+02  0.86980966819E+02  0.00000000000E+00 0. -1.
<scales pt_clust_5="13000.00000" pt_clust_6="13000.00000" pt_clust_7="13000.00000" pt_clust_8="13000.00000" pt_clust_9="75.48742"></scales>
<clustering>
<clus scale="   75.487">  1  9  2 -1</clus>
<clus scale="   79.549">  5  6 -1 -1</clus>
<clus scale="   91.497">  7  8 -1 -1</clus>
<clus scale="  117.785">  2  5  1 -1</clus>
<clus scale="  117.785">  2  5  1 -1</clus>
</clustering>
</event>
<event>
 9    1  0.6106093E-005  0.4062546E+03  0.7546771E-02  0.1070539E+00
          1   -1    0    0  502    0  0.00000000000E+00  0.00000000000E+00  0.13610252176E+04  0.13610252176E+04  0.00000000000E+00 0. -1.
         -2   -1    0    0    0  501 -0.00000000000E+00 -0.00000000000E+00 -0.30872131227E+03  0.30872131227E+03  0.00000000000E+00 0.  1.
        -24    2    1    2    0    0 -0.97918814220E+02  0.12685338798E+03  0.30963332387E+02  0.18243957920E+03  0.81520524318E+02 0.  0.
         23    2    1    2    0    0  0.57834436470E+02 -0.41577770042E+03  0.11035994510E+04  0.11842384128E+04  0.90955768911E+02 0.  0.
         13    1    3    3    0    0 -0.18979848972E+02 -0.63674346866E+01 -0.98326719053E+01  0.22303818693E+02  0.00000000000E+00 0. -1.
        -14    1    3    3    0    0 -0.78938965248E+02  0.13322082266E+03  0.40796004292E+02  0.16013576050E+03  0.00000000000E+00 0.  1.
        -11    1    4    4    0    0  0.78439147621E+02 -0.25880687998E+03  0.72982514983E+03  0.77831770526E+03  0.00000000000E+00 0.  1.
         11    1    4    4    0    0 -0.20604711152E+02 -0.15697082044E+03  0.37377430115E+03  0.40592070752E+03  0.00000000000E+00 0. -1.
         21    1    1    2  502  501  0.40084377750E+02  0.28892431244E+03 -0.82258878012E+02  0.30306853791E+03  0.00000000000E+00 0.  1.
<scales pt_clust_5="13000.00000" pt_clust_6="13000.00000" pt_clust_7="13000.00000" pt_clust_8="13000.00000" pt_clust_9="395.94173"></scales>
<clustering>
<clus scale="   81.521">  5  6 -1 -1</clus>
<clus scale="   90.956">  7  8 -1 -1</clus>
<clus scale="  179.793">  2  5  1 -1</clus>
<clus scale="  395.942">  2  9  1 -1</clus>
<clus scale="  406.255">  1  5  2 -1</clus>
</clustering>
</event>
<event>
 9    1  0.6106093E-005  0.1085555E+03  0.7546771E-02  0.1269214E+00
          1   -1    0    0  502    0  0.00000000000E+00  0.00000000000E+00  0.70030186424E+03  0.70030186424E+03  0.00000000000E+00 0. -1.
         -2   -1    0    0    0  501 -0.00000000000E+00 -0.00000000000E+00 -0.36250690449E+02  0.36250690449E+02  0.00000000000E+00 0.  1.
         23    2    1    2    0    0 -0.26449770887E+01  0.93411188267E+02  0.27097401196E+03  0.30047030649E+03  0.90126821358E+02 0.  0.
        -24    2    1    2    0    0 -0.44972482124E+02 -0.33376421770E+02  0.30597391763E+03  0.32007116786E+03  0.75425490052E+02 0.  0.
         13    1    4    4    0    0 -0.23736124242E+01  0.22034910007E+02  0.49321068121E+02  0.54071610440E+02  0.00000000000E+00 0. -1.
        -14    1    4    4    0    0 -0.42598869700E+02 -0.55411331777E+02  0.25665284950E+03  0.26599955742E+03  0.00000000000E+00 0.  1.
        -11    1    3    3    0    0 -0.43843284681E+02  0.28480732175E+02  0.12465925815E+03  0.13517883103E+03  0.00000000000E+00 0. -1.
         11    1    3    3    0    0  0.41198307593E+02  0.64930456093E+02  0.14631475381E+03  0.16529147546E+03  0.00000000000E+00 0.  1.
         21    1    1    2  502  501  0.47617459213E+02 -0.60034766498E+02  0.87103244209E+02  0.11601108034E+03  0.00000000000E+00 0.  1.
<scales pt_clust_5="13000.00000" pt_clust_6="13000.00000" pt_clust_7="13000.00000" pt_clust_8="13000.00000" pt_clust_9="76.62634"></scales>
<clustering>
<clus scale="   75.425">  5  6 -1 -1</clus>
<clus scale="   76.626">  2  9  1 -1</clus>
<clus scale="   90.127">  7  8 -1 -1</clus>
<clus scale="   96.698">  1  5  2 -1</clus>
<clus scale="   96.698">  1  5  2 -1</clus>
</clustering>
</event>
<event>
 9    1  0.6106093E-005  0.2409221E+03  0.7546771E-02  0.1119958E+00
          1   -1    0    0  502    0  0.00000000000E+00  0.00000000000E+00  0.31153436113E+03  0.31153436113E+03  0.00000000000E+00 0. -1.
         -2   -1    0    0    0  501 -0.00000000000E+00 -0.00000000000E+00 -0.40723031263E+03  0.40723031263E+03  0.00000000000E+00 0.  1.
        -24    2    1    2    0    0  0.20867269131E+03  0.77415793184E+02 -0.28774019487E+03  0.37226152730E+03  0.79036243808E+02 0.  0.
         23    2    1    2    0    0 -0.19982495373E+03 -0.98648480538E+02  0.20807380540E+03  0.31846645030E+03  0.92003459878E+02 0.  0.
         13    1    3    3    0    0  0.76722765763E+02 -0.91672258356E+01 -0.11187925073E+03  0.13596833293E+03  0.00000000000E+00 0. -1.
        -14    1    3    3    0    0  0.13194992554E+03  0.86583019020E+02 -0.17586094414E+03  0.23629319437E+03  0.00000000000E+00 0.  1.
        -13    1    4    4    0    0 -0.65099300935E+02 -0.70981094977E+02  0.48614889376E+02  0.10788717392E+03  0.00000000000E+00 0.  1.
         13    1    4    4    0    0 -0.13472565280E+03 -0.27667385562E+02  0.15945891602E+03  0.21057927639E+03  0.00000000000E+00 0. -1.
         21    1    1    2  502  501 -0.88477375730E+01  0.21232687354E+02 -0.16029562034E+02  0.28036696158E+02  0.00000000000E+00 0.  1.
<scales pt_clust_5="13000.00000" pt_clust_6="13000.00000" pt_clust_7="13000.00000" pt_clust_8="13000.00000" pt_clust_9="23.00238"></scales>
<clustering>
<clus scale="   23.002">  2  9  1 -1</clus>
<clus scale="   79.036">  5  6 -1 -1</clus>
<clus scale="   92.003">  7  8 -1 -1</clus>
<clus scale="  236.274">  2  5  1 -1</clus>
<clus scale="  240.922">  1  5  2 -1</clus>
</clustering>
</event>
<event>
 9    1  0.6106093E-005  0.9402569E+02  0.7546771E-02  0.1299130E+00
         -2   -1    0    0    0  501 -0.00000000000E+00  0.00000000000E+00  0.38097869170E+03  0.38097869170E+03  0.00000000000E+00 0.  1.
          1   -1    0    0  502    0  0.00000000000E+00 -0.00000000000E+00 -0.36941600164E+02  0.36941600164E+02  0.00000000000E+00 0. -1.
         23    2    1    2    0    0  0.10123925595E+02 -0.97530011872E+01  0.26831619447E+03  0.28323077080E+03  0.89601754493E+02 0.  0.
        -24    2    1    2    0    0 -0.12775008978E+02  0.29750342799E+02  0.42555845519E+02  0.95871451065E+02  0.79574187966E+02 0.  0.
         13    1    4    4    0    0 -0.27622861624E+02  0.50431012803E+02  0.40496022006E+02  0.70329491217E+02  0.00000000000E+00 0. -1.
        -14    1    4    4    0    0  0.14847852646E+02 -0.20680670003E+02  0.20598235134E+01  0.25541959848E+02  0.00000000000E+00 0.  1.
        -11    1    3    3    0    0 -0.36650709722E+02  0.81961545971E+01  0.80208139960E+02  0.88565214329E+02  0.00000000000E+00 0. -1.
         11    1    3    3    0    0  0.46774635317E+02 -0.17949155784E+02  0.18810805451E+03  0.19466555647E+03  0.00000000000E+00 0.  1.
         21    1    1    2  502  501  0.26510833830E+01 -0.19997341612E+02  0.33165051540E+02  0.38818069997E+02  0.00000000000E+00 0.  1.
<scales pt_clust_5="13000.00000" pt_clust_6="13000.00000" pt_clust_7="13000.00000" pt_clust_8="13000.00000" pt_clust_9="20.17231"></scales>
<clustering>
<clus scale="   20.172">  1  9  2 -1</clus>
<clus scale="   79.574">  5  6 -1 -1</clus>
<clus scale="   84.525">  2  5  1 -1</clus>
<clus scale="   89.602">  7  8 -1 -1</clus>
<clus scale="   84.525">  2  5  1 -1</clus>
</clustering>
</event>
<event>
 9    1  0.6106093E-005  0.1878955E+03  0.7546771E-02  0.1161357E+00
          3   -1    0    0  502    0  0.00000000000E+00  0.00000000000E+00  0.75477768816E+03  0.75477768816E+03  0.00000000000E+00 0. -1.
         -4   -1    0    0    0  501 -0.00000000000E+00 -0.00000000000E+00 -0.72697041412E+02  0.72697041412E+02  0.00000000000E+00 0.  1.
         23    2    1    2    0    0  0.16557373025E+03 -0.11470548134E+02  0.30345901167E+03  0.35755234056E+03  0.90609441297E+02 0.  0.
        -24    2    1    2    0    0 -0.16388524042E+03 -0.97158784542E+01  0.39987327822E+03  0.43986664071E+03  0.81432503661E+02 0.  0.
         13    1    4    4    0    0 -0.89129293748E+02  0.18150683443E+02  0.29104573523E+03  0.30492802152E+03  0.00000000000E+00 0. -1.
        -14    1    4    4    0    0 -0.74755946672E+02 -0.27866561897E+02  0.10882754299E+03  0.13493861918E+03  0.00000000000E+00 0.  1.
        -11    1    3    3    0    0  0.20579570353E+02  0.17120254846E+02  0.11491096829E+03  0.11798793360E+03  0.00000000000E+00 0.  1.
         11    1    3    3    0    0  0.14499415990E+03 -0.28590802980E+02  0.18854804338E+03  0.23956440696E+03  0.00000000000E+00 0. -1.
         21    1    1    2  502  501 -0.16884898292E+01  0.21186426588E+02 -0.21251643147E+02  0.30055748301E+02  0.00000000000E+00 0.  1.
<scales pt_clust_5="13000.00000" pt_clust_6="13000.00000" pt_clust_7="13000.00000" pt_clust_8="13000.00000" pt_clust_9="21.25360"></scales>
<clustering>
<clus scale="   21.254">  2  9  1 -1</clus>
<clus scale="   81.433">  5  6 -1 -1</clus>
<clus scale="   90.609">  7  8 -1 -1</clus>
<clus scale="  183.646">  1  5  2 -1</clus>
<clus scale="  183.646">  1  5  2 -1</clus>
</clustering>
</event>
<event>
 9    1  0.6106093E-005  0.1425164E+03  0.7546771E-02  0.1210552E+00
         -2   -1    0    0    0  501 -0.00000000000E+00  0.00000000000E+00  0.35379798775E+02  0.35379798775E+02  0.00000000000E+00 0.  1.
          1   -1    0    0  502    0  0.00000000000E+00 -0.00000000000E+00 -0.10544086214E+04  0.10544086214E+04  0.00000000000E+00 0. -1.
         23    2    1    2    0    0  0.53233238674E+02 -0.92757879826E+02 -0.16771935847E+03  0.21810405776E+03  0.89452751995E+02 0.  0.
        -24    2    1    2    0    0 -0.24040951281E+02  0.10753753228E+03 -0.78145908919E+03  0.79455004675E+03  0.92136749011E+02 0.  0.
         11    1    4    4    0    0 -0.45756990925E+02  0.63558547780E+02 -0.28151004025E+03  0.29220077682E+03  0.00000000000E+00 0. -1.
        -12    1    4    4    0    0  0.21716039643E+02  0.43978984496E+02 -0.49994904894E+03  0.50234926993E+03  0.00000000000E+00 0.  1.
        -11    1    3    3    0    0  0.13896418020E+02 -0.49494104263E+02 -0.14755122666E+03  0.15625025210E+03  0.00000000000E+00 0. -1.
         11    1    3    3    0    0  0.39336820654E+02 -0.43263775563E+02 -0.20168131803E+02  0.61853805668E+02  0.00000000000E+00 0.  1.
         21    1    1    2  502  501 -0.29192287392E+02 -0.14779652450E+02 -0.69850374960E+02  0.77134315656E+02  0.00000000000E+00 0. -1.
<scales pt_clust_5="13000.00000" pt_clust_6="13000.00000" pt_clust_7="13000.00000" pt_clust_8="13000.00000" pt_clust_9="32.72045"></scales>
<clustering>
<clus scale="   32.720">  1  9  2 -1</clus>
<clus scale="   89.453">  7  8 -1 -1</clus>
<clus scale="   92.137">  5  6 -1 -1</clus>
<clus scale="  140.796">  1  7  2 -1</clus>
<clus scale="  142.516">  2  5  1 -1</clus>
</clustering>
</event>
<event>
 9    1  0.6106093E-005  0.1753374E+03  0.7546771E-02  0.1174035E+00
          1   -1    0    0  502    0  0.00000000000E+00  0.00000000000E+00  0.21493499100E+03  0.21493499100E+03  0.00000000000E+00 0. -1.
         -2   -1    0    0    0  501 -0.00000000000E+00 -0.00000000000E+00 -0.54187976909E+03  0.54187976909E+03  0.00000000000E+00 0.  1.
         23    2    1    2    0    0 -0.73747649131E+02  0.12073364177E+03 -0.42686941148E+03  0.45871832379E+03  0.90496840344E+02 0.  0.
        -24    2    1    2    0    0  0.40516074859E+02 -0.14581951093E+03  0.15434470666E+03  0.22957503282E+03  0.77314456143E+02 0.  0.
         11    1    4    4    0    0  0.58965872720E+02 -0.91662818131E+02  0.12298893888E+03  0.16433297131E+03  0.00000000000E+00 0. -1.
        -12    1    4    4    0    0 -0.18449797862E+02 -0.54156692802E+02  0.31355767777E+02  0.65242061503E+02  0.00000000000E+00 0.  1.
        -13    1    3    3    0    0 -0.89430116033E+02  0.70510538601E+02 -0.31858492395E+03  0.33832799984E+03  0.00000000000E+00 0.  1.
         13    1    3    3    0    0  0.15682466903E+02  0.50223103169E+02 -0.10828448753E+03  0.12039032394E+03  0.00000000000E+00 0. -1.
         21    1    1    2  502  501  0.33231574272E+02  0.25085869163E+02 -0.54420073279E+02  0.68521403488E+02  0.00000000000E+00 0. -1.
<scales pt_clust_5="13000.00000" pt_clust_6="13000.00000" pt_clust_7="13000.00000" pt_clust_8="13000.00000" pt_clust_9="41.63698"></scales>
<clustering>
<clus scale="   41.637">  2  9  1 -1</clus>
<clus scale="   77.314">  5  6 -1 -1</clus>
<clus scale="   90.497">  7  8 -1 -1</clus>
<clus scale="  168.911">  1  5  2 -1</clus>
<clus scale="  168.911">  1  5  2 -1</clus>
</clustering>
</event>
<event>
 9    1  0.6106093E-005  0.1137507E+03  0.7546771E-02  0.1259534E+00
         -2   -1    0    0    0  501 -0.00000000000E+00  0.00000000000E+00  0.28174214349E+03  0.28174214349E+03  0.00000000000E+00 0.  1.
          1   -1    0    0  502    0  0.00000000000E+00 -0.00000000000E+00 -0.10821041488E+03  0.10821041488E+03  0.00000000000E+00 0. -1.
         23    2    1    2    0    0 -0.35688565468E+01 -0.21500817922E+02  0.12855143279E+03  0.16282640384E+03  0.97529200783E+02 0.  0.
        -24    2    1    2    0    0  0.40628384136E+02  0.53964094615E+02 -0.51558276629E+02  0.11874271997E+03  0.82938462439E+02 0.  0.
         11    1    4    4    0    0  0.42784057474E+02  0.73005537696E+02 -0.29713270552E+02  0.89683680539E+02  0.00000000000E+00 0. -1.
        -12    1    4    4    0    0 -0.21556733376E+01 -0.19041443081E+02 -0.21845006077E+02  0.29059039431E+02  0.00000000000E+00 0.  1.
        -13    1    3    3    0    0  0.45713209001E+02 -0.13995150972E+02  0.45715643277E+02  0.66147424501E+02  0.00000000000E+00 0.  1.
         13    1    3    3    0    0 -0.49282065548E+02 -0.75056669504E+01  0.82835789513E+02  0.96678979335E+02  0.00000000000E+00 0. -1.
         21    1    1    2  502  501 -0.37059527589E+02 -0.32463276693E+02  0.96538572447E+02  0.10838343457E+03  0.00000000000E+00 0.  1.
<scales pt_clust_5="13000.00000" pt_clust_6="13000.00000" pt_clust_7="13000.00000" pt_clust_8="13000.00000" pt_clust_9="49.26736"></scales>
<clustering>
<clus scale="   49.267">  1  9  2 -1</clus>
<clus scale="   82.938">  5  6 -1 -1</clus>
<clus scale="   97.529">  7  8 -1 -1</clus>
<clus scale="  101.519">  2  5  1 -1</clus>
<clus scale="  101.519">  2  5  1 -1</clus>
</clustering>
</event>
<event>
 9    1  0.6106093E-005  0.9479230E+02  0.7546771E-02  0.1297951E+00
         -2   -1    0    0    0  501 -0.00000000000E+00  0.00000000000E+00  0.67655992572E+02  0.67655992572E+02  0.00000000000E+00 0.  1.
          1   -1    0    0  502    0  0.00000000000E+00 -0.00000000000E+00 -0.38800685034E+03  0.38800685034E+03  0.00000000000E+00 0. -1.
        -24    2    1    2    0    0  0.56166744470E+01  0.45305309245E+01  0.26163081117E+02  0.85156700623E+02  0.80716070923E+02 0.  0.
         23    2    1    2    0    0 -0.82888712123E+01 -0.25220879592E+02 -0.33110611028E+03  0.34457098573E+03  0.91613917001E+02 0.  0.
         11    1    3    3    0    0  0.51056072868E+01  0.42616212681E+02  0.14976960982E+02  0.45458972374E+02  0.00000000000E+00 0. -1.
        -12    1    3    3    0    0  0.51106716021E+00 -0.38085681756E+02  0.11186120134E+02  0.39697728249E+02  0.00000000000E+00 0.  1.
        -13    1    4    4    0    0 -0.30442528493E+02  0.25694717539E+02 -0.13486435696E+03  0.14062489406E+03  0.00000000000E+00 0. -1.
         13    1    4    4    0    0  0.22153657281E+02 -0.50915597131E+02 -0.19624175332E+03  0.20394609167E+03  0.00000000000E+00 0.  1.
         21    1    1    2  502  501  0.26721967653E+01  0.20690348667E+02 -0.15407828605E+02  0.25935156561E+02  0.00000000000E+00 0. -1.
<scales pt_clust_5="13000.00000" pt_clust_6="13000.00000" pt_clust_7="13000.00000" pt_clust_8="13000.00000" pt_clust_9="20.86219"></scales>
<clustering>
<clus scale="   20.862">  1  9  2 -1</clus>
<clus scale="   80.716">  5  6 -1 -1</clus>
<clus scale="   84.306">  1  5  2 -1</clus>
<clus scale="   91.614">  7  8 -1 -1</clus>
<clus scale="   94.792">  2  5  1 -1</clus>
</clustering>
</event>
<event>
 9    1  0.6106093E-005  0.1002292E+03  0.7546771E-02  0.1287770E+00
          1   -1    0    0  502    0  0.00000000000E+00  0.00000000000E+00  0.85310078097E+02  0.85310078097E+02  0.00000000000E+00 0. -1.
         -2   -1    0    0    0  501 -0.00000000000E+00 -0.00000000000E+00 -0.22226401786E+03  0.22226401786E+03  0.00000000000E+00 0.  1.
        -24    2    1    2    0    0 -0.80774538621E+01 -0.30739172090E+02 -0.15517316638E+03  0.17810412259E+03  0.81438473441E+02 0.  0.
         23    2    1    2    0    0 -0.11809175847E+02  0.16443260711E+02 -0.11318939259E+01  0.98255922207E+02  0.96141081791E+02 0.  0.
         13    1    3    3    0    0  0.30039831327E+02 -0.33339864470E+02 -0.11083593195E+03  0.11957651040E+03  0.00000000000E+00 0. -1.
        -14    1    3    3    0    0 -0.38117285189E+02  0.26006923807E+01 -0.44337234435E+02  0.58527612188E+02  0.00000000000E+00 0.  1.
        -11    1    4    4    0    0 -0.29332383784E+01 -0.38283640145E+02  0.13863136387E+02  0.40821900257E+02  0.00000000000E+00 0. -1.
         11    1    4    4    0    0 -0.88759374681E+01  0.54726900856E+02 -0.14995030313E+02  0.57434021950E+02  0.00000000000E+00 0.  1.
         21    1    1    2  502  501  0.19886629709E+02  0.14295911378E+02  0.19351120547E+02  0.31214051159E+02  0.00000000000E+00 0. -1.
<scales pt_clust_5="13000.00000" pt_clust_6="13000.00000" pt_clust_7="13000.00000" pt_clust_8="13000.00000" pt_clust_9="24.49186"></scales>
<clustering>
<clus scale="   24.492">  1  9  2 -1</clus>
<clus scale="   81.438">  5  6 -1 -1</clus>
<clus scale="   86.227">  2  5  1 -1</clus>
<clus scale="   96.141">  7  8 -1 -1</clus>
<clus scale="   24.492">  1  5  2 -1</clus>
</clustering>
</event>
<event>
 9    1  0.6106093E-005  0.1774532E+03  0.7546771E-02  0.1178116E+00
          1   -1    0    0  502    0  0.00000000000E+00  0.00000000000E+00  0.60042663115E+03  0.60042663115E+03  0.00000000000E+00 0. -1.
         -2   -1    0    0    0  501 -0.00000000000E+00 -0.00000000000E+00 -0.39310154246E+03  0.39310154246E+03  0.00000000000E+00 0.  1.
        -24    2    1    2    0    0  0.32390243679E+02 -0.12557391936E+03 -0.16800148745E+03  0.22426792081E+03  0.72482159233E+02 0.  0.
         23    2    1    2    0    0  0.11548212351E+03  0.10464211113E+03  0.52646696107E+03  0.55678015131E+03  0.92469365336E+02 0.  0.
         11    1    3    3    0    0  0.48507934523E+02 -0.10597107205E+03 -0.15941991193E+03  0.19747809029E+03  0.00000000000E+00 0. -1.
        -12    1    3    3    0    0 -0.16117690844E+02 -0.19602847313E+02 -0.85815755238E+01  0.26789830523E+02  0.00000000000E+00 0.  1.
        -13    1    4    4    0    0  0.50948858080E+02  0.78126630477E+02  0.17347772226E+03  0.19696211983E+03  0.00000000000E+00 0.  1.
         13    1    4    4    0    0  0.64533265432E+02  0.26515480656E+02  0.35298923881E+03  0.35981803148E+03  0.00000000000E+00 0. -1.
         21    1    1    2  502  501 -0.14787236719E+03  0.20931808231E+02 -0.15114038493E+03  0.21248010149E+03  0.00000000000E+00 0.  1.
<scales pt_clust_5="13000.00000" pt_clust_6="13000.00000" pt_clust_7="13000.00000" pt_clust_8="13000.00000" pt_clust_9="151.45641"></scales>
<clustering>
<clus scale="   72.482">  5  6 -1 -1</clus>
<clus scale="   92.469">  7  8 -1 -1</clus>
<clus scale="  148.565">  2  5  1 -1</clus>
<clus scale="  151.456">  2  9  1 -1</clus>
<clus scale="  177.453">  1  5  2 -1</clus>
</clustering>
</event>
<event>
 9    1  0.6106093E-005  0.1240985E+03  0.7546771E-02  0.1239203E+00
          1   -1    0    0  502    0  0.00000000000E+00  0.00000000000E+00  0.26380903817E+03  0.26380903817E+03  0.00000000000E+00 0. -1.
         -2   -1    0    0    0  501 -0.00000000000E+00 -0.00000000000E+00 -0.15458763465E+03  0.15458763465E+03  0.00000000000E+00 0.  1.
        -24    2    1    2    0    0 -0.28792804387E+02  0.19726169538E+02 -0.60772882478E+02  0.10735511731E+03  0.81324231431E+02 0.  0.
         23    2    1    2    0    0  0.32284695489E+02 -0.93350695368E+02  0.19192740811E+03  0.23414015141E+03  0.90712880194E+02 0.  0.
         13    1    3    3    0    0 -0.18595107777E+02 -0.22578607551E+02  0.37913144157E+01  0.29494840518E+02  0.00000000000E+00 0. -1.
        -14    1    3    3    0    0 -0.10197696610E+02  0.42304777090E+02 -0.64564196894E+02  0.77860276787E+02  0.00000000000E+00 0.  1.
        -13    1    4    4    0    0  0.53940105652E+01 -0.27105423891E+02 -0.17457527299E+01  0.27692002580E+02  0.00000000000E+00 0.  1.
         13    1    4    4    0    0  0.26890684924E+02 -0.66245271477E+02  0.19367316084E+03  0.20644814883E+03  0.00000000000E+00 0. -1.
         21    1    1    2  502  501 -0.34918911017E+01  0.73624525830E+02 -0.21933122104E+02  0.76901404099E+02  0.00000000000E+00 0.  1.
<scales pt_clust_5="13000.00000" pt_clust_6="13000.00000" pt_clust_7="13000.00000" pt_clust_8="13000.00000" pt_clust_9="73.70729"></scales>
<clustering>
<clus scale="   73.707">  2  9  1 -1</clus>
<clus scale="   81.324">  5  6 -1 -1</clus>
<clus scale="   90.713">  7  8 -1 -1</clus>
<clus scale="  117.411">  2  5  1 -1</clus>
<clus scale="  124.098">  1  5  2 -1</clus>
</clustering>
</event>
<event>
 9    1  0.6106093E-005  0.9179992E+02  0.7546771E-02  0.1305370E+00
         -2   -1    0    0    0  501 -0.00000000000E+00  0.00000000000E+00  0.36375453262E+02  0.36375453262E+02  0.00000000000E+00 0.  1.
          1   -1    0    0  502    0  0.00000000000E+00 -0.00000000000E+00 -0.49106262294E+03  0.49106262294E+03  0.00000000000E+00 0. -1.
         23    2    1    2    0    0  0.28808175357E+01 -0.11720488162E+02 -0.96659208527E+02  0.13319312616E+03  0.90839073695E+02 0.  0.
        -24    2    1    2    0    0  0.14875986955E+02 -0.11787828864E+02 -0.35529062944E+03  0.36465714749E+03  0.79894655335E+02 0.  0.
         13    1    4    4    0    0  0.11909159333E+02 -0.43159689005E+02 -0.13768508416E+03  0.14478179869E+03  0.00000000000E+00 0. -1.
        -14    1    4    4    0    0  0.29668276225E+01  0.31371860141E+02 -0.21760554528E+03  0.21987534880E+03  0.00000000000E+00 0.  1.
        -13    1    3    3    0    0 -0.96988879354E+01  0.32034065015E+02 -0.93900778000E+01  0.34762383544E+02  0.00000000000E+00 0.  1.
         13    1    3    3    0    0  0.12579705471E+02 -0.43754553176E+02 -0.87269130727E+02  0.98430742613E+02  0.00000000000E+00 0. -1.
         21    1    1    2  502  501 -0.17756804491E+02  0.23508317025E+02 -0.27373317093E+01  0.29587802554E+02  0.00000000000E+00 0.  1.
<scales pt_clust_5="13000.00000" pt_clust_6="13000.00000" pt_clust_7="13000.00000" pt_clust_8="13000.00000" pt_clust_9="29.46091"></scales>
<clustering>
<clus scale="   29.461">  1  9  2 -1</clus>
<clus scale="   79.895">  5  6 -1 -1</clus>
<clus scale="   80.985">  2  5  1 -1</clus>
<clus scale="   90.839">  7  8 -1 -1</clus>
<clus scale="   80.985">  2  5  1 -1</clus>
</clustering>
</event>
<event>
 9    1  0.6106093E-005  0.1746201E+03  0.7546771E-02  0.1200156E+00
          1   -1    0    0  502    0  0.00000000000E+00  0.00000000000E+00  0.27204589589E+03  0.27204589589E+03  0.00000000000E+00 0. -1.
         -2   -1    0    0    0  501 -0.00000000000E+00 -0.00000000000E+00 -0.23953086472E+03  0.23953086472E+03  0.00000000000E+00 0.  1.
         23    2    1    2    0    0  0.10697428182E+03 -0.14383975077E+03 -0.19286467123E+02  0.20327611550E+03  0.93892707098E+02 0.  0.
        -24    2    1    2    0    0 -0.13320653821E+02  0.48329356184E+02  0.12371383774E+03  0.15643023300E+03  0.81560637937E+02 0.  0.
         11    1    4    4    0    0 -0.45135846913E+02  0.42752719949E+02  0.92945482453E+02  0.11182084979E+03  0.00000000000E+00 0. -1.
        -12    1    4    4    0    0  0.31815193092E+02  0.55766362346E+01  0.30768355283E+02  0.44609383206E+02  0.00000000000E+00 0.  1.
        -13    1    3    3    0    0  0.74892918002E+02 -0.12884522058E+03 -0.49177646394E+02  0.15693463906E+03  0.00000000000E+00 0.  1.
         13    1    3    3    0    0  0.32081363813E+02 -0.14994530186E+02  0.29891179271E+02  0.46341476431E+02  0.00000000000E+00 0. -1.
         21    1    1    2  502  501 -0.93653627995E+02  0.95510394583E+02 -0.71912339445E+02  0.15187041211E+03  0.00000000000E+00 0. -1.
<scales pt_clust_5="13000.00000" pt_clust_6="13000.00000" pt_clust_7="13000.00000" pt_clust_8="13000.00000" pt_clust_9="147.22884"></scales>
<clustering>
<clus scale="   81.561">  5  6 -1 -1</clus>
<clus scale="   93.893">  7  8 -1 -1</clus>
<clus scale="   95.736">  1  5  2 -1</clus>
<clus scale="  147.229">  2  9  1 -1</clus>
<clus scale="   95.736">  1  5  2 -1</clus>
</clustering>
</event>
<event>
 9    1  0.6106093E-005  0.1288392E+03  0.7546771E-02  0.1232884E+00
         -2   -1    0    0    0  501 -0.00000000000E+00  0.00000000000E+00  0.32434296150E+03  0.32434296150E+03  0.00000000000E+00 0.  1.
          1   -1    0    0  502    0  0.00000000000E+00 -0.00000000000E+00 -0.14545685936E+03  0.14545685936E+03  0.00000000000E+00 0. -1.
         23    2    1    2    0    0  0.11545039799E+02  0.68856645204E+02  0.10208679034E+03  0.15561428746E+03  0.94443465467E+02 0.  0.
        -24    2    1    2    0    0 -0.13597746267E+02 -0.91038487493E+02 -0.86038991224E+02  0.14983054970E+03  0.81077621482E+02 0.  0.
         13    1    4    4    0    0  0.16708233614E+02 -0.43072051379E+02 -0.80509856961E+02  0.92823508598E+02  0.00000000000E+00 0. -1.
        -14    1    4    4    0    0 -0.30305979881E+02 -0.47966436113E+02 -0.55291342633E+01  0.57007041106E+02  0.00000000000E+00 0.  1.
        -11    1    3    3    0    0  0.21399905851E+02  0.34063248060E+01 -0.11212591825E+02  0.24398385901E+02  0.00000000000E+00 0. -1.
         11    1    3    3    0    0 -0.98548660523E+01  0.65450320398E+02  0.11329938216E+03  0.13121590156E+03  0.00000000000E+00 0.  1.
         21    1    1    2  502  501  0.20527064684E+01  0.22181842288E+02  0.16283830303E+03  0.16435498369E+03  0.00000000000E+00 0.  1.
<scales pt_clust_5="13000.00000" pt_clust_6="13000.00000" pt_clust_7="13000.00000" pt_clust_8="13000.00000" pt_clust_9="22.27662"></scales>
<clustering>
<clus scale="   22.277">  1  9  2 -1</clus>
<clus scale="   81.078">  5  6 -1 -1</clus>
<clus scale="   94.443">  7  8 -1 -1</clus>
<clus scale="  119.388">  2  5  1 -1</clus>
<clus scale="  119.388">  2  5  1 -1</clus>
</clustering>
</event>
<event>
 9    1  0.6106093E-005  0.1345409E+03  0.7546771E-02  0.1223252E+00
          1   -1    0    0  502    0  0.00000000000E+00  0.00000000000E+00  0.22295900775E+03  0.22295900775E+03  0.00000000000E+00 0. -1.
         -2   -1    0    0    0  501 -0.00000000000E+00 -0.00000000000E+00 -0.98238597837E+02  0.98238597837E+02  0.00000000000E+00 0.  1.
         23    2    1    2    0    0  0.62888342049E+02  0.78605716814E+02  0.32104427257E+02  0.14024105114E+03  0.92212015993E+02 0.  0.
        -24    2    1    2    0    0 -0.78105795976E+02 -0.58403499990E+02  0.88490329605E+02  0.15532997680E+03  0.82373412482E+02 0.  0.
         13    1    4    4    0    0 -0.25984251321E+02 -0.69577880464E+02  0.54247222580E+02  0.91972952134E+02  0.00000000000E+00 0. -1.
        -14    1    4    4    0    0 -0.52121544655E+02  0.11174380475E+02  0.34243107025E+02  0.63357024669E+02  0.00000000000E+00 0.  1.
        -11    1    3    3    0    0  0.24694223840E+02  0.92326596840E+02  0.27165113838E+02  0.99357680050E+02  0.00000000000E+00 0.  1.
         11    1    3    3    0    0  0.38194118210E+02 -0.13720880026E+02  0.49393134190E+01  0.40883371089E+02  0.00000000000E+00 0. -1.
         21    1    1    2  502  501  0.15217453926E+02 -0.20202216825E+02  0.41256530506E+01  0.25626577644E+02  0.00000000000E+00 0. -1.
<scales pt_clust_5="13000.00000" pt_clust_6="13000.00000" pt_clust_7="13000.00000" pt_clust_8="13000.00000" pt_clust_9="25.29230"></scales>
<clustering>
<clus scale="   25.292">  2  9  1 -1</clus>
<clus scale="   82.373">  5  6 -1 -1</clus>
<clus scale="   92.212">  7  8 -1 -1</clus>
<clus scale="  127.998">  1  5  2 -1</clus>
<clus scale="  127.998">  1  5  2 -1</clus>
</clustering>
</event>
<event>
 9    1  0.6106093E-005  0.1060647E+03  0.7546771E-02  0.1273192E+00
         -2   -1    0    0    0  501 -0.00000000000E+00  0.00000000000E+00  0.73066813865E+02  0.73066813865E+02  0.00000000000E+00 0.  1.
          1   -1    0    0  502    0  0.00000000000E+00 -0.00000000000E+00 -0.20786163100E+03  0.20786163100E+03  0.00000000000E+00 0. -1.
        -24    2    1    2    0    0  0.33337379101E+02  0.25902518135E+02 -0.43251397062E+02  0.10087105127E+03  0.80758679688E+02 0.  0.
         23    2    1    2    0    0 -0.29028606476E+02 -0.55291042342E+02 -0.99276721293E+02  0.14936448197E+03  0.92488495099E+02 0.  0.
         13    1    3    3    0    0 -0.81772977784E+01  0.36694043823E+02 -0.44124223617E+02  0.57967820046E+02  0.00000000000E+00 0. -1.
        -14    1    3    3    0    0  0.41514676879E+02 -0.10791525688E+02  0.87282655513E+00  0.42903231222E+02  0.00000000000E+00 0.  1.
        -11    1    4    4    0    0 -0.48936602766E+00 -0.32245521803E+02  0.10265419408E+02  0.33843640335E+02  0.00000000000E+00 0.  1.
         11    1    4    4    0    0 -0.28539240448E+02 -0.23045520538E+02 -0.10954214070E+03  0.11552084163E+03  0.00000000000E+00 0. -1.
         21    1    1    2  502  501 -0.43087726251E+01  0.29388524207E+02  0.77333012195E+01  0.30692911630E+02  0.00000000000E+00 0. -1.
<scales pt_clust_5="13000.00000" pt_clust_6="13000.00000" pt_clust_7="13000.00000" pt_clust_8="13000.00000" pt_clust_9="29.70271"></scales>
<clustering>
<clus scale="   29.703">  1  9  2 -1</clus>
<clus scale="   80.759">  5  6 -1 -1</clus>
<clus scale="   92.488">  7  8 -1 -1</clus>
<clus scale="   96.008">  1  5  2 -1</clus>
<clus scale="  106.065">  2  5  1 -1</clus>
</clustering>
</event>
<event>
 9    1  0.6106093E-005  0.1561554E+03  0.7546771E-02  0.1194252E+00
         -2   -1    0    0    0  501 -0.00000000000E+00  0.00000000000E+00  0.58238374083E+02  0.58238374083E+02  0.00000000000E+00 0.  1.
          1   -1    0    0  502    0  0.00000000000E+00 -0.00000000000E+00 -0.59588013609E+03  0.59588013609E+03  0.00000000000E+00 0. -1.
        -24    2    1    2    0    0  0.92903585164E+02 -0.92579924630E+02 -0.26297144681E+03  0.30675272824E+03  0.87983725018E+02 0.  0.
         23    2    1    2    0    0 -0.68934559899E+02  0.97166296963E+02 -0.28325049609E+03  0.32149749078E+03  0.94533222879E+02 0.  0.
         13    1    3    3    0    0  0.44200642268E+02  0.48345706213E+01 -0.11278296815E+03  0.12123146355E+03  0.00000000000E+00 0. -1.
        -14    1    3    3    0    0  0.48702942895E+02 -0.97414495252E+02 -0.15018847866E+03  0.18552126469E+03  0.00000000000E+00 0.  1.
        -11    1    4    4    0    0 -0.13197409430E+02  0.61781489479E+02 -0.22416908988E+03  0.23290106251E+03  0.00000000000E+00 0. -1.
         11    1    4    4    0    0 -0.55737150469E+02  0.35384807484E+02 -0.59081406206E+02  0.88596428271E+02  0.00000000000E+00 0.  1.
         21    1    1    2  502  501 -0.23969025264E+02 -0.45863723324E+01  0.85801808854E+01  0.25868291156E+02  0.00000000000E+00 0.  1.
<scales pt_clust_5="13000.00000" pt_clust_6="13000.00000" pt_clust_7="13000.00000" pt_clust_8="13000.00000" pt_clust_9="24.40387"></scales>
<clustering>
<clus scale="   24.404">  1  9  2 -1</clus>
<clus scale="   87.984">  5  6 -1 -1</clus>
<clus scale="   94.533">  7  8 -1 -1</clus>
<clus scale="  152.280">  1  5  2 -1</clus>
<clus scale="  156.155">  2  5  1 -1</clus>
</clustering>
</event>
<event>
 9    1  0.6106093E-005  0.9761954E+02  0.7546771E-02  0.1289607E+00
          1   -1    0    0  502    0  0.00000000000E+00  0.00000000000E+00  0.30084022630E+03  0.30084022630E+03  0.00000000000E+00 0. -1.
         -2   -1    0    0    0  501 -0.00000000000E+00 -0.00000000000E+00 -0.86258388410E+02  0.86258388410E+02  0.00000000000E+00 0.  1.
        -24    2    1    2    0    0  0.15632151413E+02  0.20316939866E+01 -0.16490897005E+02  0.85588736746E+02  0.82492364711E+02 0.  0.
         23    2    1    2    0    0  0.11625834701E+02  0.43741397157E+02  0.22642206722E+03  0.24803275772E+03  0.90580497463E+02 0.  0.
         13    1    3    3    0    0  0.37493504905E+01  0.35412049297E+02  0.14564262191E+02  0.38473219227E+02  0.00000000000E+00 0. -1.
        -14    1    3    3    0    0  0.11882800922E+02 -0.33380355311E+02 -0.31055159196E+02  0.47115517519E+02  0.00000000000E+00 0.  1.
        -13    1    4    4    0    0 -0.27525201838E+02  0.23818257428E+02  0.18182907692E+03  0.18543667204E+03  0.00000000000E+00 0. -1.
         13    1    4    4    0    0  0.39151036539E+02  0.19923139728E+02  0.44592990295E+02  0.62596085678E+02  0.00000000000E+00 0.  1.
         21    1    1    2  502  501 -0.27257986114E+02 -0.45773091143E+02  0.46506676779E+01  0.53477120244E+02  0.00000000000E+00 0. -1.
<scales pt_clust_5="13000.00000" pt_clust_6="13000.00000" pt_clust_7="13000.00000" pt_clust_8="13000.00000" pt_clust_9="53.27451"></scales>
<clustering>
<clus scale="   53.275">  2  9  1 -1</clus>
<clus scale="   82.492">  5  6 -1 -1</clus>
<clus scale="   90.165">  2  5  1 -1</clus>
<clus scale="   90.580">  7  8 -1 -1</clus>
<clus scale="   97.620">  1  5  2 -1</clus>
</clustering>
</event>
<event>
 9    1  0.6106093E-005  0.1534501E+03  0.7546771E-02  0.1198229E+00
          1   -1    0    0  502    0  0.00000000000E+00  0.00000000000E+00  0.52111547821E+03  0.52111547821E+03  0.00000000000E+00 0. -1.
         -2   -1    0    0    0  501 -0.00000000000E+00 -0.00000000000E+00 -0.62103858513E+02  0.62103858513E+02  0.00000000000E+00 0.  1.
        -24    2    1    2    0    0  0.56833338871E+01 -0.12643974694E+03  0.23354851668E+03  0.27749613257E+03  0.80248888194E+02 0.  0.
         23    2    1    2    0    0 -0.26697550647E+02  0.11798628794E+03  0.23619907925E+03  0.28065690285E+03  0.91349705684E+02 0.  0.
         13    1    3    3    0    0 -0.24524020480E+02 -0.58200956921E+01  0.32953251515E+02  0.41487562953E+02  0.00000000000E+00 0. -1.
        -14    1    3    3    0    0  0.30207354367E+02 -0.12061965125E+03  0.20059526517E+03  0.23600856962E+03  0.00000000000E+00 0.  1.
        -11    1    4    4    0    0 -0.56001289157E+02  0.10397596067E+03  0.17103335808E+03  0.20784502487E+03  0.00000000000E+00 0.  1.
         11    1    4    4    0    0  0.29303738510E+02  0.14010327272E+02  0.65165721166E+02  0.72811877988E+02  0.00000000000E+00 0. -1.
         21    1    1    2  502  501  0.21014216760E+02  0.84534589970E+01 -0.10735976234E+02  0.25066301298E+02  0.00000000000E+00 0. -1.
<scales pt_clust_5="13000.00000" pt_clust_6="13000.00000" pt_clust_7="13000.00000" pt_clust_8="13000.00000" pt_clust_9="22.65079"></scales>
<clustering>
<clus scale="   22.651">  2  9  1 -1</clus>
<clus scale="   80.249">  5  6 -1 -1</clus>
<clus scale="   91.350">  7  8 -1 -1</clus>
<clus scale="  147.112">  2  5  1 -1</clus>
<clus scale="  153.450">  1  5  2 -1</clus>
</clustering>
</event>
<event>
 9    1  0.6106093E-005  0.1968042E+03  0.7546771E-02  0.1153362E+00
         -2   -1    0    0    0  501 -0.00000000000E+00  0.00000000000E+00  0.55246233928E+02  0.55246233928E+02  0.00000000000E+00 0.  1.
          1   -1    0    0  502    0  0.00000000000E+00 -0.00000000000E+00 -0.14959126926E+04  0.14959126926E+04  0.00000000000E+00 0. -1.
        -24    2    1    2    0    0 -0.46412159322E+02 -0.13559845633E+03 -0.37150948795E+03  0.40647413144E+03  0.81614275721E+02 0.  0.
         23    2    1    2    0    0  0.65896764941E+02  0.18178423728E+03 -0.10733231884E+04  0.10943843618E+04  0.90920690887E+02 0.  0.
         13    1    3    3    0    0  0.44471095073E+01 -0.58520742365E+02 -0.23097515358E+03  0.23831486659E+03  0.00000000000E+00 0. -1.
        -14    1    3    3    0    0 -0.50859268829E+02 -0.77077713965E+02 -0.14053433437E+03  0.16815926485E+03  0.00000000000E+00 0.  1.
        -13    1    4    4    0    0  0.40549135981E+02  0.16404519755E+03 -0.10084694768E+04  0.10225290924E+04  0.00000000000E+00 0. -1.
         13    1    4    4    0    0  0.25347628960E+02  0.17739039727E+02 -0.64853711593E+02  0.71855269339E+02  0.00000000000E+00 0.  1.
         21    1    1    2  502  501 -0.19484605618E+02 -0.46185780946E+02  0.41662176950E+01  0.50300433274E+02  0.00000000000E+00 0.  1.
<scales pt_clust_5="13000.00000" pt_clust_6="13000.00000" pt_clust_7="13000.00000" pt_clust_8="13000.00000" pt_clust_9="50.12760"></scales>
<clustering>
<clus scale="   50.128">  1  9  2 -1</clus>
<clus scale="   81.614">  5  6 -1 -1</clus>
<clus scale="   90.921">  7  8 -1 -1</clus>
<clus scale="  192.682">  1  5  2 -1</clus>
<clus scale="  196.804">  2  5  1 -1</clus>
</clustering>
</event>
<event>
 9    1  0.6106093E-005  0.1172372E+03  0.7546771E-02  0.1251661E+00
          1   -1    0    0  502    0  0.00000000000E+00  0.00000000000E+00  0.35128630396E+02  0.35128630396E+02  0.00000000000E+00 0. -1.
         -2   -1    0    0    0  501 -0.00000000000E+00 -0.00000000000E+00 -0.86473827525E+03  0.86473827525E+03  0.00000000000E+00 0.  1.
        -24    2    1    2    0    0  0.14730335073E+02  0.54834918959E+02 -0.32867427660E+03  0.34302527270E+03  0.80098105508E+02 0.  0.
         23    2    1    2    0    0 -0.72735066263E+02 -0.45671002402E+02 -0.12824504149E+03  0.17955314138E+03  0.91740446838E+02 0.  0.
         13    1    3    3    0    0 -0.19174646566E+02  0.47250966388E+02 -0.10566712273E+03  0.11732800911E+03  0.00000000000E+00 0. -1.
        -14    1    3    3    0    0  0.33904981639E+02  0.75839525712E+01 -0.22300715387E+03  0.22569726360E+03  0.00000000000E+00 0.  1.
        -11    1    4    4    0    0  0.15931361495E+01 -0.50577261477E+02 -0.43559952965E+02  0.66768757392E+02  0.00000000000E+00 0.  1.
         11    1    4    4    0    0 -0.74328202412E+02  0.49062590749E+01 -0.84685088528E+02  0.11278438399E+03  0.00000000000E+00 0. -1.
         21    1    1    2  502  501  0.58004731189E+02 -0.91639165565E+01 -0.37269032676E+03  0.37728849156E+03  0.00000000000E+00 0.  1.
<scales pt_clust_5="13000.00000" pt_clust_6="13000.00000" pt_clust_7="13000.00000" pt_clust_8="13000.00000" pt_clust_9="58.72415"></scales>
<clustering>
<clus scale="   58.724">  2  9  1 -1</clus>
<clus scale="   80.098">  5  6 -1 -1</clus>
<clus scale="   91.740">  7  8 -1 -1</clus>
<clus scale="  108.370">  2  5  1 -1</clus>
<clus scale="  117.237">  1  5  2 -1</clus>
</clustering>
</event>
<event>
 9    1  0.6106093E-005  0.1099065E+03  0.7546771E-02  0.1264752E+00
         -2   -1    0    0    0  501 -0.00000000000E+00  0.00000000000E+00  0.42906234317E+03  0.42906234317E+03  0.00000000000E+00 0.  1.
          1   -1    0    0  502    0  0.00000000000E+00 -0.00000000000E+00 -0.45317233411E+02  0.45317233411E+02  0.00000000000E+00 0. -1.
        -24    2    1    2    0    0  0.10943053420E+02 -0.50274927905E+02  0.28189878691E+03  0.29764965284E+03  0.80505099111E+02 0.  0.
         23    2    1    2    0    0 -0.38079183330E+02  0.54553245741E+02  0.62417632169E+02  0.12867479707E+03  0.90747792105E+02 0.  0.
         11    1    3    3    0    0  0.38279095526E+02 -0.24279533293E+02  0.77369118912E+02  0.89670315336E+02  0.00000000000E+00 0. -1.
        -12    1    3    3    0    0 -0.27336042106E+02 -0.25995394612E+02  0.20452966799E+03  0.20797933750E+03  0.00000000000E+00 0.  1.
        -11    1    4    4    0    0 -0.50888893256E+02  0.36505099536E+02  0.79149137139E+02  0.10093011275E+03  0.00000000000E+00 0.  1.
         11    1    4    4    0    0  0.12809709926E+02  0.18048146205E+02 -0.16731504970E+02  0.27744684326E+02  0.00000000000E+00 0. -1.
         21    1    1    2  502  501  0.27136129910E+02 -0.42783178357E+01  0.39428690682E+02  0.48055126666E+02  0.00000000000E+00 0.  1.
<scales pt_clust_5="13000.00000" pt_clust_6="13000.00000" pt_clust_7="13000.00000" pt_clust_8="13000.00000" pt_clust_9="27.47132"></scales>
<clustering>
<clus scale="   27.471">  1  9  2 -1</clus>
<clus scale="   80.505">  5  6 -1 -1</clus>
<clus scale="   90.748">  7  8 -1 -1</clus>
<clus scale="  101.614">  1  5  2 -1</clus>
<clus scale="  109.907">  2  5  1 -1</clus>
</clustering>
</event>
<event>
 9    1  0.6106093E-005  0.1101647E+03  0.7546771E-02  0.1264468E+00
         -2   -1    0    0    0  501 -0.00000000000E+00  0.00000000000E+00  0.15547446688E+03  0.15547446688E+03  0.00000000000E+00 0.  1.
          1   -1    0    0  502    0  0.00000000000E+00 -0.00000000000E+00 -0.14431160610E+03  0.14431160610E+03  0.00000000000E+00 0. -1.
        -24    2    1    2    0    0  0.55793632600E+02  0.17352309062E+02  0.83129744810E+02  0.12953348292E+03  0.80338886337E+02 0.  0.
         23    2    1    2    0    0 -0.49044160191E+02 -0.40791744480E+02 -0.87359231081E+02  0.14141014116E+03  0.91081813233E+02 0.  0.
         11    1    3    3    0    0  0.30255591147E+02 -0.21691655416E+02  0.36946205861E+01  0.37410946681E+02  0.00000000000E+00 0. -1.
        -12    1    3    3    0    0  0.25538041453E+02  0.39043964478E+02  0.79435124224E+02  0.92122536243E+02  0.00000000000E+00 0.  1.
        -11    1    4    4    0    0 -0.30362955872E+02  0.24700964965E+02 -0.14668195157E+02  0.41799553929E+02  0.00000000000E+00 0.  1.
         11    1    4    4    0    0 -0.18681204319E+02 -0.65492709445E+02 -0.72691035924E+02  0.99610587233E+02  0.00000000000E+00 0. -1.
         21    1    1    2  502  501 -0.67494724088E+01  0.23439435418E+02  0.15392347047E+02  0.28842448892E+02  0.00000000000E+00 0.  1.
<scales pt_clust_5="13000.00000" pt_clust_6="13000.00000" pt_clust_7="13000.00000" pt_clust_8="13000.00000" pt_clust_9="24.39185"></scales>
<clustering>
<clus scale="   24.392">  1  9  2 -1</clus>
<clus scale="   80.339">  5  6 -1 -1</clus>
<clus scale="   91.082">  7  8 -1 -1</clus>
<clus scale="  101.463">  1  5  2 -1</clus>
<clus scale="  110.165">  2  5  1 -1</clus>
</clustering>
</event>
<event>
 9    1  0.6106093E-005  0.1077965E+03  0.7546771E-02  0.1268370E+00
         -2   -1    0    0    0  501 -0.00000000000E+00  0.00000000000E+00  0.17373104788E+03  0.17373104788E+03  0.00000000000E+00 0.  1.
          1   -1    0    0  502    0  0.00000000000E+00 -0.00000000000E+00 -0.19830165743E+03  0.19830165743E+03  0.00000000000E+00 0. -1.
        -24    2    1    2    0    0 -0.27018129846E+01 -0.35439171293E+02  0.11482973896E+03  0.14607948744E+03  0.83006704826E+02 0.  0.
         23    2    1    2    0    0 -0.26347419015E+02  0.53764867297E+02 -0.15366409007E+03  0.18876258281E+03  0.91835791752E+02 0.  0.
         11    1    3    3    0    0  0.38447935290E+01  0.24984897809E+02  0.15566574164E+02  0.29687468517E+02  0.00000000000E+00 0. -1.
        -12    1    3    3    0    0 -0.65466065136E+01 -0.60424069102E+02  0.99263164798E+02  0.11639201892E+03  0.00000000000E+00 0.  1.
        -13    1    4    4    0    0 -0.26005214959E+02  0.61414927190E+01  0.11935088540E+01  0.26747216702E+02  0.00000000000E+00 0.  1.
         13    1    4    4    0    0 -0.34220405544E+00  0.47623374578E+02 -0.15485759892E+03  0.16201536610E+03  0.00000000000E+00 0. -1.
         21    1    1    2  502  501  0.29049231999E+02 -0.18325696005E+02  0.14263741557E+02  0.37190635071E+02  0.00000000000E+00 0. -1.
<scales pt_clust_5="13000.00000" pt_clust_6="13000.00000" pt_clust_7="13000.00000" pt_clust_8="13000.00000" pt_clust_9="34.34660"></scales>
<clustering>
<clus scale="   34.347">  1  9  2 -1</clus>
<clus scale="   83.007">  5  6 -1 -1</clus>
<clus scale="   91.836">  7  8 -1 -1</clus>
<clus scale="  100.381">  1  5  2 -1</clus>
<clus scale="  107.797">  2  5  1 -1</clus>
</clustering>
</event>
<event>
 9    1  0.6106093E-005  0.1199706E+03  0.7546771E-02  0.1245764E+00
         -2   -1    0    0    0  501 -0.00000000000E+00  0.00000000000E+00  0.46438809732E+02  0.46438809732E+02  0.00000000000E+00 0.  1.
          1   -1    0    0  502    0  0.00000000000E+00 -0.00000000000E+00 -0.58322187466E+03  0.58322187466E+03  0.00000000000E+00 0. -1.
         23    2    1    2    0    0 -0.31031149411E+02 -0.70820793042E+02 -0.66253755007E+02  0.13688434120E+03  0.91483582421E+02 0.  0.
        -24    2    1    2    0    0  0.54355489970E+02  0.61430540150E+02 -0.42491985103E+03  0.44069540183E+03  0.83230564394E+02 0.  0.
         13    1    4    4    0    0  0.49560306083E+02  0.55382842529E+02 -0.42640704685E+03  0.43283536453E+03  0.00000000000E+00 0. -1.
        -14    1    4    4    0    0  0.47951838869E+01  0.60476976213E+01  0.14871958221E+01  0.78600373054E+01  0.00000000000E+00 0.  1.
        -11    1    3    3    0    0 -0.56198550356E+02 -0.63250154126E+02 -0.25460024720E+02  0.88357636443E+02  0.00000000000E+00 0.  1.
         11    1    3    3    0    0  0.25167400945E+02 -0.75706389165E+01 -0.40793730287E+02  0.48526704758E+02  0.00000000000E+00 0. -1.
         21    1    1    2  502  501 -0.23324340559E+02  0.93902528922E+01 -0.45609458894E+02  0.52080941356E+02  0.00000000000E+00 0.  1.
<scales pt_clust_5="13000.00000" pt_clust_6="13000.00000" pt_clust_7="13000.00000" pt_clust_8="13000.00000" pt_clust_9="25.14362"></scales>
<clustering>
<clus scale="   25.144">  2  9  1 -1</clus>
<clus scale="   83.231">  5  6 -1 -1</clus>
<clus scale="   91.484">  7  8 -1 -1</clus>
<clus scale="  113.803">  2  5  1 -1</clus>
<clus scale="   25.144">  2  5  1 -1</clus>
</clustering>
</event>
<event>
 9    1  0.6106093E-005  0.1552577E+03  0.7546771E-02  0.1195612E+00
          1   -1    0    0  502    0  0.00000000000E+00  0.00000000000E+00  0.20808662401E+03  0.20808662401E+03  0.00000000000E+00 0. -1.
         -2   -1    0    0    0  501 -0.00000000000E+00 -0.00000000000E+00 -0.22994575799E+03  0.22994575799E+03  0.00000000000E+00 0.  1.
         23    2    1    2    0    0  0.34570782268E+02 -0.11992310560E+03 -0.11047629489E+03  0.18930514722E+03  0.89748185426E+02 0.  0.
        -24    2    1    2    0    0  0.14218361641E+02  0.12829238438E+03  0.11657400587E+03  0.19187646020E+03  0.81030731445E+02 0.  0.
         11    1    4    4    0    0  0.32488754602E+02  0.64424681324E+02  0.20383601076E+02  0.74976996019E+02  0.00000000000E+00 0. -1.
        -12    1    4    4    0    0 -0.18270392961E+02  0.63867703057E+02  0.96190404791E+02  0.11689946418E+03  0.00000000000E+00 0.  1.
        -13    1    3    3    0    0  0.22764437701E+02 -0.33611708782E+02 -0.91565742293E+02  0.10016112895E+03  0.00000000000E+00 0.  1.
         13    1    3    3    0    0  0.11806344567E+02 -0.86311396822E+02 -0.18910552593E+02  0.89144018267E+02  0.00000000000E+00 0. -1.
         21    1    1    2  502  501 -0.48789143909E+02 -0.83692787767E+01 -0.27956844955E+02  0.56850774581E+02  0.00000000000E+00 0. -1.
<scales pt_clust_5="13000.00000" pt_clust_6="13000.00000" pt_clust_7="13000.00000" pt_clust_8="13000.00000" pt_clust_9="49.50177"></scales>
<clustering>
<clus scale="   49.502">  2  9  1 -1</clus>
<clus scale="   81.031">  5  6 -1 -1</clus>
<clus scale="   89.748">  7  8 -1 -1</clus>
<clus scale="  150.387">  1  5  2 -1</clus>
<clus scale="  150.387">  1  5  2 -1</clus>
</clustering>
</event>
<event>
 9    1  0.6106093E-005  0.1023256E+03  0.7546771E-02  0.1285001E+00
         -2   -1    0    0    0  501 -0.00000000000E+00  0.00000000000E+00  0.40183817317E+02  0.40183817317E+02  0.00000000000E+00 0.  1.
          1   -1    0    0  502    0  0.00000000000E+00 -0.00000000000E+00 -0.40187859194E+03  0.40187859194E+03  0.00000000000E+00 0. -1.
         23    2    1    2    0    0 -0.17560236029E+02  0.27995791573E+01 -0.57502887583E+02  0.11493762310E+03  0.97917698048E+02 0.  0.
        -24    2    1    2    0    0  0.30175069022E+02  0.13092095522E+02 -0.28927819648E+03  0.30194349346E+03  0.80037869345E+02 0.  0.
         11    1    4    4    0    0  0.26595705965E+02 -0.31020679396E+02 -0.16621929268E+03  0.17116795081E+03  0.00000000000E+00 0. -1.
        -12    1    4    4    0    0  0.35793630570E+01  0.44112774918E+02 -0.12305890380E+03  0.13077554265E+03  0.00000000000E+00 0.  1.
        -13    1    3    3    0    0  0.34807002462E+02  0.21206470205E+02 -0.39041513594E+02  0.56440070718E+02  0.00000000000E+00 0. -1.
         13    1    3    3    0    0 -0.52367238491E+02 -0.18406891048E+02 -0.18461373989E+02  0.58497552383E+02  0.00000000000E+00 0.  1.
         21    1    1    2  502  501 -0.12614832993E+02 -0.15891674680E+02 -0.14913690556E+02  0.25181292691E+02  0.00000000000E+00 0.  1.
<scales pt_clust_5="13000.00000" pt_clust_6="13000.00000" pt_clust_7="13000.00000" pt_clust_8="13000.00000" pt_clust_9="20.28988"></scales>
<clustering>
<clus scale="   20.290">  1  9  2 -1</clus>
<clus scale="   80.038">  5  6 -1 -1</clus>
<clus scale="   85.374">  2  5  1 -1</clus>
<clus scale="   97.918">  7  8 -1 -1</clus>
<clus scale="   85.374">  2  5  1 -1</clus>
</clustering>
</event>
<event>
 9    1  0.6106093E-005  0.9185516E+02  0.7546771E-02  0.1302359E+00
          1   -1    0    0  502    0  0.00000000000E+00  0.00000000000E+00  0.81309478969E+02  0.81309478969E+02  0.00000000000E+00 0. -1.
         -2   -1    0    0    0  501 -0.00000000000E+00 -0.00000000000E+00 -0.25766436281E+03  0.25766436281E+03  0.00000000000E+00 0.  1.
        -24    2    1    2    0    0 -0.17236892145E+02 -0.17541224944E+02 -0.54472957177E+02  0.10251473884E+03  0.83289636769E+02 0.  0.
         23    2    1    2    0    0  0.19819750353E+02 -0.79744127665E+01  0.18111584285E+02  0.94135872111E+02  0.89872794381E+02 0.  0.
         11    1    3    3    0    0 -0.41324608277E+02 -0.32150672125E+02 -0.15841794465E+02  0.54702389520E+02  0.00000000000E+00 0. -1.
        -12    1    3    3    0    0  0.24087716132E+02  0.14609447181E+02 -0.38631162712E+02  0.47812349324E+02  0.00000000000E+00 0.  1.
        -13    1    4    4    0    0  0.19116969126E+02  0.39499829584E+02  0.15659754918E+02  0.46593164411E+02  0.00000000000E+00 0.  1.
         13    1    4    4    0    0  0.70278122657E+00 -0.47474242351E+02  0.24518293668E+01  0.47542707700E+02  0.00000000000E+00 0. -1.
         21    1    1    2  502  501 -0.25828582075E+01  0.25515637711E+02 -0.13999351095E+03  0.14232323082E+03  0.00000000000E+00 0. -1.
<scales pt_clust_5="13000.00000" pt_clust_6="13000.00000" pt_clust_7="13000.00000" pt_clust_8="13000.00000" pt_clust_9="25.64603"></scales>
<clustering>
<clus scale="   25.646">  2  9  1 -1</clus>
<clus scale="   83.290">  5  6 -1 -1</clus>
<clus scale="   85.425">  2  5  1 -1</clus>
<clus scale="   89.873">  7  8 -1 -1</clus>
<clus scale="   91.855">  1  5  2 -1</clus>
</clustering>
</event>
<event>
 9    1  0.6106093E-005  0.9211406E+02  0.7546771E-02  0.1304379E+00
         -2   -1    0    0    0  501 -0.00000000000E+00  0.00000000000E+00  0.56266325257E+03  0.56266325257E+03  0.00000000000E+00 0.  1.
          1   -1    0    0  502    0  0.00000000000E+00 -0.00000000000E+00 -0.37776238149E+02  0.37776238149E+02  0.00000000000E+00 0. -1.
        -24    2    1    2    0    0  0.82050674966E+01  0.31736479921E+01  0.37756657941E+03  0.38634954990E+03  0.81437446233E+02 0.  0.
         23    2    1    2    0    0  0.36520818095E+02 -0.17739776238E+02  0.66311404312E+02  0.12041475740E+03  0.91945862559E+02 0.  0.
         13    1    3    3    0    0  0.35813531696E+02  0.26980965491E+02  0.23148411545E+03  0.23578693190E+03  0.00000000000E+00 0. -1.
        -14    1    3    3    0    0 -0.27608464199E+02 -0.23807317499E+02  0.14608246396E+03  0.15056261800E+03  0.00000000000E+00 0.  1.
        -11    1    4    4    0    0  0.23840609067E+02  0.20190681417E+01 -0.19864850266E+02  0.31097645457E+02  0.00000000000E+00 0. -1.
         11    1    4    4    0    0  0.12680209028E+02 -0.19758844380E+02  0.86176254577E+02  0.89317111939E+02  0.00000000000E+00 0.  1.
         21    1    1    2  502  501 -0.44725885592E+02  0.14566128246E+02  0.81009030704E+02  0.93675183424E+02  0.00000000000E+00 0. -1.
<scales pt_clust_5="13000.00000" pt_clust_6="13000.00000" pt_clust_7="13000.00000" pt_clust_8="13000.00000" pt_clust_9="47.03804"></scales>
<clustering>
<clus scale="   47.038">  2  9  1 -1</clus>
<clus scale="   81.437">  5  6 -1 -1</clus>
<clus scale="   81.627">  1  5  2 -1</clus>
<clus scale="   91.946">  7  8 -1 -1</clus>
<clus scale="   47.038">  2  5  1 -1</clus>
</clustering>
</event>
<event>
 9    1  0.6106093E-005  0.9386525E+02  0.7546771E-02  0.1300315E+00
         -4   -1    0    0    0  501 -0.00000000000E+00  0.00000000000E+00  0.15482267284E+03  0.15482267284E+03  0.00000000000E+00 0.  1.
          3   -1    0    0  502    0  0.00000000000E+00 -0.00000000000E+00 -0.13468330784E+03  0.13468330784E+03  0.00000000000E+00 0. -1.
        -24    2    1    2    0    0  0.43413474723E+02 -0.75418859634E+01  0.63843078603E+02  0.11199956822E+03  0.80785857457E+02 0.  0.
         23    2    1    2    0    0 -0.10185795399E+02 -0.14520153453E+02 -0.80395222553E+02  0.12331158720E+03  0.91802889087E+02 0.  0.
         11    1    3    3    0    0 -0.21254200556E+02  0.14118965533E+01  0.90959892750E+00  0.21320456453E+02  0.00000000000E+00 0. -1.
        -12    1    3    3    0    0  0.64667675279E+02 -0.89537825167E+01  0.62933479676E+02  0.90679111770E+02  0.00000000000E+00 0.  1.
        -13    1    4    4    0    0 -0.35456377997E+02 -0.29842011189E+02 -0.81481812075E+02  0.93738925061E+02  0.00000000000E+00 0. -1.
         13    1    4    4    0    0  0.25270582598E+02  0.15321857737E+02  0.10865895227E+01  0.29572662141E+02  0.00000000000E+00 0.  1.
         21    1    1    2  502  501 -0.33227679324E+02  0.22062039416E+02  0.36691508945E+02  0.54194825261E+02  0.00000000000E+00 0.  1.
<scales pt_clust_5="13000.00000" pt_clust_6="13000.00000" pt_clust_7="13000.00000" pt_clust_8="13000.00000" pt_clust_9="39.88499"></scales>
<clustering>
<clus scale="   39.885">  1  9  2 -1</clus>
<clus scale="   80.786">  5  6 -1 -1</clus>
<clus scale="   83.122">  1  5  2 -1</clus>
<clus scale="   91.803">  7  8 -1 -1</clus>
<clus scale="   93.865">  2  5  1 -1</clus>
</clustering>
</event>
<event>
 9    1  0.6106093E-005  0.1636083E+03  0.7546771E-02  0.1188465E+00
          1   -1    0    0  502    0  0.00000000000E+00  0.00000000000E+00  0.60507187534E+03  0.60507187534E+03  0.00000000000E+00 0. -1.
         -2   -1    0    0    0  501 -0.00000000000E+00 -0.00000000000E+00 -0.10594013655E+03  0.10594013655E+03  0.00000000000E+00 0.  1.
        -24    2    1    2    0    0 -0.13296065351E+03  0.22292709390E+02  0.13708393407E+03  0.20870643688E+03  0.81184182813E+02 0.  0.
         23    2    1    2    0    0  0.88989739739E+02 -0.97956845426E+02  0.37769719170E+03  0.41340447236E+03  0.10360198747E+03 0.  0.
         13    1    3    3    0    0 -0.10351542675E+02  0.32509580874E+02  0.25304042787E+02  0.42477310010E+02  0.00000000000E+00 0. -1.
        -14    1    3    3    0    0 -0.12260911084E+03 -0.10216871484E+02  0.11177989129E+03  0.16622912687E+03  0.00000000000E+00 0.  1.
        -11    1    4    4    0    0 -0.98667140338E+01 -0.59996842438E+02  0.11318029029E+03  0.12847860234E+03  0.00000000000E+00 0.  1.
         11    1    4    4    0    0  0.98856453773E+02 -0.37960002987E+02  0.26451690140E+03  0.28492587002E+03  0.00000000000E+00 0. -1.
         21    1    1    2  502  501  0.43970913776E+02  0.75664136036E+02 -0.15649386983E+02  0.88901102655E+02  0.00000000000E+00 0.  1.
<scales pt_clust_5="13000.00000" pt_clust_6="13000.00000" pt_clust_7="13000.00000" pt_clust_8="13000.00000" pt_clust_9="87.51287"></scales>
<clustering>
<clus scale="   81.184">  5  6 -1 -1</clus>
<clus scale="   87.513">  2  9  1 -1</clus>
<clus scale="  103.602">  7  8 -1 -1</clus>
<clus scale="  150.417">  2  5  1 -1</clus>
<clus scale="  163.608">  1  5  2 -1</clus>
</clustering>
</event>
<event>
 9    1  0.6106093E-005  0.1187923E+03  0.7546771E-02  0.1249804E+00
         -2   -1    0    0    0  501 -0.00000000000E+00  0.00000000000E+00  0.38917105272E+02  0.38917105272E+02  0.00000000000E+00 0.  1.
          1   -1    0    0  502    0  0.00000000000E+00 -0.00000000000E+00 -0.49873013388E+03  0.49873013388E+03  0.00000000000E+00 0. -1.
        -24    2    1    2    0    0  0.24422296088E+02 -0.69881133968E+02 -0.12722175733E+03  0.16675386355E+03  0.78368705742E+02 0.  0.
         23    2    1    2    0    0 -0.47747206266E+02  0.59416963427E+02 -0.32130142571E+03  0.34294680313E+03  0.92562046033E+02 0.  0.
         13    1    3    3    0    0  0.14753370208E+01 -0.54538618572E+02 -0.12799666868E+03  0.13913944346E+03  0.00000000000E+00 0. -1.
        -14    1    3    3    0    0  0.22946959067E+02 -0.15342515396E+02  0.77491134593E+00  0.27614420086E+02  0.00000000000E+00 0.  1.
        -11    1    4    4    0    0  0.12757184561E+01  0.20575968177E+02 -0.59558850315E+01  0.21458576153E+02  0.00000000000E+00 0.  1.
         11    1    4    4    0    0 -0.49022924722E+02  0.38840995250E+02 -0.31534554067E+03  0.32148822698E+03  0.00000000000E+00 0. -1.
         21    1    1    2  502  501  0.23324910178E+02  0.10464170541E+02 -0.11289845567E+02  0.27946572470E+02  0.00000000000E+00 0.  1.
<scales pt_clust_5="13000.00000" pt_clust_6="13000.00000" pt_clust_7="13000.00000" pt_clust_8="13000.00000" pt_clust_9="25.56463"></scales>
<clustering>
<clus scale="   25.565">  1  9  2 -1</clus>
<clus scale="   78.369">  5  6 -1 -1</clus>
<clus scale="   92.562">  7  8 -1 -1</clus>
<clus scale="  108.100">  1  5  2 -1</clus>
<clus scale="  118.792">  2  5  1 -1</clus>
</clustering>
</event>
<event>
 9    1  0.6106093E-005  0.1550242E+03  0.7546771E-02  0.1194955E+00
          3   -1    0    0  502    0  0.00000000000E+00  0.00000000000E+00  0.32229889233E+03  0.32229889233E+03  0.00000000000E+00 0. -1.
         -4   -1    0    0    0  501 -0.00000000000E+00 -0.00000000000E+00 -0.56912596094E+03  0.56912596094E+03  0.00000000000E+00 0.  1.
        -24    2    1    2    0    0  0.73970527040E+02  0.86120301514E+02 -0.32147355673E+03  0.35069375223E+03  0.82173687804E+02 0.  0.
         23    2    1    2    0    0 -0.10338091139E+03 -0.79528743328E+02  0.28680302200E+03  0.32644434408E+03  0.85425420691E+02 0.  0.
         11    1    3    3    0    0  0.74524724263E+02  0.24397570321E+02 -0.18118760857E+03  0.19742878580E+03  0.00000000000E+00 0. -1.
        -12    1    3    3    0    0 -0.55419722232E+00  0.61722731193E+02 -0.14028594816E+03  0.15326496642E+03  0.00000000000E+00 0.  1.
        -13    1    4    4    0    0 -0.85697532108E+02 -0.13006588680E+02  0.14809176900E+03  0.17159373650E+03  0.00000000000E+00 0.  1.
         13    1    4    4    0    0 -0.17683379282E+02 -0.66522154648E+02  0.13871125300E+03  0.15485060759E+03  0.00000000000E+00 0. -1.
         21    1    1    2  502  501  0.29410384349E+02 -0.65915581861E+01 -0.21215653387E+03  0.21428675697E+03  0.00000000000E+00 0. -1.
<scales pt_clust_5="13000.00000" pt_clust_6="13000.00000" pt_clust_7="13000.00000" pt_clust_8="13000.00000" pt_clust_9="30.14000"></scales>
<clustering>
<clus scale="   30.140">  2  9  1 -1</clus>
<clus scale="   82.174">  5  6 -1 -1</clus>
<clus scale="   85.425">  7  8 -1 -1</clus>
<clus scale="  153.256">  2  5  1 -1</clus>
<clus scale="  155.024">  1  5  2 -1</clus>
</clustering>
</event>
<event>
 9    1  0.6106093E-005  0.9809938E+02  0.7546771E-02  0.1290720E+00
         -2   -1    0    0    0  501 -0.00000000000E+00  0.00000000000E+00  0.19900868876E+03  0.19900868876E+03  0.00000000000E+00 0.  1.
          1   -1    0    0  502    0  0.00000000000E+00 -0.00000000000E+00 -0.12650140956E+03  0.12650140956E+03  0.00000000000E+00 0. -1.
        -24    2    1    2    0    0 -0.31699321002E+02  0.13126140882E+02  0.14450273820E+03  0.16854362722E+03  0.79679171702E+02 0.  0.
         23    2    1    2    0    0  0.26170893839E+02 -0.40163239975E+02 -0.76964307006E+02  0.12892618428E+03  0.91653995612E+02 0.  0.
         11    1    3    3    0    0 -0.24738350414E+02  0.17609052561E+02  0.74829818394E+01  0.31273946513E+02  0.00000000000E+00 0. -1.
        -12    1    3    3    0    0 -0.69609705878E+01 -0.44829116787E+01  0.13701975636E+03  0.13726968071E+03  0.00000000000E+00 0.  1.
        -13    1    4    4    0    0  0.58380154018E+02 -0.19248768623E+02 -0.63109183786E+02  0.88099526416E+02  0.00000000000E+00 0. -1.
         13    1    4    4    0    0 -0.32209260179E+02 -0.20914471351E+02 -0.13855123220E+02  0.40826657868E+02  0.00000000000E+00 0.  1.
         21    1    1    2  502  501  0.55284271632E+01  0.27037099093E+02  0.49688480036E+01  0.28040286816E+02  0.00000000000E+00 0.  1.
<scales pt_clust_5="13000.00000" pt_clust_6="13000.00000" pt_clust_7="13000.00000" pt_clust_8="13000.00000" pt_clust_9="27.59653"></scales>
<clustering>
<clus scale="   27.597">  2  9  1 -1</clus>
<clus scale="   79.679">  5  6 -1 -1</clus>
<clus scale="   87.016">  1  5  2 -1</clus>
<clus scale="   91.654">  7  8 -1 -1</clus>
<clus scale="   27.597">  2  5  1 -1</clus>
</clustering>
</event>
<event>
 9    1  0.6106093E-005  0.2104312E+03  0.7546771E-02  0.1147622E+00
          1   -1    0    0  502    0  0.00000000000E+00  0.00000000000E+00  0.12651038806E+04  0.12651038806E+04  0.00000000000E+00 0. -1.
         -2   -1    0    0    0  501 -0.00000000000E+00 -0.00000000000E+00 -0.10967062721E+03  0.10967062721E+03  0.00000000000E+00 0.  1.
        -24    2    1    2    0    0  0.79709870318E+02  0.14782554310E+03  0.10973363258E+03  0.21565351756E+03  0.79113304169E+02 0.  0.
         23    2    1    2    0    0  0.27448588444E+02  0.15252620040E+03  0.35075225966E+03  0.39449955457E+03  0.92655728833E+02 0.  0.
         13    1    3    3    0    0  0.80968290101E+02  0.74279928265E+02  0.81749171480E+02  0.13695363735E+03  0.00000000000E+00 0. -1.
        -14    1    3    3    0    0 -0.12584197835E+01  0.73545614835E+02  0.27984461095E+02  0.78699880208E+02  0.00000000000E+00 0.  1.
        -11    1    4    4    0    0 -0.29885098014E+01  0.14997566900E+03  0.28961633184E+03  0.32615832375E+03  0.00000000000E+00 0. -1.
         11    1    4    4    0    0  0.30437098245E+02  0.25505314009E+01  0.61135927816E+02  0.68341230819E+02  0.00000000000E+00 0.  1.
         21    1    1    2  502  501 -0.10715845876E+03 -0.30035174351E+03  0.69494736111E+03  0.76462143563E+03  0.00000000000E+00 0.  1.
<scales pt_clust_5="13000.00000" pt_clust_6="13000.00000" pt_clust_7="13000.00000" pt_clust_8="13000.00000" pt_clust_9="194.99322"></scales>
<clustering>
<clus scale="   79.113">  5  6 -1 -1</clus>
<clus scale="   92.656">  7  8 -1 -1</clus>
<clus scale="  180.562">  1  7  2 -1</clus>
<clus scale="  194.993">  1  9  2 -1</clus>
<clus scale="  180.562">  1  5  2 -1</clus>
</clustering>
</event>
<event>
 9    1  0.6106093E-005  0.1030211E+03  0.7546771E-02  0.1279258E+00
         -2   -1    0    0    0  501 -0.00000000000E+00  0.00000000000E+00  0.78436181611E+03  0.78436181611E+03  0.00000000000E+00 0.  1.
          1   -1    0    0  502    0  0.00000000000E+00 -0.00000000000E+00 -0.25935299275E+02  0.25935299275E+02  0.00000000000E+00 0. -1.
        -24    2    1    2    0    0 -0.23819829039E+02  0.57778672707E+02  0.54931561436E+03  0.55869484968E+03  0.80539006691E+02 0.  0.
         23    2    1    2    0    0  0.25588248573E+02 -0.35517118972E+02  0.10879654704E+03  0.14883226042E+03  0.91641305575E+02 0.  0.
         13    1    3    3    0    0 -0.50372118095E+02  0.16958741794E+02  0.29878361589E+03  0.30347421362E+03  0.00000000000E+00 0. -1.
        -14    1    3    3    0    0  0.26552289057E+02  0.40819930913E+02  0.25053199847E+03  0.25522063606E+03  0.00000000000E+00 0.  1.
        -13    1    4    4    0    0  0.44301371105E+02 -0.57190578786E+02  0.70486050660E+02  0.10100325302E+03  0.00000000000E+00 0. -1.
         13    1    4    4    0    0 -0.18713122532E+02  0.21673459814E+02  0.38310496385E+02  0.47829007396E+02  0.00000000000E+00 0.  1.
         21    1    1    2  502  501 -0.17684195338E+01 -0.22261553734E+02  0.10031435543E+03  0.10277000529E+03  0.00000000000E+00 0. -1.
<scales pt_clust_5="13000.00000" pt_clust_6="13000.00000" pt_clust_7="13000.00000" pt_clust_8="13000.00000" pt_clust_9="22.33168"></scales>
<clustering>
<clus scale="   22.332">  1  9  2 -1</clus>
<clus scale="   80.539">  5  6 -1 -1</clus>
<clus scale="   91.641">  7  8 -1 -1</clus>
<clus scale="   93.283">  1  5  2 -1</clus>
<clus scale="  103.021">  2  5  1 -1</clus>
</clustering>
</event>
<event>
 9    1  0.6106093E-005  0.1280936E+03  0.7546771E-02  0.1233329E+00
          3   -1    0    0  502    0  0.00000000000E+00  0.00000000000E+00  0.18757210169E+03  0.18757210169E+03  0.00000000000E+00 0. -1.
         -4   -1    0    0    0  501 -0.00000000000E+00 -0.00000000000E+00 -0.11956375671E+03  0.11956375671E+03  0.00000000000E+00 0.  1.
        -24    2    1    2    0    0  0.75738644235E+02  0.54943847431E+02 -0.13769234803E+02  0.12422782787E+03  0.80546835991E+02 0.  0.
         23    2    1    2    0    0 -0.52696668574E+02 -0.71576574881E+02  0.86320185213E+02  0.15412929657E+03  0.91676173211E+02 0.  0.
         11    1    3    3    0    0  0.69937416963E+02  0.62856840204E+01  0.78717336748E+01  0.70659155855E+02  0.00000000000E+00 0. -1.
        -12    1    3    3    0    0  0.58012272720E+01  0.48658163411E+02 -0.21640968477E+02  0.53568672011E+02  0.00000000000E+00 0.  1.
        -11    1    4    4    0    0 -0.36371652919E+02 -0.92593311519E+02  0.77458999166E+02  0.12608058941E+03  0.00000000000E+00 0. -1.
         11    1    4    4    0    0 -0.16325015655E+02  0.21016736638E+02  0.88611860470E+01  0.28048707157E+02  0.00000000000E+00 0.  1.
         21    1    1    2  502  501 -0.23041975661E+02  0.16632727450E+02 -0.45426054225E+01  0.28778733968E+02  0.00000000000E+00 0. -1.
<scales pt_clust_5="13000.00000" pt_clust_6="13000.00000" pt_clust_7="13000.00000" pt_clust_8="13000.00000" pt_clust_9="28.41796"></scales>
<clustering>
<clus scale="   28.418">  2  9  1 -1</clus>
<clus scale="   80.547">  5  6 -1 -1</clus>
<clus scale="   91.676">  7  8 -1 -1</clus>
<clus scale="  120.380">  2  5  1 -1</clus>
<clus scale="  128.094">  1  5  2 -1</clus>
</clustering>
</event>
<event>
 9    1  0.6106093E-005  0.3292019E+03  0.7546771E-02  0.1072308E+00
         -2   -1    0    0    0  501 -0.00000000000E+00  0.00000000000E+00  0.57662838610E+02  0.57662838610E+02  0.00000000000E+00 0.  1.
          1   -1    0    0  502    0  0.00000000000E+00 -0.00000000000E+00 -0.21969798160E+04  0.21969798160E+04  0.00000000000E+00 0. -1.
         23    2    1    2    0    0 -0.26000977427E+03 -0.13433181127E+03 -0.72558503103E+03  0.78960722717E+03  0.10656367916E+03 0.  0.
        -24    2    1    2    0    0  0.28139352109E+03  0.15916946375E+03 -0.13722853642E+04  0.14121961165E+04  0.81323543281E+02 0.  0.
         11    1    4    4    0    0  0.20906722250E+03  0.79908477335E+02 -0.10009871698E+04  0.10257045297E+04  0.00000000000E+00 0. -1.
        -12    1    4    4    0    0  0.72326298587E+02  0.79260986417E+02 -0.37129819445E+03  0.38649158676E+03  0.00000000000E+00 0.  1.
        -11    1    3    3    0    0 -0.22718847343E+03 -0.10545585261E+03 -0.68722925867E+03  0.73145033549E+03  0.00000000000E+00 0. -1.
         11    1    3    3    0    0 -0.32821300842E+02 -0.28875958661E+02 -0.38355772356E+02  0.58156891686E+02  0.00000000000E+00 0.  1.
         21    1    1    2  502  501 -0.21383746823E+02 -0.24837652481E+02 -0.41446582119E+02  0.52839310918E+02  0.00000000000E+00 0. -1.
<scales pt_clust_5="13000.00000" pt_clust_6="13000.00000" pt_clust_7="13000.00000" pt_clust_8="13000.00000" pt_clust_9="32.77459"></scales>
<clustering>
<clus scale="   32.775">  1  9  2 -1</clus>
<clus scale="   81.324">  5  6 -1 -1</clus>
<clus scale="  106.564">  7  8 -1 -1</clus>
<clus scale="  321.919">  2  5  1 -1</clus>
<clus scale="  321.919">  2  5  1 -1</clus>
</clustering>
</event>
<event>
 9    1  0.6321342E-005  0.9887014E+02  0.7546771E-02  0.1288244E+00
         -2   -1    0    0    0  501 -0.00000000000E+00  0.00000000000E+00  0.32030581572E+03  0.32030581572E+03  0.00000000000E+00 0.  1.
          1   -1    0    0  502    0  0.00000000000E+00 -0.00000000000E+00 -0.16394905861E+03  0.16394905861E+03  0.00000000000E+00 0. -1.
        -24    2    1    2    0    0 -0.58773124087E+01  0.26175348797E+02  0.26344664935E+03  0.27643307046E+03  0.79318432311E+02 0.  0.
         23    2    1    2    0    0  0.24608009648E+02 -0.33266632492E+02 -0.13860626047E+03  0.17048004721E+03  0.90219333172E+02 0.  0.
         13    1    3    3    0    0  0.22186347764E+02  0.33138882117E+02  0.67782959495E+02  0.78644447566E+02  0.00000000000E+00 0. -1.
        -14    1    3    3    0    0 -0.28063660173E+02 -0.69635333200E+01  0.19566368985E+03  0.19778862289E+03  0.00000000000E+00 0.  1.
        -13    1    4    4    0    0  0.12400500039E+02  0.30530964030E+02 -0.34010225526E+02  0.47356178120E+02  0.00000000000E+00 0.  1.
         13    1    4    4    0    0  0.12207509609E+02 -0.63797596522E+02 -0.10459603495E+03  0.12312386909E+03  0.00000000000E+00 0. -1.
         21    1    1    2  502  501 -0.18730697239E+02  0.70912836951E+01  0.31516368243E+02  0.37341756664E+02  0.00000000000E+00 0. -1.
<scales pt_clust_5="13000.00000" pt_clust_6="13000.00000" pt_clust_7="13000.00000" pt_clust_8="13000.00000" pt_clust_9="20.02811"></scales>
<clustering>
<clus scale="   20.028">  1  9  2 -1</clus>
<clus scale="   79.318">  5  6 -1 -1</clus>
<clus scale="   89.035">  1  5  2 -1</clus>
<clus scale="   90.219">  7  8 -1 -1</clus>
<clus scale="   98.870">  2  5  1 -1</clus>
</clustering>
</event>
<event>
 9    1  0.6106093E-005  0.1434557E+03  0.7546771E-02  0.1213101E+00
          1   -1    0    0  502    0  0.00000000000E+00  0.00000000000E+00  0.45449755404E+03  0.45449755404E+03  0.00000000000E+00 0. -1.
         -2   -1    0    0    0  501 -0.00000000000E+00 -0.00000000000E+00 -0.10451130244E+03  0.10451130244E+03  0.00000000000E+00 0.  1.
        -24    2    1    2    0    0 -0.54035738121E+01  0.86423431405E+02 -0.11474771813E+02  0.11555847211E+03  0.75656341327E+02 0.  0.
         23    2    1    2    0    0 -0.25588660730E+02 -0.10877277978E+03  0.37502022067E+03  0.40290579403E+03  0.95951111346E+02 0.  0.
         11    1    3    3    0    0 -0.40121805168E+02  0.40226661727E+02 -0.97125494695E+00  0.56823295397E+02  0.00000000000E+00 0. -1.
        -12    1    3    3    0    0  0.34718231356E+02  0.46196769678E+02 -0.10503516866E+02  0.58735176715E+02  0.00000000000E+00 0.  1.
        -13    1    4    4    0    0 -0.36505486586E+02 -0.80306902981E+01  0.49814852151E+02  0.62278905196E+02  0.00000000000E+00 0.  1.
         13    1    4    4    0    0  0.10916825856E+02 -0.10074208949E+03  0.32520536852E+03  0.34062688883E+03  0.00000000000E+00 0. -1.
         21    1    1    2  502  501  0.30992234542E+02  0.22349348379E+02 -0.13559197260E+02  0.40544590332E+02  0.00000000000E+00 0.  1.
<scales pt_clust_5="13000.00000" pt_clust_6="13000.00000" pt_clust_7="13000.00000" pt_clust_8="13000.00000" pt_clust_9="38.21010"></scales>
<clustering>
<clus scale="   38.210">  2  9  1 -1</clus>
<clus scale="   75.656">  5  6 -1 -1</clus>
<clus scale="   95.951">  7  8 -1 -1</clus>
<clus scale="  130.755">  2  5  1 -1</clus>
<clus scale="  143.456">  1  5  2 -1</clus>
</clustering>
</event>
<event>
 9    1  0.6106093E-005  0.1631829E+03  0.7546771E-02  0.1186073E+00
         -2   -1    0    0    0  501 -0.00000000000E+00  0.00000000000E+00  0.19801003655E+03  0.19801003655E+03  0.00000000000E+00 0.  1.
          1   -1    0    0  502    0  0.00000000000E+00 -0.00000000000E+00 -0.30607688912E+03  0.30607688912E+03  0.00000000000E+00 0. -1.
         23    2    1    2    0    0  0.61428101108E+02  0.12501889237E+03  0.52702146402E+02  0.17455217547E+03  0.91037413570E+02 0.  0.
        -24    2    1    2    0    0 -0.79552235392E+02 -0.10898220402E+03 -0.21644354415E+03  0.26882795817E+03  0.84941063924E+02 0.  0.
         13    1    4    4    0    0 -0.35647218917E+02 -0.10900067188E+03 -0.16844059516E+03  0.20377464215E+03  0.00000000000E+00 0. -1.
        -14    1    4    4    0    0 -0.43905016476E+02  0.18467863439E-01 -0.48002948991E+02  0.65053316016E+02  0.00000000000E+00 0.  1.
        -11    1    3    3    0    0  0.39775007268E+02  0.12341479688E+03  0.69484411142E+02  0.14710998159E+03  0.00000000000E+00 0.  1.
         11    1    3    3    0    0  0.21653093840E+02  0.16040954979E+01 -0.16782264740E+02  0.27442193881E+02  0.00000000000E+00 0. -1.
         21    1    1    2  502  501  0.18124134284E+02 -0.16036688355E+02  0.55674545185E+02  0.60706792030E+02  0.00000000000E+00 0. -1.
<scales pt_clust_5="13000.00000" pt_clust_6="13000.00000" pt_clust_7="13000.00000" pt_clust_8="13000.00000" pt_clust_9="24.20041"></scales>
<clustering>
<clus scale="   24.200">  1  9  2 -1</clus>
<clus scale="   84.941">  5  6 -1 -1</clus>
<clus scale="   91.037">  7  8 -1 -1</clus>
<clus scale="  159.862">  2  5  1 -1</clus>
<clus scale="  159.862">  2  5  1 -1</clus>
</clustering>
</event>
<event>
 9    1  0.6106093E-005  0.1675921E+03  0.7546771E-02  0.1181843E+00
         -2   -1    0    0    0  501 -0.00000000000E+00  0.00000000000E+00  0.24095260759E+03  0.24095260759E+03  0.00000000000E+00 0.  1.
          1   -1    0    0  502    0  0.00000000000E+00 -0.00000000000E+00 -0.48102866853E+03  0.48102866853E+03  0.00000000000E+00 0. -1.
         23    2    1    2    0    0 -0.12002786678E+03  0.26434854082E+02  0.32134621746E+02  0.15596202241E+03  0.90476672162E+02 0.  0.
        -24    2    1    2    0    0  0.14123477396E+03 -0.29159489540E+02 -0.40198072955E+03  0.43449959125E+03  0.80024063004E+02 0.  0.
         11    1    4    4    0    0  0.13037793938E+03 -0.51425673183E+02 -0.34067974253E+03  0.36838253747E+03  0.00000000000E+00 0. -1.
        -12    1    4    4    0    0  0.10856834573E+02  0.22266183643E+02 -0.61300987021E+02  0.66117053781E+02  0.00000000000E+00 0.  1.
        -13    1    3    3    0    0 -0.76912752916E+02  0.16058468769E+02  0.64013327247E+02  0.10134669233E+03  0.00000000000E+00 0.  1.
         13    1    3    3    0    0 -0.43115113864E+02  0.10376385314E+02 -0.31878705501E+02  0.54615330083E+02  0.00000000000E+00 0. -1.
         21    1    1    2  502  501 -0.21206907177E+02  0.27246354579E+01  0.12977004686E+03  0.13151966246E+03  0.00000000000E+00 0.  1.
<scales pt_clust_5="13000.00000" pt_clust_6="13000.00000" pt_clust_7="13000.00000" pt_clust_8="13000.00000" pt_clust_9="21.38122"></scales>
<clustering>
<clus scale="   21.381">  1  9  2 -1</clus>
<clus scale="   80.024">  5  6 -1 -1</clus>
<clus scale="   90.477">  7  8 -1 -1</clus>
<clus scale="  162.188">  2  5  1 -1</clus>
<clus scale="  162.188">  2  5  1 -1</clus>
</clustering>
</event>
<event>
 9    1  0.6106093E-005  0.9627461E+02  0.7546771E-02  0.1296569E+00
         -4   -1    0    0    0  501 -0.00000000000E+00  0.00000000000E+00  0.25249863110E+03  0.25249863110E+03  0.00000000000E+00 0.  1.
          3   -1    0    0  502    0  0.00000000000E+00 -0.00000000000E+00 -0.12931940854E+03  0.12931940854E+03  0.00000000000E+00 0. -1.
        -24    2    1    2    0    0 -0.19999686200E+02 -0.48435586763E+01  0.31297751019E+02  0.83687637505E+02  0.74837316518E+02 0.  0.
         23    2    1    2    0    0 -0.14766591044E+02 -0.55004722143E+02 -0.66436884961E+02  0.12534379167E+03  0.89742045652E+02 0.  0.
         13    1    3    3    0    0  0.23921030653E+02 -0.16397510064E+02  0.85676679943E+00  0.29014273955E+02  0.00000000000E+00 0. -1.
        -14    1    3    3    0    0 -0.43920716853E+02  0.11553951388E+02  0.30440984220E+02  0.54673363549E+02  0.00000000000E+00 0.  1.
        -11    1    4    4    0    0 -0.19670091172E+02  0.17201379929E+02  0.13743120342E+01  0.26166556742E+02  0.00000000000E+00 0.  1.
         11    1    4    4    0    0  0.49035001281E+01 -0.72206102072E+02 -0.67811196995E+02  0.99177234928E+02  0.00000000000E+00 0. -1.
         21    1    1    2  502  501  0.34766277244E+02  0.59848280820E+02  0.15831835650E+03  0.17278661046E+03  0.00000000000E+00 0.  1.
<scales pt_clust_5="13000.00000" pt_clust_6="13000.00000" pt_clust_7="13000.00000" pt_clust_8="13000.00000" pt_clust_9="69.21352"></scales>
<clustering>
<clus scale="   69.214">  1  9  2 -1</clus>
<clus scale="   74.837">  5  6 -1 -1</clus>
<clus scale="   82.558">  1  5  2 -1</clus>
<clus scale="   89.742">  7  8 -1 -1</clus>
<clus scale="   96.275">  2  5  1 -1</clus>
</clustering>
</event>
<event>
 9    1  0.6106093E-005  0.1620590E+03  0.7546771E-02  0.1188668E+00
         -4   -1    0    0    0  501 -0.00000000000E+00  0.00000000000E+00  0.15090367762E+03  0.15090367762E+03  0.00000000000E+00 0.  1.
          3   -1    0    0  502    0  0.00000000000E+00 -0.00000000000E+00 -0.82553893217E+03  0.82553893217E+03  0.00000000000E+00 0. -1.
         23    2    1    2    0    0 -0.14050251115E+03 -0.29616134686E+01 -0.33608575494E+03  0.37557124190E+03  0.91380502694E+02 0.  0.
        -24    2    1    2    0    0  0.12559965410E+03 -0.43469718290E+02 -0.45205649638E+03  0.47733270175E+03  0.76331793654E+02 0.  0.
         13    1    4    4    0    0  0.55516973522E+02 -0.87269988776E+01 -0.84067278931E+02  0.10112171995E+03  0.00000000000E+00 0. -1.
        -14    1    4    4    0    0  0.70082680575E+02 -0.34742719413E+02 -0.36798921745E+03  0.37621098180E+03  0.00000000000E+00 0.  1.
        -11    1    3    3    0    0 -0.96496919667E+02  0.41520345899E+02 -0.21255012717E+03  0.23709312767E+03  0.00000000000E+00 0. -1.
         11    1    3    3    0    0 -0.44005591481E+02 -0.44481959368E+02 -0.12353562777E+03  0.13847811422E+03  0.00000000000E+00 0.  1.
         21    1    1    2  502  501  0.14902857050E+02  0.46431331759E+02  0.11350699677E+03  0.12353866614E+03  0.00000000000E+00 0.  1.
<scales pt_clust_5="13000.00000" pt_clust_6="13000.00000" pt_clust_7="13000.00000" pt_clust_8="13000.00000" pt_clust_9="48.76437"></scales>
<clustering>
<clus scale="   48.764">  1  9  2 -1</clus>
<clus scale="   76.332">  5  6 -1 -1</clus>
<clus scale="   91.381">  7  8 -1 -1</clus>
<clus scale="  154.076">  2  5  1 -1</clus>
<clus scale="  154.076">  2  5  1 -1</clus>
</clustering>
</event>
<event>
 9    1  0.6106093E-005  0.1066940E+03  0.7546771E-02  0.1280994E+00
          1   -1    0    0  502    0  0.00000000000E+00  0.00000000000E+00  0.20115766718E+03  0.20115766718E+03  0.00000000000E+00 0. -1.
         -2   -1    0    0    0  501 -0.00000000000E+00 -0.00000000000E+00 -0.19316167281E+03  0.19316167281E+03  0.00000000000E+00 0.  1.
         23    2    1    2    0    0 -0.31005860520E+01 -0.10103961661E+02 -0.38557260941E+02  0.11247415743E+03  0.10512882594E+03 0.  0.
        -24    2    1    2    0    0 -0.76051144421E+01 -0.20846227635E+02  0.15124276843E+03  0.17215279267E+03  0.79182106858E+02 0.  0.
         11    1    4    4    0    0 -0.22534730705E+02 -0.39716891770E+02  0.48437300582E+02  0.66568894143E+02  0.00000000000E+00 0. -1.
        -12    1    4    4    0    0  0.14929616263E+02  0.18870664135E+02  0.10280546785E+03  0.10558389852E+03  0.00000000000E+00 0.  1.
        -11    1    3    3    0    0  0.20621488475E+02  0.42430943490E+02 -0.10343032807E+02  0.48297091838E+02  0.00000000000E+00 0.  1.
         11    1    3    3    0    0 -0.23722074527E+02 -0.52534905151E+02 -0.28214228134E+02  0.64177065595E+02  0.00000000000E+00 0. -1.
         21    1    1    2  502  501  0.10705700494E+02  0.30950189296E+02 -0.10468951312E+03  0.10969238989E+03  0.00000000000E+00 0.  1.
<scales pt_clust_5="13000.00000" pt_clust_6="13000.00000" pt_clust_7="13000.00000" pt_clust_8="13000.00000" pt_clust_9="32.74945"></scales>
<clustering>
<clus scale="   32.749">  2  9  1 -1</clus>
<clus scale="   79.182">  5  6 -1 -1</clus>
<clus scale="   81.249">  1  5  2 -1</clus>
<clus scale="  105.129">  7  8 -1 -1</clus>
<clus scale="   81.249">  1  5  2 -1</clus>
</clustering>
</event>
<event>
 9    1  0.6106093E-005  0.9670460E+02  0.7546771E-02  0.1290845E+00
         -2   -1    0    0    0  501 -0.00000000000E+00  0.00000000000E+00  0.11181457643E+03  0.11181457643E+03  0.00000000000E+00 0.  1.
          1   -1    0    0  502    0  0.00000000000E+00 -0.00000000000E+00 -0.22933387071E+03  0.22933387071E+03  0.00000000000E+00 0. -1.
         23    2    1    2    0    0 -0.19035943489E+02 -0.41501620326E+02  0.54604709018E+02  0.11413223501E+03  0.89217381643E+02 0.  0.
        -24    2    1    2    0    0 -0.52778754511E+01  0.36678786403E+02 -0.17960349105E+03  0.20112481867E+03  0.82586859395E+02 0.  0.
         13    1    4    4    0    0 -0.23733823509E+02  0.55138463284E+02 -0.15049945935E+03  0.16202972498E+03  0.00000000000E+00 0. -1.
        -14    1    4    4    0    0  0.18455948058E+02 -0.18459676881E+02 -0.29104031700E+02  0.39095093688E+02  0.00000000000E+00 0.  1.
        -11    1    3    3    0    0  0.43239676835E+01 -0.65535028452E+02  0.43699618759E+02  0.78887219056E+02  0.00000000000E+00 0.  1.
         11    1    3    3    0    0 -0.23359911173E+02  0.24033408125E+02  0.10905090260E+02  0.35245015955E+02  0.00000000000E+00 0. -1.
         21    1    1    2  502  501  0.24313818940E+02  0.48228339230E+01  0.74794877501E+01  0.25891393464E+02  0.00000000000E+00 0. -1.
<scales pt_clust_5="13000.00000" pt_clust_6="13000.00000" pt_clust_7="13000.00000" pt_clust_8="13000.00000" pt_clust_9="24.78753"></scales>
<clustering>
<clus scale="   24.788">  1  9  2 -1</clus>
<clus scale="   82.587">  5  6 -1 -1</clus>
<clus scale="   89.217">  7  8 -1 -1</clus>
<clus scale="   90.624">  2  5  1 -1</clus>
<clus scale="   90.624">  2  5  1 -1</clus>
</clustering>
</event>
<event>
 9    1  0.6106093E-005  0.1349730E+03  0.7546771E-02  0.1224768E+00
          1   -1    0    0  502    0  0.00000000000E+00  0.00000000000E+00  0.45850445527E+02  0.45850445527E+02  0.00000000000E+00 0. -1.
         -2   -1    0    0    0  501 -0.00000000000E+00 -0.00000000000E+00 -0.79294562282E+03  0.79294562282E+03  0.00000000000E+00 0.  1.
        -24    2    1    2    0    0  0.17983515398E+02 -0.94240057236E+02 -0.46684947307E+03  0.48179423587E+03  0.70517090092E+02 0.  0.
         23    2    1    2    0    0 -0.43906797111E+02  0.92539815845E+02 -0.86418237096E+02  0.16144111462E+03  0.90020538984E+02 0.  0.
         11    1    3    3    0    0  0.34701559411E+02 -0.52337519137E+02 -0.16415629232E+03  0.17575751035E+03  0.00000000000E+00 0. -1.
        -12    1    3    3    0    0 -0.16718044014E+02 -0.41902538099E+02 -0.30269318075E+03  0.30603672552E+03  0.00000000000E+00 0.  1.
        -11    1    4    4    0    0 -0.15611172740E+02  0.78020824674E+02 -0.11941747152E+02  0.80458455878E+02  0.00000000000E+00 0. -1.
         11    1    4    4    0    0 -0.28295624371E+02  0.14518991170E+02 -0.74476489944E+02  0.80982658745E+02  0.00000000000E+00 0.  1.
         21    1    1    2  502  501  0.25923281714E+02  0.17002413913E+01 -0.19382746713E+03  0.19556071786E+03  0.00000000000E+00 0. -1.
<scales pt_clust_5="13000.00000" pt_clust_6="13000.00000" pt_clust_7="13000.00000" pt_clust_8="13000.00000" pt_clust_9="25.97898"></scales>
<clustering>
<clus scale="   25.979">  2  9  1 -1</clus>
<clus scale="   70.517">  5  6 -1 -1</clus>
<clus scale="   90.021">  7  8 -1 -1</clus>
<clus scale="  122.828">  2  5  1 -1</clus>
<clus scale="  134.973">  1  5  2 -1</clus>
</clustering>
</event>
<event>
 9    1  0.6106093E-005  0.1086452E+03  0.7546771E-02  0.1273938E+00
          3   -1    0    0  502    0  0.00000000000E+00  0.00000000000E+00  0.89508281911E+02  0.89508281911E+02  0.00000000000E+00 0. -1.
         -4   -1    0    0    0  501 -0.00000000000E+00 -0.00000000000E+00 -0.60566885917E+03  0.60566885917E+03  0.00000000000E+00 0.  1.
        -24    2    1    2    0    0  0.12606500305E+02  0.35329435367E+02 -0.13227143231E+03  0.15890154505E+03  0.79667285379E+02 0.  0.
         23    2    1    2    0    0  0.39077159033E+01  0.56178874951E+02  0.30798082030E+02  0.11129090641E+03  0.90916487829E+02 0.  0.
         13    1    3    3    0    0 -0.12272949563E+02  0.39032256737E+02 -0.23343059351E+02  0.47106695669E+02  0.00000000000E+00 0. -1.
        -14    1    3    3    0    0  0.24879449868E+02 -0.37028213708E+01 -0.10892837296E+03  0.11179484938E+03  0.00000000000E+00 0.  1.
        -11    1    4    4    0    0 -0.34654275985E+02 -0.45926592842E+01  0.92355445499E+01  0.36156695735E+02  0.00000000000E+00 0.  1.
         11    1    4    4    0    0  0.38561991888E+02  0.60771534235E+02  0.21562537480E+02  0.75134210678E+02  0.00000000000E+00 0. -1.
         21    1    1    2  502  501 -0.16514216208E+02 -0.91508310317E+02 -0.41468722697E+03  0.42498468962E+03  0.00000000000E+00 0.  1.
<scales pt_clust_5="13000.00000" pt_clust_6="13000.00000" pt_clust_7="13000.00000" pt_clust_8="13000.00000" pt_clust_9="59.48078"></scales>
<clustering>
<clus scale="   79.667">  5  6 -1 -1</clus>
<clus scale="   88.057">  2  5  1 -1</clus>
<clus scale="   59.481">  2  9  1 -1</clus>
<clus scale="   90.916">  7  8 -1 -1</clus>
<clus scale="  108.645">  1  5  2 -1</clus>
</clustering>
</event>
<event>
 9    1  0.6106093E-005  0.1122968E+03  0.7546771E-02  0.1260984E+00
         -2   -1    0    0    0  501 -0.00000000000E+00  0.00000000000E+00  0.13415118930E+03  0.13415118930E+03  0.00000000000E+00 0.  1.
          1   -1    0    0  502    0  0.00000000000E+00 -0.00000000000E+00 -0.36895123661E+03  0.36895123661E+03  0.00000000000E+00 0. -1.
        -24    2    1    2    0    0  0.89836483035E+02  0.44459273529E+02  0.23867006576E+02  0.13028159186E+03  0.79727275678E+02 0.  0.
         23    2    1    2    0    0 -0.43117616993E+02 -0.42321430407E+02 -0.29419523342E+03  0.31408860816E+03  0.91927069174E+02 0.  0.
         11    1    3    3    0    0  0.44881796194E+02  0.16163569667E+02 -0.28599886626E+02  0.55620051502E+02  0.00000000000E+00 0. -1.
        -12    1    3    3    0    0  0.44954686841E+02  0.28295703862E+02  0.52466893202E+02  0.74661540356E+02  0.00000000000E+00 0.  1.
        -11    1    4    4    0    0  0.17121512229E+01 -0.48444928786E+02 -0.68588145578E+02  0.83989143946E+02  0.00000000000E+00 0.  1.
         11    1    4    4    0    0 -0.44829768216E+02  0.61234983797E+01 -0.22560708784E+03  0.23009946422E+03  0.00000000000E+00 0. -1.
         21    1    1    2  502  501 -0.46718866042E+02 -0.21378431228E+01  0.35528179526E+02  0.58732225890E+02  0.00000000000E+00 0. -1.
<scales pt_clust_5="13000.00000" pt_clust_6="13000.00000" pt_clust_7="13000.00000" pt_clust_8="13000.00000" pt_clust_9="46.76775"></scales>
<clustering>
<clus scale="   46.768">  1  9  2 -1</clus>
<clus scale="   79.727">  5  6 -1 -1</clus>
<clus scale="   91.927">  7  8 -1 -1</clus>
<clus scale="  102.550">  1  5  2 -1</clus>
<clus scale="  112.297">  2  5  1 -1</clus>
</clustering>
</event>
<event>
 9    1  0.6106093E-005  0.1223608E+03  0.7546771E-02  0.1243611E+00
          1   -1    0    0  502    0  0.00000000000E+00  0.00000000000E+00  0.55639428425E+03  0.55639428425E+03  0.00000000000E+00 0. -1.
         -2   -1    0    0    0  501 -0.00000000000E+00 -0.00000000000E+00 -0.76856034582E+02  0.76856034582E+02  0.00000000000E+00 0.  1.
         23    2    1    2    0    0  0.71437453041E+02 -0.56669344965E+02  0.88953888184E+02  0.15743772004E+03  0.92515496614E+02 0.  0.
        -24    2    1    2    0    0 -0.45964483794E+02  0.63424646610E+02  0.42113864653E+03  0.43546324195E+03  0.78326597816E+02 0.  0.
         11    1    4    4    0    0 -0.16320327967E+01  0.65027289437E+02  0.28286056777E+03  0.29024354032E+03  0.00000000000E+00 0. -1.
        -12    1    4    4    0    0 -0.44332450997E+02 -0.16026428279E+01  0.13827807876E+03  0.14521970163E+03  0.00000000000E+00 0.  1.
        -11    1    3    3    0    0  0.56367992709E+02 -0.38960289795E+02  0.32103288408E+01  0.68597091733E+02  0.00000000000E+00 0.  1.
         11    1    3    3    0    0  0.15069460332E+02 -0.17709055170E+02  0.85743559344E+02  0.88840628310E+02  0.00000000000E+00 0. -1.
         21    1    1    2  502  501 -0.25472969247E+02 -0.67553016449E+01 -0.30554285043E+02  0.40349356836E+02  0.00000000000E+00 0. -1.
<scales pt_clust_5="13000.00000" pt_clust_6="13000.00000" pt_clust_7="13000.00000" pt_clust_8="13000.00000" pt_clust_9="26.35349"></scales>
<clustering>
<clus scale="   26.353">  2  9  1 -1</clus>
<clus scale="   78.327">  5  6 -1 -1</clus>
<clus scale="   92.515">  7  8 -1 -1</clus>
<clus scale="  112.018">  1  5  2 -1</clus>
<clus scale="  112.018">  1  5  2 -1</clus>
</clustering>
</event>
<event>
 9    1  0.6106093E-005  0.9294575E+02  0.7546771E-02  0.1304154E+00
         -2   -1    0    0    0  501 -0.00000000000E+00  0.00000000000E+00  0.64462424750E+02  0.64462424750E+02  0.00000000000E+00 0.  1.
          1   -1    0    0  502    0  0.00000000000E+00 -0.00000000000E+00 -0.24480543516E+03  0.24480543516E+03  0.00000000000E+00 0. -1.
        -24    2    1    2    0    0 -0.20714350986E+02  0.19331312884E+02 -0.95198865425E+01  0.83788010316E+02  0.78275273480E+02 0.  0.
         23    2    1    2    0    0 -0.18127661438E+02 -0.11001579571E+02 -0.15772662567E+03  0.18365157385E+03  0.91654597661E+02 0.  0.
         13    1    3    3    0    0 -0.44818865622E+02  0.30192813267E+02  0.38193138971E+01  0.54174937446E+02  0.00000000000E+00 0. -1.
        -14    1    3    3    0    0  0.24104514636E+02 -0.10861500383E+02 -0.13339200440E+02  0.29613072870E+02  0.00000000000E+00 0.  1.
        -11    1    4    4    0    0 -0.54687023381E+02 -0.16358139935E+02 -0.98496600710E+02  0.11384129137E+03  0.00000000000E+00 0. -1.
         11    1    4    4    0    0  0.36559361943E+02  0.53565603631E+01 -0.59230024956E+02  0.69810282487E+02  0.00000000000E+00 0.  1.
         21    1    1    2  502  501  0.38842012424E+02 -0.83297333121E+01 -0.13096498199E+02  0.41828275739E+02  0.00000000000E+00 0.  1.
<scales pt_clust_5="13000.00000" pt_clust_6="13000.00000" pt_clust_7="13000.00000" pt_clust_8="13000.00000" pt_clust_9="39.72514"></scales>
<clustering>
<clus scale="   39.725">  1  9  2 -1</clus>
<clus scale="   78.275">  5  6 -1 -1</clus>
<clus scale="   79.783">  1  5  2 -1</clus>
<clus scale="   91.655">  7  8 -1 -1</clus>
<clus scale="   92.946">  2  5  1 -1</clus>
</clustering>
</event>
<event>
 9    1  0.6106093E-005  0.9969660E+02  0.7546771E-02  0.1286723E+00
         -2   -1    0    0    0  501 -0.00000000000E+00  0.00000000000E+00  0.77938014537E+02  0.77938014537E+02  0.00000000000E+00 0.  1.
          1   -1    0    0  502    0  0.00000000000E+00 -0.00000000000E+00 -0.21676476551E+03  0.21676476551E+03  0.00000000000E+00 0. -1.
        -24    2    1    2    0    0 -0.18492952058E+02  0.55866767466E+01  0.15860562177E+02  0.84085246215E+02  0.80284313322E+02 0.  0.
         23    2    1    2    0    0  0.39476622244E+02 -0.22824424571E+02 -0.15209648623E+03  0.18333811396E+03  0.91652413200E+02 0.  0.
         11    1    3    3    0    0 -0.35140793496E+02 -0.21271674237E+02 -0.11096265474E+02  0.42549813159E+02  0.00000000000E+00 0. -1.
        -12    1    3    3    0    0  0.16647841438E+02  0.26858350983E+02  0.26956827651E+02  0.41535433056E+02  0.00000000000E+00 0.  1.
        -11    1    4    4    0    0 -0.29396468784E+02 -0.15088058500E+02 -0.50845487777E+02  0.60638811940E+02  0.00000000000E+00 0.  1.
         11    1    4    4    0    0  0.68873091029E+02 -0.77363660713E+01 -0.10125099845E+03  0.12269930202E+03  0.00000000000E+00 0. -1.
         21    1    1    2  502  501 -0.20983670186E+02  0.17237747824E+02 -0.25908269196E+01  0.27279419874E+02  0.00000000000E+00 0.  1.
<scales pt_clust_5="13000.00000" pt_clust_6="13000.00000" pt_clust_7="13000.00000" pt_clust_8="13000.00000" pt_clust_9="27.15611"></scales>
<clustering>
<clus scale="   27.156">  1  9  2 -1</clus>
<clus scale="   80.284">  5  6 -1 -1</clus>
<clus scale="   89.358">  1  5  2 -1</clus>
<clus scale="   91.652">  7  8 -1 -1</clus>
<clus scale="   99.697">  2  5  1 -1</clus>
</clustering>
</event>
<event>
 9    1  0.6106093E-005  0.1445814E+03  0.7546771E-02  0.1208753E+00
          1   -1    0    0  502    0  0.00000000000E+00  0.00000000000E+00  0.89313324616E+03  0.89313324616E+03  0.00000000000E+00 0. -1.
         -2   -1    0    0    0  501 -0.00000000000E+00 -0.00000000000E+00 -0.31565639533E+02  0.31565639533E+02  0.00000000000E+00 0.  1.
        -24    2    1    2    0    0 -0.13116700014E+03  0.12534042278E+02  0.35652765163E+03  0.38847668645E+03  0.80251388746E+02 0.  0.
         23    2    1    2    0    0  0.10489885385E+03  0.26294760815E+01  0.47174517619E+03  0.49118343711E+03  0.87789372635E+02 0.  0.
         11    1    3    3    0    0 -0.24536479075E+02  0.36218478484E+02  0.80430493985E+02  0.91558076387E+02  0.00000000000E+00 0. -1.
        -12    1    3    3    0    0 -0.10663052107E+03 -0.23684436206E+02  0.27609715765E+03  0.29691861007E+03  0.00000000000E+00 0.  1.
        -11    1    4    4    0    0  0.12843943440E+02  0.34538501080E+02  0.91174547171E+02  0.98339579986E+02  0.00000000000E+00 0.  1.
         11    1    4    4    0    0  0.92054910408E+02 -0.31909024999E+02  0.38057062902E+03  0.39284385712E+03  0.00000000000E+00 0. -1.
         21    1    1    2  502  501  0.26268146296E+02 -0.15163518360E+02  0.33294778805E+02  0.45038762134E+02  0.00000000000E+00 0. -1.
<scales pt_clust_5="13000.00000" pt_clust_6="13000.00000" pt_clust_7="13000.00000" pt_clust_8="13000.00000" pt_clust_9="30.33064"></scales>
<clustering>
<clus scale="   30.331">  2  9  1 -1</clus>
<clus scale="   80.251">  5  6 -1 -1</clus>
<clus scale="   87.789">  7  8 -1 -1</clus>
<clus scale="  140.132">  2  5  1 -1</clus>
<clus scale="  144.581">  1  5  2 -1</clus>
</clustering>
</event>
<event>
 9    1  0.6106093E-005  0.9992166E+02  0.7546771E-02  0.1286238E+00
          1   -1    0    0  502    0  0.00000000000E+00  0.00000000000E+00  0.27129771088E+03  0.27129771088E+03  0.00000000000E+00 0. -1.
         -2   -1    0    0    0  501 -0.00000000000E+00 -0.00000000000E+00 -0.50078799870E+02  0.50078799870E+02  0.00000000000E+00 0.  1.
         23    2    1    2    0    0  0.74127504786E+01  0.31200015594E+02  0.38969684164E+02  0.10438951168E+03  0.91379122465E+02 0.  0.
        -24    2    1    2    0    0  0.12453514178E+02 -0.42942967897E+02  0.16285844969E+03  0.18684454332E+03  0.79930095857E+02 0.  0.
         11    1    4    4    0    0  0.32807963696E+02 -0.15004584807E+02  0.14191375425E+03  0.14642750320E+03  0.00000000000E+00 0. -1.
        -12    1    4    4    0    0 -0.20354449519E+02 -0.27938383090E+02  0.20944695443E+02  0.40417040120E+02  0.00000000000E+00 0.  1.
        -13    1    3    3    0    0  0.23833124209E+02  0.11314151966E+01 -0.23279545886E+02  0.33335194113E+02  0.00000000000E+00 0.  1.
         13    1    3    3    0    0 -0.16420373730E+02  0.30068600397E+02  0.62249230050E+02  0.71054317568E+02  0.00000000000E+00 0. -1.
         21    1    1    2  502  501 -0.19866264656E+02  0.11742952303E+02  0.19390777154E+02  0.30142455753E+02  0.00000000000E+00 0. -1.
<scales pt_clust_5="13000.00000" pt_clust_6="13000.00000" pt_clust_7="13000.00000" pt_clust_8="13000.00000" pt_clust_9="23.07738"></scales>
<clustering>
<clus scale="   23.077">  2  9  1 -1</clus>
<clus scale="   79.930">  5  6 -1 -1</clus>
<clus scale="   89.571">  1  5  2 -1</clus>
<clus scale="   91.379">  7  8 -1 -1</clus>
<clus scale="   89.571">  1  5  2 -1</clus>
</clustering>
</event>
<event>
 9    1  0.6106093E-005  0.1433508E+03  0.7546771E-02  0.1210819E+00
          1   -1    0    0  502    0  0.00000000000E+00  0.00000000000E+00  0.75142143285E+02  0.75142143285E+02  0.00000000000E+00 0. -1.
         -2   -1    0    0    0  501 -0.00000000000E+00 -0.00000000000E+00 -0.10172505427E+04  0.10172505427E+04  0.00000000000E+00 0.  1.
        -24    2    1    2    0    0  0.57967146060E+02  0.43838191140E+02 -0.58082314045E+03  0.59089698842E+03  0.80757373763E+02 0.  0.
         23    2    1    2    0    0 -0.11741269211E+03 -0.13184487348E+02 -0.15712588746E+02  0.14951005453E+03  0.90259625441E+02 0.  0.
         13    1    3    3    0    0  0.33039560659E+02  0.66606107666E+02 -0.37123381122E+03  0.37860603368E+03  0.00000000000E+00 0. -1.
        -14    1    3    3    0    0  0.24927585401E+02 -0.22767916526E+02 -0.20958932923E+03  0.21229095474E+03  0.00000000000E+00 0.  1.
        -13    1    4    4    0    0 -0.13774309751E+02 -0.28695442555E+02 -0.30010000642E+02  0.43746544675E+02  0.00000000000E+00 0.  1.
         13    1    4    4    0    0 -0.10363838236E+03  0.15510955207E+02  0.14297411896E+02  0.10576350985E+03  0.00000000000E+00 0. -1.
         21    1    1    2  502  501  0.59445546050E+02 -0.30653703792E+02 -0.34557267025E+03  0.35198564307E+03  0.00000000000E+00 0.  1.
<scales pt_clust_5="13000.00000" pt_clust_6="13000.00000" pt_clust_7="13000.00000" pt_clust_8="13000.00000" pt_clust_9="66.88365"></scales>
<clustering>
<clus scale="   66.884">  2  9  1 -1</clus>
<clus scale="   80.757">  5  6 -1 -1</clus>
<clus scale="   90.260">  7  8 -1 -1</clus>
<clus scale="  137.566">  2  5  1 -1</clus>
<clus scale="  143.351">  1  5  2 -1</clus>
</clustering>
</event>
<event>
 9    1  0.6106093E-005  0.9112938E+02  0.7546771E-02  0.1307048E+00
          1   -1    0    0  502    0  0.00000000000E+00  0.00000000000E+00  0.14253572887E+03  0.14253572887E+03  0.00000000000E+00 0. -1.
         -2   -1    0    0    0  501 -0.00000000000E+00 -0.00000000000E+00 -0.17129159863E+03  0.17129159863E+03  0.00000000000E+00 0.  1.
        -24    2    1    2    0    0  0.14087730759E+01  0.39365619992E-01 -0.11943802152E+03  0.14381890999E+03  0.80102757093E+02 0.  0.
         23    2    1    2    0    0 -0.32219800690E+02  0.27041738394E+02  0.78235478137E+02  0.12714088548E+03  0.90965067746E+02 0.  0.
         13    1    3    3    0    0 -0.28988788062E+02 -0.33516707474E+01 -0.11059805738E+02  0.31207416315E+02  0.00000000000E+00 0. -1.
        -14    1    3    3    0    0  0.30397561138E+02  0.33910363674E+01 -0.10837821579E+03  0.11261149367E+03  0.00000000000E+00 0.  1.
        -13    1    4    4    0    0  0.28514172427E+02 -0.86200872738E+01  0.23539561953E+02  0.37966760604E+02  0.00000000000E+00 0.  1.
         13    1    4    4    0    0 -0.60733973118E+02  0.35661825668E+02  0.54695916184E+02  0.89174124879E+02  0.00000000000E+00 0. -1.
         21    1    1    2  502  501  0.30811027615E+02 -0.27081104014E+02  0.12446673626E+02  0.42867532022E+02  0.00000000000E+00 0. -1.
<scales pt_clust_5="13000.00000" pt_clust_6="13000.00000" pt_clust_7="13000.00000" pt_clust_8="13000.00000" pt_clust_9="41.02079"></scales>
<clustering>
<clus scale="   41.021">  1  9  2 -1</clus>
<clus scale="   80.103">  5  6 -1 -1</clus>
<clus scale="   80.289">  2  5  1 -1</clus>
<clus scale="   90.965">  7  8 -1 -1</clus>
<clus scale="   41.021">  1  5  2 -1</clus>
</clustering>
</event>
<event>
 9    1  0.6106093E-005  0.1697153E+03  0.7546771E-02  0.1180639E+00
          1   -1    0    0  502    0  0.00000000000E+00  0.00000000000E+00  0.30859307495E+03  0.30859307495E+03  0.00000000000E+00 0. -1.
         -2   -1    0    0    0  501 -0.00000000000E+00 -0.00000000000E+00 -0.15244787327E+03  0.15244787327E+03  0.00000000000E+00 0.  1.
        -24    2    1    2    0    0 -0.74293383247E+02  0.12906120089E+03  0.11035672308E+03  0.19881624766E+03  0.71923526303E+02 0.  0.
         23    2    1    2    0    0  0.88365114748E+02 -0.10706001725E+03  0.10584601737E+03  0.19673444424E+03  0.90723874262E+02 0.  0.
         11    1    3    3    0    0 -0.20621428656E+02  0.95846789473E+02  0.88338859582E+02  0.13196819497E+03  0.00000000000E+00 0. -1.
        -12    1    3    3    0    0 -0.53671954591E+02  0.33214411419E+02  0.22017863500E+02  0.66848052692E+02  0.00000000000E+00 0.  1.
        -11    1    4    4    0    0  0.12752196893E+02 -0.29778411629E+02 -0.14031349774E+02  0.35302281813E+02  0.00000000000E+00 0.  1.
         11    1    4    4    0    0  0.75612917856E+02 -0.77281605621E+02  0.11987736714E+03  0.16143216243E+03  0.00000000000E+00 0. -1.
         21    1    1    2  502  501 -0.14071731501E+02 -0.22001183642E+02 -0.60057538766E+02  0.65490256311E+02  0.00000000000E+00 0.  1.
<scales pt_clust_5="13000.00000" pt_clust_6="13000.00000" pt_clust_7="13000.00000" pt_clust_8="13000.00000" pt_clust_9="26.11639"></scales>
<clustering>
<clus scale="   26.116">  2  9  1 -1</clus>
<clus scale="   71.924">  5  6 -1 -1</clus>
<clus scale="   90.724">  7  8 -1 -1</clus>
<clus scale="  160.454">  2  5  1 -1</clus>
<clus scale="  169.715">  1  5  2 -1</clus>
</clustering>
</event>
<event>
 9    1  0.6106093E-005  0.1280265E+03  0.7546771E-02  0.1233048E+00
         -2   -1    0    0    0  501 -0.00000000000E+00  0.00000000000E+00  0.89841200619E+02  0.89841200619E+02  0.00000000000E+00 0.  1.
          1   -1    0    0  502    0  0.00000000000E+00 -0.00000000000E+00 -0.24811723616E+03  0.24811723616E+03  0.00000000000E+00 0. -1.
        -24    2    1    2    0    0 -0.95648202513E+02  0.27619497877E+02 -0.36463321794E+02  0.13321489017E+03  0.80654930536E+02 0.  0.
         23    2    1    2    0    0  0.87242916001E+02  0.59444887211E+01 -0.11277475316E+03  0.16898218800E+03  0.90499566699E+02 0.  0.
         11    1    3    3    0    0 -0.10313739283E+03  0.39073255259E+02 -0.42580575899E+02  0.11822498264E+03  0.00000000000E+00 0. -1.
        -12    1    3    3    0    0  0.74891903219E+01 -0.11453757381E+02  0.61172541058E+01  0.14989907526E+02  0.00000000000E+00 0.  1.
        -13    1    4    4    0    0  0.28095215628E+02  0.35985059640E+02 -0.10127207887E+02  0.46763511396E+02  0.00000000000E+00 0.  1.
         13    1    4    4    0    0  0.59147700373E+02 -0.30040570919E+02 -0.10264754527E+03  0.12221867660E+03  0.00000000000E+00 0. -1.
         21    1    1    2  502  501  0.84052865122E+01 -0.33563986598E+02 -0.90379605836E+01  0.35761358605E+02  0.00000000000E+00 0. -1.
<scales pt_clust_5="13000.00000" pt_clust_6="13000.00000" pt_clust_7="13000.00000" pt_clust_8="13000.00000" pt_clust_9="34.60043"></scales>
<clustering>
<clus scale="   34.600">  1  9  2 -1</clus>
<clus scale="   80.655">  5  6 -1 -1</clus>
<clus scale="   90.500">  7  8 -1 -1</clus>
<clus scale="  121.268">  1  5  2 -1</clus>
<clus scale="  128.027">  2  5  1 -1</clus>
</clustering>
</event>
<event>
 9    1  0.6106093E-005  0.1173127E+03  0.7546771E-02  0.1252360E+00
         -2   -1    0    0    0  501 -0.00000000000E+00  0.00000000000E+00  0.52843032669E+02  0.52843032669E+02  0.00000000000E+00 0.  1.
          1   -1    0    0  502    0  0.00000000000E+00 -0.00000000000E+00 -0.38374052484E+03  0.38374052484E+03  0.00000000000E+00 0. -1.
        -24    2    1    2    0    0 -0.33053478224E+02 -0.54371442706E+02 -0.14330985275E+03  0.18848914936E+03  0.10460238681E+03 0.  0.
         23    2    1    2    0    0  0.44714525268E+02  0.22518599685E+02 -0.18654852541E+03  0.21415824182E+03  0.92503643738E+02 0.  0.
         13    1    3    3    0    0  0.14877807974E+02 -0.45122750147E+02 -0.12922456388E+03  0.13768224163E+03  0.00000000000E+00 0. -1.
        -14    1    3    3    0    0 -0.47931286198E+02 -0.92486925590E+01 -0.14085288875E+02  0.50806907733E+02  0.00000000000E+00 0.  1.
        -13    1    4    4    0    0  0.51670551192E+01 -0.27453088483E+02 -0.11499884556E+03  0.11834316628E+03  0.00000000000E+00 0.  1.
         13    1    4    4    0    0  0.39547470149E+02  0.49971688168E+02 -0.71549679857E+02  0.95815075542E+02  0.00000000000E+00 0. -1.
         21    1    1    2  502  501 -0.11661047044E+02  0.31852843021E+02 -0.10391140022E+01  0.33936166321E+02  0.00000000000E+00 0.  1.
<scales pt_clust_5="13000.00000" pt_clust_6="13000.00000" pt_clust_7="13000.00000" pt_clust_8="13000.00000" pt_clust_9="33.92025"></scales>
<clustering>
<clus scale="   33.920">  1  9  2 -1</clus>
<clus scale="   92.504">  7  8 -1 -1</clus>
<clus scale="  104.602">  5  6 -1 -1</clus>
<clus scale="  106.666">  2  7  1 -1</clus>
<clus scale="  106.666">  2  5  1 -1</clus>
</clustering>
</event>
<event>
 9    1  0.6106093E-005  0.1524388E+03  0.7546771E-02  0.1199228E+00
          1   -1    0    0  502    0  0.00000000000E+00  0.00000000000E+00  0.22907075333E+03  0.22907075333E+03  0.00000000000E+00 0. -1.
         -2   -1    0    0    0  501 -0.00000000000E+00 -0.00000000000E+00 -0.15625119792E+03  0.15625119792E+03  0.00000000000E+00 0.  1.
         23    2    1    2    0    0  0.11156692353E+03  0.84895965877E+02 -0.64404376546E+01  0.16745251207E+03  0.91347474589E+02 0.  0.
        -24    2    1    2    0    0 -0.48856025193E+02 -0.97090636403E+02  0.35721123104E+02  0.14055837945E+03  0.81652657785E+02 0.  0.
         13    1    4    4    0    0 -0.61234004876E+02 -0.49905342101E+02  0.44983963229E+02  0.90904914451E+02  0.00000000000E+00 0. -1.
        -14    1    4    4    0    0  0.12377979684E+02 -0.47185294302E+02 -0.92628401250E+01  0.49653465001E+02  0.00000000000E+00 0.  1.
        -11    1    3    3    0    0  0.95863593189E+02  0.20518421225E+02 -0.19389888989E+02  0.99933987730E+02  0.00000000000E+00 0.  1.
         11    1    3    3    0    0  0.15703330338E+02  0.64377544652E+02  0.12949451335E+02  0.67518524340E+02  0.00000000000E+00 0. -1.
         21    1    1    2  502  501 -0.62710898334E+02  0.12194670526E+02  0.43538869958E+02  0.77311059729E+02  0.00000000000E+00 0. -1.
<scales pt_clust_5="13000.00000" pt_clust_6="13000.00000" pt_clust_7="13000.00000" pt_clust_8="13000.00000" pt_clust_9="63.88558"></scales>
<clustering>
<clus scale="   63.886">  1  9  2 -1</clus>
<clus scale="   81.653">  5  6 -1 -1</clus>
<clus scale="   91.347">  7  8 -1 -1</clus>
<clus scale="  146.834">  1  5  2 -1</clus>
<clus scale="   63.886">  1  5  2 -1</clus>
</clustering>
</event>
<event>
 9    1  0.6106093E-005  0.2066854E+03  0.7546771E-02  0.1186363E+00
          1   -1    0    0  502    0  0.00000000000E+00  0.00000000000E+00  0.11853335997E+04  0.11853335997E+04  0.00000000000E+00 0. -1.
         -2   -1    0    0    0  501 -0.00000000000E+00 -0.00000000000E+00 -0.47531417002E+02  0.47531417002E+02  0.00000000000E+00 0.  1.
         23    2    1    2    0    0  0.18010830100E+03  0.44967568983E+02  0.44039301687E+03  0.48679166653E+03  0.92515052512E+02 0.  0.
        -24    2    1    2    0    0 -0.37111372589E+01  0.78006569604E+01  0.25986705412E+03  0.27136971151E+03  0.77691773818E+02 0.  0.
         11    1    4    4    0    0 -0.11243061076E+02  0.39452880922E+02  0.18884892160E+03  0.19325333484E+03  0.00000000000E+00 0. -1.
        -12    1    4    4    0    0  0.75319238168E+01 -0.31652223961E+02  0.71018132519E+02  0.78116376673E+02  0.00000000000E+00 0.  1.
        -11    1    3    3    0    0  0.90430549929E+01  0.29278456766E+02  0.11283307844E+03  0.11692009436E+03  0.00000000000E+00 0.  1.
         11    1    3    3    0    0  0.17106524601E+03  0.15689112217E+02  0.32755993843E+03  0.36987157217E+03  0.00000000000E+00 0. -1.
         21    1    1    2  502  501 -0.17639716374E+03 -0.52768225943E+02  0.43754211171E+03  0.47470363866E+03  0.00000000000E+00 0.  1.
<scales pt_clust_5="13000.00000" pt_clust_6="13000.00000" pt_clust_7="13000.00000" pt_clust_8="13000.00000" pt_clust_9="184.82379"></scales>
<clustering>
<clus scale="   77.692">  5  6 -1 -1</clus>
<clus scale="   78.171">  1  5  2 -1</clus>
<clus scale="   92.515">  7  8 -1 -1</clus>
<clus scale="  184.824">  1  9  2 -1</clus>
<clus scale="   78.171">  1  5  2 -1</clus>
</clustering>
</event>
<event>
 9    1  0.6106093E-005  0.2366843E+03  0.7546771E-02  0.1122559E+00
          1   -1    0    0  502    0  0.00000000000E+00  0.00000000000E+00  0.13826704804E+04  0.13826704804E+04  0.00000000000E+00 0. -1.
         -2   -1    0    0    0  501 -0.00000000000E+00 -0.00000000000E+00 -0.77153566391E+02  0.77153566391E+02  0.00000000000E+00 0.  1.
        -24    2    1    2    0    0  0.23933172736E+03 -0.38643712242E+02  0.23912258366E+03  0.35038453438E+03  0.82563307218E+02 0.  0.
         23    2    1    2    0    0 -0.20985794715E+03  0.36582467007E+02  0.10507884284E+04  0.10760254940E+04  0.91081872685E+02 0.  0.
         13    1    3    3    0    0  0.81100220170E+02 -0.52355041730E+02  0.10355274342E+03  0.14156788752E+03  0.00000000000E+00 0. -1.
        -14    1    3    3    0    0  0.15823150719E+03  0.13711329488E+02  0.13556984024E+03  0.20881664686E+03  0.00000000000E+00 0.  1.
        -11    1    4    4    0    0 -0.14624464448E+03 -0.12525617664E+02  0.57158884120E+03  0.59013404454E+03  0.00000000000E+00 0.  1.
         11    1    4    4    0    0 -0.63613302677E+02  0.49108084671E+02  0.47919958722E+03  0.48589144945E+03  0.00000000000E+00 0. -1.
         21    1    1    2  502  501 -0.29473780205E+02  0.20612452357E+01  0.15605901903E+02  0.33414018401E+02  0.00000000000E+00 0.  1.
<scales pt_clust_5="13000.00000" pt_clust_6="13000.00000" pt_clust_7="13000.00000" pt_clust_8="13000.00000" pt_clust_9="29.54577"></scales>
<clustering>
<clus scale="   29.546">  2  9  1 -1</clus>
<clus scale="   82.563">  5  6 -1 -1</clus>
<clus scale="   91.082">  7  8 -1 -1</clus>
<clus scale="  233.539">  2  5  1 -1</clus>
<clus scale="  236.684">  1  5  2 -1</clus>
</clustering>
</event>
<event>
 9    1  0.6106093E-005  0.1662391E+03  0.7546771E-02  0.1182716E+00
          1   -1    0    0  502    0  0.00000000000E+00  0.00000000000E+00  0.82760846911E+03  0.82760846911E+03  0.00000000000E+00 0. -1.
         -2   -1    0    0    0  501 -0.00000000000E+00 -0.00000000000E+00 -0.91293502570E+02  0.91293502570E+02  0.00000000000E+00 0.  1.
        -24    2    1    2    0    0  0.10274563673E+02  0.92024308502E+02 -0.33607091216E+00  0.12687702433E+03  0.86738839896E+02 0.  0.
         23    2    1    2    0    0  0.77331152280E+01 -0.14533197205E+03  0.70829601967E+03  0.72901708653E+03  0.92744152340E+02 0.  0.
         13    1    3    3    0    0 -0.17012631307E+02  0.38476669987E+02  0.37083044851E+02  0.56080620296E+02  0.00000000000E+00 0. -1.
        -14    1    3    3    0    0  0.27287194980E+02  0.53547638514E+02 -0.37419115763E+02  0.70796404039E+02  0.00000000000E+00 0.  1.
        -11    1    4    4    0    0  0.27934612031E+02 -0.10329860954E+02  0.66501790123E+02  0.72866567547E+02  0.00000000000E+00 0.  1.
         11    1    4    4    0    0 -0.20201496803E+02 -0.13500211109E+03  0.64179422955E+03  0.65615051898E+03  0.00000000000E+00 0. -1.
         21    1    1    2  502  501 -0.18007678901E+02  0.53307663546E+02  0.28355017784E+02  0.63007860824E+02  0.00000000000E+00 0.  1.
<scales pt_clust_5="13000.00000" pt_clust_6="13000.00000" pt_clust_7="13000.00000" pt_clust_8="13000.00000" pt_clust_9="56.26707"></scales>
<clustering>
<clus scale="   56.267">  2  9  1 -1</clus>
<clus scale="   86.739">  5  6 -1 -1</clus>
<clus scale="   92.744">  7  8 -1 -1</clus>
<clus scale="  162.965">  2  5  1 -1</clus>
<clus scale="  166.239">  1  5  2 -1</clus>
</clustering>
</event>
<event>
 9    1  0.6106093E-005  0.1026963E+03  0.7546771E-02  0.1279352E+00
          1   -1    0    0  502    0  0.00000000000E+00  0.00000000000E+00  0.17445707295E+03  0.17445707295E+03  0.00000000000E+00 0. -1.
         -2   -1    0    0    0  501 -0.00000000000E+00 -0.00000000000E+00 -0.79314888413E+02  0.79314888413E+02  0.00000000000E+00 0.  1.
        -24    2    1    2    0    0  0.33374211228E+02 -0.34809586976E+00  0.14513239418E+02  0.88282022245E+02  0.80430853454E+02 0.  0.
         23    2    1    2    0    0 -0.57950998271E+02  0.23047072237E+02  0.70506619931E+02  0.13053677822E+03  0.90438826149E+02 0.  0.
         13    1    3    3    0    0  0.11818694371E+02 -0.32048426792E+02 -0.17461645724E+02  0.38362641565E+02  0.00000000000E+00 0. -1.
        -14    1    3    3    0    0  0.21555516857E+02  0.31700330922E+02  0.31974885142E+02  0.49919380679E+02  0.00000000000E+00 0.  1.
        -11    1    4    4    0    0 -0.20213963793E+02  0.36246273612E+02 -0.81580728019E+01  0.42295990766E+02  0.00000000000E+00 0.  1.
         11    1    4    4    0    0 -0.37737034477E+02 -0.13199201375E+02  0.78664692733E+02  0.88240787456E+02  0.00000000000E+00 0. -1.
         21    1    1    2  502  501  0.24576787043E+02 -0.22698976368E+02  0.10122325190E+02  0.34953160898E+02  0.00000000000E+00 0.  1.
<scales pt_clust_5="13000.00000" pt_clust_6="13000.00000" pt_clust_7="13000.00000" pt_clust_8="13000.00000" pt_clust_9="33.45537"></scales>
<clustering>
<clus scale="   33.455">  2  9  1 -1</clus>
<clus scale="   80.431">  5  6 -1 -1</clus>
<clus scale="   90.439">  7  8 -1 -1</clus>
<clus scale="   94.003">  2  5  1 -1</clus>
<clus scale="  102.696">  1  5  2 -1</clus>
</clustering>
</event>
<event>
 9    1  0.6106093E-005  0.1217457E+03  0.7546771E-02  0.1243564E+00
          1   -1    0    0  502    0  0.00000000000E+00  0.00000000000E+00  0.10423232382E+03  0.10423232382E+03  0.00000000000E+00 0. -1.
         -2   -1    0    0    0  501 -0.00000000000E+00 -0.00000000000E+00 -0.23724666273E+03  0.23724666273E+03  0.00000000000E+00 0.  1.
         23    2    1    2    0    0 -0.64605832563E+02 -0.81625172400E+02 -0.10030019580E+03  0.17087010243E+03  0.91103678609E+02 0.  0.
        -24    2    1    2    0    0  0.30838758930E+02  0.66519079224E+02  0.15562300082E+02  0.10978927971E+03  0.80222713753E+02 0.  0.
         11    1    4    4    0    0  0.26486326906E+02 -0.11154751751E+02 -0.53471892967E+01  0.29232626173E+02  0.00000000000E+00 0. -1.
        -12    1    4    4    0    0  0.43524320241E+01  0.77673830975E+02  0.20909489378E+02  0.80556653536E+02  0.00000000000E+00 0.  1.
        -13    1    3    3    0    0  0.74487784883E+01 -0.57974203390E+02 -0.64382811484E+02  0.86957684964E+02  0.00000000000E+00 0.  1.
         13    1    3    3    0    0 -0.72054611051E+02 -0.23650969010E+02 -0.35917384319E+02  0.83912417467E+02  0.00000000000E+00 0. -1.
         21    1    1    2  502  501  0.33767073633E+02  0.15106093175E+02 -0.48276443193E+02  0.60819604406E+02  0.00000000000E+00 0. -1.
<scales pt_clust_5="13000.00000" pt_clust_6="13000.00000" pt_clust_7="13000.00000" pt_clust_8="13000.00000" pt_clust_9="36.99202"></scales>
<clustering>
<clus scale="   36.992">  2  9  1 -1</clus>
<clus scale="   80.223">  5  6 -1 -1</clus>
<clus scale="   91.104">  7  8 -1 -1</clus>
<clus scale="  113.832">  1  5  2 -1</clus>
<clus scale="  113.832">  1  5  2 -1</clus>
</clustering>
</event>
<event>
 9    1  0.6106093E-005  0.9287977E+02  0.7546771E-02  0.1303144E+00
          1   -1    0    0  502    0  0.00000000000E+00  0.00000000000E+00  0.24536906069E+03  0.24536906069E+03  0.00000000000E+00 0. -1.
         -2   -1    0    0    0  501 -0.00000000000E+00 -0.00000000000E+00 -0.54322852370E+02  0.54322852370E+02  0.00000000000E+00 0.  1.
        -24    2    1    2    0    0  0.11456246157E+02 -0.93542302799E+01  0.93406066321E+01  0.81656715331E+02  0.79761049556E+02 0.  0.
         23    2    1    2    0    0  0.75819716258E+01  0.18543421395E+02  0.16952864910E+03  0.19363902705E+03  0.91404404479E+02 0.  0.
         13    1    3    3    0    0 -0.25160309117E+02  0.16568111799E+01  0.29192201797E+02  0.38574224865E+02  0.00000000000E+00 0. -1.
        -14    1    3    3    0    0  0.36616555274E+02 -0.11011041460E+02 -0.19851595165E+02  0.43082490466E+02  0.00000000000E+00 0.  1.
        -13    1    4    4    0    0  0.16766240677E+02 -0.25944051470E+02  0.12937183293E+03  0.13300854028E+03  0.00000000000E+00 0.  1.
         13    1    4    4    0    0 -0.91842690515E+01  0.44487472865E+02  0.40156816177E+02  0.60630486766E+02  0.00000000000E+00 0. -1.
         21    1    1    2  502  501 -0.19038217783E+02 -0.91891911149E+01  0.12176952583E+02  0.24396170681E+02  0.00000000000E+00 0.  1.
<scales pt_clust_5="13000.00000" pt_clust_6="13000.00000" pt_clust_7="13000.00000" pt_clust_8="13000.00000" pt_clust_9="21.13989"></scales>
<clustering>
<clus scale="   21.140">  2  9  1 -1</clus>
<clus scale="   79.761">  5  6 -1 -1</clus>
<clus scale="   81.448">  2  5  1 -1</clus>
<clus scale="   91.404">  7  8 -1 -1</clus>
<clus scale="   92.880">  1  5  2 -1</clus>
</clustering>
</event>
<event>
 9    1  0.6106093E-005  0.1099110E+03  0.7546771E-02  0.1264514E+00
         -2   -1    0    0    0  501 -0.00000000000E+00  0.00000000000E+00  0.71806954620E+02  0.71806954620E+02  0.00000000000E+00 0.  1.
          1   -1    0    0  502    0  0.00000000000E+00 -0.00000000000E+00 -0.48225279731E+03  0.48225279731E+03  0.00000000000E+00 0. -1.
        -24    2    1    2    0    0 -0.67742795686E+02  0.28537477019E+02 -0.18994668950E+03  0.21933274784E+03  0.81385720252E+02 0.  0.
         23    2    1    2    0    0  0.45084564093E+02 -0.29335801359E+02 -0.26470930673E+03  0.28504229359E+03  0.91021343117E+02 0.  0.
         13    1    3    3    0    0 -0.66381987730E+02 -0.13124912121E+02 -0.12549814762E+03  0.14257845794E+03  0.00000000000E+00 0. -1.
        -14    1    3    3    0    0 -0.13608079559E+01  0.41662389140E+02 -0.64448541881E+02  0.76754289898E+02  0.00000000000E+00 0.  1.
        -11    1    4    4    0    0  0.20720358582E+02 -0.51333089486E+02 -0.23269947082E+03  0.23919335914E+03  0.00000000000E+00 0. -1.
         11    1    4    4    0    0  0.24364205512E+02  0.21997288127E+02 -0.32009835913E+02  0.45848934452E+02  0.00000000000E+00 0.  1.
         21    1    1    2  502  501  0.22658231593E+02  0.79832434035E+00  0.44210153547E+02  0.49684710498E+02  0.00000000000E+00 0.  1.
<scales pt_clust_5="13000.00000" pt_clust_6="13000.00000" pt_clust_7="13000.00000" pt_clust_8="13000.00000" pt_clust_9="22.67229"></scales>
<clustering>
<clus scale="   22.672">  1  9  2 -1</clus>
<clus scale="   81.386">  5  6 -1 -1</clus>
<clus scale="   91.021">  7  8 -1 -1</clus>
<clus scale="  102.074">  1  5  2 -1</clus>
<clus scale="  109.911">  2  5  1 -1</clus>
</clustering>
</event>
<event>
 9    1  0.6106093E-005  0.1055193E+03  0.7546771E-02  0.1272456E+00
          1   -1    0    0  502    0  0.00000000000E+00  0.00000000000E+00  0.15751985124E+03  0.15751985124E+03  0.00000000000E+00 0. -1.
         -2   -1    0    0    0  501 -0.00000000000E+00 -0.00000000000E+00 -0.15713385468E+03  0.15713385468E+03  0.00000000000E+00 0.  1.
        -24    2    1    2    0    0 -0.39180935841E+02 -0.28957173738E+02 -0.96015422857E+02  0.13527429408E+03  0.81893281583E+02 0.  0.
         23    2    1    2    0    0  0.29375106709E+02  0.49206120752E+02  0.10997974594E+03  0.15310118718E+03  0.89779116639E+02 0.  0.
         11    1    3    3    0    0  0.49905883322E+01 -0.38958324942E+02 -0.76429750512E+02  0.85931157431E+02  0.00000000000E+00 0. -1.
        -12    1    3    3    0    0 -0.44171524173E+02  0.10001151204E+02 -0.19585672345E+02  0.49343136649E+02  0.00000000000E+00 0.  1.
        -11    1    4    4    0    0  0.28280946882E+02 -0.19032598178E+02  0.58144181418E+02  0.67400278803E+02  0.00000000000E+00 0. -1.
         11    1    4    4    0    0  0.10941598266E+01  0.68238718930E+02  0.51835564522E+02  0.85700908375E+02  0.00000000000E+00 0.  1.
         21    1    1    2  502  501  0.98058291320E+01 -0.20248947014E+02 -0.13578326522E+02  0.26278224660E+02  0.00000000000E+00 0. -1.
<scales pt_clust_5="13000.00000" pt_clust_6="13000.00000" pt_clust_7="13000.00000" pt_clust_8="13000.00000" pt_clust_9="22.49831"></scales>
<clustering>
<clus scale="   22.498">  2  9  1 -1</clus>
<clus scale="   81.893">  5  6 -1 -1</clus>
<clus scale="   89.779">  7  8 -1 -1</clus>
<clus scale="   98.897">  2  5  1 -1</clus>
<clus scale="  105.519">  1  5  2 -1</clus>
</clustering>
</event>
<event>
 9    1  0.6106093E-005  0.4374016E+03  0.7546771E-02  0.1031870E+00
         -2   -1    0    0    0  501 -0.00000000000E+00  0.00000000000E+00  0.23173431559E+03  0.23173431559E+03  0.00000000000E+00 0.  1.
          1   -1    0    0  502    0  0.00000000000E+00 -0.00000000000E+00 -0.11169119179E+04  0.11169119179E+04  0.00000000000E+00 0. -1.
         23    2    1    2    0    0 -0.17039927434E+03  0.38474294978E+03 -0.12659065644E+03  0.45075590324E+03  0.10046213168E+03 0.  0.
        -24    2    1    2    0    0  0.20273641500E+03 -0.39010824901E+03 -0.71761265544E+03  0.84541777002E+03  0.80478461182E+02 0.  0.
         11    1    4    4    0    0  0.12214519420E+03 -0.25969770126E+03 -0.53388787716E+03  0.60613415172E+03  0.00000000000E+00 0. -1.
        -12    1    4    4    0    0  0.80591220795E+02 -0.13041054775E+03 -0.18372477828E+03  0.23928361830E+03  0.00000000000E+00 0.  1.
        -13    1    3    3    0    0 -0.31996738015E+02  0.19583850188E+03 -0.58170259872E+02  0.20678561167E+03  0.00000000000E+00 0.  1.
         13    1    3    3    0    0 -0.13840253632E+03  0.18890444790E+03 -0.68420396573E+02  0.24397029156E+03  0.00000000000E+00 0. -1.
         21    1    1    2  502  501 -0.32337140659E+02  0.53652992290E+01 -0.40974290470E+02  0.52472560271E+02  0.00000000000E+00 0. -1.
<scales pt_clust_5="13000.00000" pt_clust_6="13000.00000" pt_clust_7="13000.00000" pt_clust_8="13000.00000" pt_clust_9="32.77922"></scales>
<clustering>
<clus scale="   32.779">  2  9  1 -1</clus>
<clus scale="   80.478">  5  6 -1 -1</clus>
<clus scale="  100.462">  7  8 -1 -1</clus>
<clus scale="  433.249">  2  5  1 -1</clus>
<clus scale="   32.779">  2  5  1 -1</clus>
</clustering>
</event>
<event>
 9    1  0.6106093E-005  0.1181768E+03  0.7546771E-02  0.1255029E+00
         -2   -1    0    0    0  501 -0.00000000000E+00  0.00000000000E+00  0.33289816288E+03  0.33289816288E+03  0.00000000000E+00 0.  1.
          1   -1    0    0  502    0  0.00000000000E+00 -0.00000000000E+00 -0.24844777176E+03  0.24844777176E+03  0.00000000000E+00 0. -1.
         23    2    1    2    0    0  0.31935998028E+02  0.27428637891E+02  0.23364453942E+03  0.25524961556E+03  0.93756905333E+02 0.  0.
        -24    2    1    2    0    0 -0.66979108769E+02 -0.29828287459E+02 -0.22298796613E+03  0.24436930104E+03  0.67946997751E+02 0.  0.
         13    1    4    4    0    0 -0.51523611059E+02 -0.33229688653E+02 -0.21984623367E+03  0.22823510064E+03  0.00000000000E+00 0. -1.
        -14    1    4    4    0    0 -0.15455497710E+02  0.34014011944E+01 -0.31417324640E+01  0.16134200396E+02  0.00000000000E+00 0.  1.
        -11    1    3    3    0    0  0.43259589294E+01  0.59578998846E+02  0.15065683863E+03  0.16206743674E+03  0.00000000000E+00 0.  1.
         11    1    3    3    0    0  0.27610039099E+02 -0.32150360955E+02  0.82987700787E+02  0.93182178824E+02  0.00000000000E+00 0. -1.
         21    1    1    2  502  501  0.35043110741E+02  0.23996495676E+01  0.73793817833E+02  0.81727018046E+02  0.00000000000E+00 0.  1.
<scales pt_clust_5="13000.00000" pt_clust_6="13000.00000" pt_clust_7="13000.00000" pt_clust_8="13000.00000" pt_clust_9="35.12518"></scales>
<clustering>
<clus scale="   35.125">  1  9  2 -1</clus>
<clus scale="   67.947">  5  6 -1 -1</clus>
<clus scale="   93.757">  7  8 -1 -1</clus>
<clus scale="   98.956">  2  5  1 -1</clus>
<clus scale="   98.956">  2  5  1 -1</clus>
</clustering>
</event>
<event>
 9    1  0.6106093E-005  0.1497598E+03  0.7546771E-02  0.1203882E+00
         -2   -1    0    0    0  501 -0.00000000000E+00  0.00000000000E+00  0.41107816179E+02  0.41107816179E+02  0.00000000000E+00 0.  1.
          1   -1    0    0  502    0  0.00000000000E+00 -0.00000000000E+00 -0.11361734218E+04  0.11361734218E+04  0.00000000000E+00 0. -1.
         23    2    1    2    0    0 -0.34515271407E+02  0.13511666277E+03 -0.19414952471E+03  0.25753546386E+03  0.95826200402E+02 0.  0.
        -24    2    1    2    0    0  0.42973540385E+02 -0.10235444739E+03 -0.82992654263E+03  0.84110469314E+03  0.79723776822E+02 0.  0.
         11    1    4    4    0    0  0.56370794899E+02 -0.10157567531E+03 -0.62265647075E+03  0.63340063538E+03  0.00000000000E+00 0. -1.
        -12    1    4    4    0    0 -0.13397254515E+02 -0.77877208749E+00 -0.20727007188E+03  0.20770405777E+03  0.00000000000E+00 0.  1.
        -11    1    3    3    0    0 -0.62340890498E+02  0.10490319694E+03 -0.17193621325E+03  0.21083910639E+03  0.00000000000E+00 0.  1.
         11    1    3    3    0    0  0.27825619091E+02  0.30213465836E+02 -0.22213311461E+02  0.46696357477E+02  0.00000000000E+00 0. -1.
         21    1    1    2  502  501 -0.84582689776E+01 -0.32762215379E+02 -0.70989538249E+02  0.78641080940E+02  0.00000000000E+00 0. -1.
<scales pt_clust_5="13000.00000" pt_clust_6="13000.00000" pt_clust_7="13000.00000" pt_clust_8="13000.00000" pt_clust_9="33.83645"></scales>
<clustering>
<clus scale="   33.836">  1  9  2 -1</clus>
<clus scale="   79.724">  5  6 -1 -1</clus>
<clus scale="   95.826">  7  8 -1 -1</clus>
<clus scale="  140.004">  2  5  1 -1</clus>
<clus scale="  140.004">  2  5  1 -1</clus>
</clustering>
</event>
<event>
 9    1  0.6106093E-005  0.1313880E+03  0.7546771E-02  0.1228087E+00
         -2   -1    0    0    0  501 -0.00000000000E+00  0.00000000000E+00  0.40282537003E+03  0.40282537003E+03  0.00000000000E+00 0.  1.
          1   -1    0    0  502    0  0.00000000000E+00 -0.00000000000E+00 -0.65901282671E+02  0.65901282671E+02  0.00000000000E+00 0. -1.
        -24    2    1    2    0    0  0.43264572408E+02 -0.85452794983E+02  0.19473375670E+03  0.23110622377E+03  0.79466013310E+02 0.  0.
         23    2    1    2    0    0 -0.16251356177E+02  0.95433181629E+02  0.50654086687E+02  0.14166103164E+03  0.90168800881E+02 0.  0.
         11    1    3    3    0    0  0.50612501967E+02 -0.59924895884E+02  0.75223774725E+02  0.10867950490E+03  0.00000000000E+00 0. -1.
        -12    1    3    3    0    0 -0.73479295593E+01 -0.25527899099E+02  0.11950998197E+03  0.12242671887E+03  0.00000000000E+00 0.  1.
        -11    1    4    4    0    0  0.27796534645E+02  0.69603945271E+02  0.50898468470E+02  0.90598071878E+02  0.00000000000E+00 0. -1.
         11    1    4    4    0    0 -0.44047890822E+02  0.25829236358E+02 -0.24438178217E+00  0.51062959757E+02  0.00000000000E+00 0.  1.
         21    1    1    2  502  501 -0.27013216231E+02 -0.99803866459E+01  0.91536243975E+02  0.95959397298E+02  0.00000000000E+00 0.  1.
<scales pt_clust_5="13000.00000" pt_clust_6="13000.00000" pt_clust_7="13000.00000" pt_clust_8="13000.00000" pt_clust_9="28.79795"></scales>
<clustering>
<clus scale="   28.798">  1  9  2 -1</clus>
<clus scale="   79.466">  5  6 -1 -1</clus>
<clus scale="   90.169">  7  8 -1 -1</clus>
<clus scale="  124.287">  1  5  2 -1</clus>
<clus scale="  131.388">  2  5  1 -1</clus>
</clustering>
</event>
<event>
 9    1  0.6106093E-005  0.9943655E+02  0.7546771E-02  0.1281612E+00
          1   -1    0    0  502    0  0.00000000000E+00  0.00000000000E+00  0.28471397190E+03  0.28471397190E+03  0.00000000000E+00 0. -1.
         -2   -1    0    0    0  501 -0.00000000000E+00 -0.00000000000E+00 -0.54264498013E+02  0.54264498013E+02  0.00000000000E+00 0.  1.
        -24    2    1    2    0    0  0.12522701692E+02  0.24001422618E+02  0.56799076660E+02  0.10931407137E+03  0.89389846994E+02 0.  0.
         23    2    1    2    0    0  0.70402376490E+01 -0.54443818019E+02  0.15902931179E+03  0.19063589392E+03  0.89655048806E+02 0.  0.
         13    1    3    3    0    0  0.36354354145E+02 -0.21207947437E+02  0.22061077785E+02  0.47519546008E+02  0.00000000000E+00 0. -1.
        -14    1    3    3    0    0 -0.23831652453E+02  0.45209370055E+02  0.34737998876E+02  0.61794525367E+02  0.00000000000E+00 0.  1.
        -13    1    4    4    0    0 -0.30280764980E+02  0.84426071337E+01  0.57205576640E+02  0.65273887135E+02  0.00000000000E+00 0.  1.
         13    1    4    4    0    0  0.37321002629E+02 -0.62886425152E+02  0.10182373515E+03  0.12536200678E+03  0.00000000000E+00 0. -1.
         21    1    1    2  502  501 -0.19562939341E+02  0.30442395400E+02  0.14621085439E+02  0.39028504619E+02  0.00000000000E+00 0.  1.
<scales pt_clust_5="13000.00000" pt_clust_6="13000.00000" pt_clust_7="13000.00000" pt_clust_8="13000.00000" pt_clust_9="36.18630"></scales>
<clustering>
<clus scale="   36.186">  2  9  1 -1</clus>
<clus scale="   89.390">  5  6 -1 -1</clus>
<clus scale="   89.655">  7  8 -1 -1</clus>
<clus scale="   99.197">  2  5  1 -1</clus>
<clus scale="   99.437">  1  5  2 -1</clus>
</clustering>
</event>
<event>
 9    1  0.6106093E-005  0.9911942E+02  0.7546771E-02  0.1287662E+00
         -2   -1    0    0    0  501 -0.00000000000E+00  0.00000000000E+00  0.29971543739E+03  0.29971543739E+03  0.00000000000E+00 0.  1.
          1   -1    0    0  502    0  0.00000000000E+00 -0.00000000000E+00 -0.12691008044E+03  0.12691008044E+03  0.00000000000E+00 0. -1.
         23    2    1    2    0    0  0.51726824064E+02 -0.45860888389E+01  0.18439640323E+03  0.21199275474E+03  0.90786551881E+02 0.  0.
        -24    2    1    2    0    0 -0.37092617778E+02 -0.12143021211E+02 -0.93897616863E+02  0.12937788242E+03  0.79990991674E+02 0.  0.
         11    1    4    4    0    0 -0.17166639889E+02 -0.34613971433E+02 -0.91412098986E+02  0.99242089782E+02  0.00000000000E+00 0. -1.
        -12    1    4    4    0    0 -0.19925977889E+02  0.22470950222E+02 -0.24855178768E+01  0.30135792636E+02  0.00000000000E+00 0.  1.
        -11    1    3    3    0    0  0.11484575401E+02  0.41605645685E+02  0.70407108191E+02  0.82583812632E+02  0.00000000000E+00 0.  1.
         11    1    3    3    0    0  0.40242248663E+02 -0.46191734524E+02  0.11398929503E+03  0.12940894211E+03  0.00000000000E+00 0. -1.
         21    1    1    2  502  501 -0.14634206285E+02  0.16729110050E+02  0.82306570582E+02  0.85254880667E+02  0.00000000000E+00 0.  1.
<scales pt_clust_5="13000.00000" pt_clust_6="13000.00000" pt_clust_7="13000.00000" pt_clust_8="13000.00000" pt_clust_9="22.22663"></scales>
<clustering>
<clus scale="   22.227">  1  9  2 -1</clus>
<clus scale="   79.991">  5  6 -1 -1</clus>
<clus scale="   89.337">  2  5  1 -1</clus>
<clus scale="   90.787">  7  8 -1 -1</clus>
<clus scale="   89.337">  2  5  1 -1</clus>
</clustering>
</event>
<event>
 9    1  0.6106093E-005  0.1019236E+03  0.7546771E-02  0.1278083E+00
          1   -1    0    0  502    0  0.00000000000E+00  0.00000000000E+00  0.42317866329E+03  0.42317866329E+03  0.00000000000E+00 0. -1.
         -2   -1    0    0    0  501 -0.00000000000E+00 -0.00000000000E+00 -0.60757567141E+02  0.60757567141E+02  0.00000000000E+00 0.  1.
        -24    2    1    2    0    0 -0.82363420392E+01  0.76106777203E+02  0.24546375434E+02  0.11642492841E+03  0.84214966257E+02 0.  0.
         23    2    1    2    0    0  0.17856614712E+02 -0.43542785723E+02  0.30201717625E+03  0.31812783634E+03  0.88182269357E+02 0.  0.
         13    1    3    3    0    0 -0.17651602819E+02 -0.13708100672E+02  0.11644587040E+02  0.25200942709E+02  0.00000000000E+00 0. -1.
        -14    1    3    3    0    0  0.94152607796E+01  0.89814877875E+02  0.12901788393E+02  0.91223985700E+02  0.00000000000E+00 0.  1.
        -11    1    4    4    0    0  0.53272878725E+02 -0.19611347787E+02  0.18691340897E+03  0.19534386866E+03  0.00000000000E+00 0. -1.
         11    1    4    4    0    0 -0.35416264013E+02 -0.23931437936E+02  0.11510376727E+03  0.12278396768E+03  0.00000000000E+00 0.  1.
         21    1    1    2  502  501 -0.96202726726E+01 -0.32563991480E+02  0.35857544468E+02  0.49383465681E+02  0.00000000000E+00 0. -1.
<scales pt_clust_5="13000.00000" pt_clust_6="13000.00000" pt_clust_7="13000.00000" pt_clust_8="13000.00000" pt_clust_9="33.95531"></scales>
<clustering>
<clus scale="   33.955">  2  9  1 -1</clus>
<clus scale="   84.215">  5  6 -1 -1</clus>
<clus scale="   88.182">  7  8 -1 -1</clus>
<clus scale="   98.511">  2  5  1 -1</clus>
<clus scale="  101.924">  1  5  2 -1</clus>
</clustering>
</event>
<event>
 9    1  0.6106093E-005  0.9471679E+02  0.7546771E-02  0.1306878E+00
         -2   -1    0    0    0  501 -0.00000000000E+00  0.00000000000E+00  0.70003311203E+02  0.70003311203E+02  0.00000000000E+00 0.  1.
          1   -1    0    0  502    0  0.00000000000E+00 -0.00000000000E+00 -0.40945293767E+03  0.40945293767E+03  0.00000000000E+00 0. -1.
         23    2    1    2    0    0  0.21174253522E+01 -0.25758914678E+02 -0.28902948656E+02  0.98655765078E+02  0.90717001530E+02 0.  0.
        -24    2    1    2    0    0  0.23394764532E+02 -0.23137618890E+02 -0.31675562963E+03  0.32530008821E+03  0.66357773271E+02 0.  0.
         11    1    4    4    0    0  0.15493400034E+02 -0.45539578702E+02 -0.17164363087E+03  0.17825665399E+03  0.00000000000E+00 0. -1.
        -12    1    4    4    0    0  0.79013644978E+01  0.22401959812E+02 -0.14511199875E+03  0.14704343422E+03  0.00000000000E+00 0.  1.
        -13    1    3    3    0    0 -0.16962007223E+02  0.18382236172E+02  0.18516273495E+02  0.31120229431E+02  0.00000000000E+00 0.  1.
         13    1    3    3    0    0  0.19079432575E+02 -0.44141150850E+02 -0.47419222151E+02  0.67535535647E+02  0.00000000000E+00 0. -1.
         21    1    1    2  502  501 -0.25512189884E+02  0.48896533568E+02  0.62089518154E+01  0.55500395587E+02  0.00000000000E+00 0.  1.
<scales pt_clust_5="13000.00000" pt_clust_6="13000.00000" pt_clust_7="13000.00000" pt_clust_8="13000.00000" pt_clust_9="55.15200"></scales>
<clustering>
<clus scale="   55.152">  1  9  2 -1</clus>
<clus scale="   66.358">  5  6 -1 -1</clus>
<clus scale="   71.729">  2  5  1 -1</clus>
<clus scale="   90.717">  7  8 -1 -1</clus>
<clus scale="   71.729">  2  5  1 -1</clus>
</clustering>
</event>
<event>
 9    1  0.6106093E-005  0.9674997E+02  0.7546771E-02  0.1292799E+00
          1   -1    0    0  502    0  0.00000000000E+00  0.00000000000E+00  0.63241775422E+02  0.63241775422E+02  0.00000000000E+00 0. -1.
         -2   -1    0    0    0  501 -0.00000000000E+00 -0.00000000000E+00 -0.46130411613E+03  0.46130411613E+03  0.00000000000E+00 0.  1.
         23    2    1    2    0    0  0.14916998165E+02 -0.29273173475E+02 -0.21754450501E+03  0.23785903305E+03  0.90398409427E+02 0.  0.
        -24    2    1    2    0    0 -0.37185770886E+02 -0.12600149812E+02  0.10501256571E+02  0.89868243895E+02  0.80152851101E+02 0.  0.
         11    1    4    4    0    0 -0.34384403865E+02 -0.25127589654E+02  0.39543719820E+02  0.58115305799E+02  0.00000000000E+00 0. -1.
        -12    1    4    4    0    0 -0.28013670206E+01  0.12527439842E+02 -0.29042463248E+02  0.31752938096E+02  0.00000000000E+00 0.  1.
        -13    1    3    3    0    0  0.50942166483E+02 -0.24413477868E+02 -0.10036508623E+03  0.11517062456E+03  0.00000000000E+00 0.  1.
         13    1    3    3    0    0 -0.36025168319E+02 -0.48596956062E+01 -0.11717941877E+03  0.12268840849E+03  0.00000000000E+00 0. -1.
         21    1    1    2  502  501  0.22268772721E+02  0.41873323287E+02 -0.19101909227E+03  0.19681861460E+03  0.00000000000E+00 0.  1.
<scales pt_clust_5="13000.00000" pt_clust_6="13000.00000" pt_clust_7="13000.00000" pt_clust_8="13000.00000" pt_clust_9="47.42651"></scales>
<clustering>
<clus scale="   47.427">  2  9  1 -1</clus>
<clus scale="   80.153">  5  6 -1 -1</clus>
<clus scale="   87.253">  1  5  2 -1</clus>
<clus scale="   90.398">  7  8 -1 -1</clus>
<clus scale="   87.253">  1  5  2 -1</clus>
</clustering>
</event>
<event>
 9    1  0.6106093E-005  0.1284593E+03  0.7546771E-02  0.1244709E+00
          1   -1    0    0  502    0  0.00000000000E+00  0.00000000000E+00  0.36170765055E+03  0.36170765055E+03  0.00000000000E+00 0. -1.
         -2   -1    0    0    0  501 -0.00000000000E+00 -0.00000000000E+00 -0.15184512469E+03  0.15184512469E+03  0.00000000000E+00 0.  1.
        -24    2    1    2    0    0 -0.48593000643E+02  0.95410432435E+02  0.89933025992E+02  0.16118203963E+03  0.80170258861E+02 0.  0.
         23    2    1    2    0    0 -0.11292386927E+02 -0.16098926603E+02  0.20225323911E+03  0.22332123874E+03  0.92624562097E+02 0.  0.
         11    1    3    3    0    0  0.19814636447E+02  0.14127223966E+02  0.31913544575E+02  0.40133185793E+02  0.00000000000E+00 0. -1.
        -12    1    3    3    0    0 -0.68407637089E+02  0.81283208469E+02  0.58019481416E+02  0.12104885384E+03  0.00000000000E+00 0.  1.
        -11    1    4    4    0    0 -0.54170969180E+01  0.20720329936E+02  0.42452749304E+01  0.21833446153E+02  0.00000000000E+00 0.  1.
         11    1    4    4    0    0 -0.58752900087E+01 -0.36819256539E+02  0.19800796418E+03  0.20148779259E+03  0.00000000000E+00 0. -1.
         21    1    1    2  502  501  0.59885387569E+02 -0.79311505832E+02 -0.82323739239E+02  0.12904949688E+03  0.00000000000E+00 0. -1.
<scales pt_clust_5="13000.00000" pt_clust_6="13000.00000" pt_clust_7="13000.00000" pt_clust_8="13000.00000" pt_clust_9="100.37197"></scales>
<clustering>
<clus scale="   80.170">  5  6 -1 -1</clus>
<clus scale="   92.625">  7  8 -1 -1</clus>
<clus scale="   94.689">  1  7  2 -1</clus>
<clus scale="  100.372">  2  9  1 -1</clus>
<clus scale="   94.689">  1  5  2 -1</clus>
</clustering>
</event>
<event>
 9    1  0.6106093E-005  0.3787427E+03  0.7546771E-02  0.1051598E+00
         -2   -1    0    0    0  501 -0.00000000000E+00  0.00000000000E+00  0.12304465358E+03  0.12304465358E+03  0.00000000000E+00 0.  1.
          1   -1    0    0  502    0  0.00000000000E+00 -0.00000000000E+00 -0.18891016897E+04  0.18891016897E+04  0.00000000000E+00 0. -1.
        -24    2    1    2    0    0  0.35776822485E+03 -0.10434193515E+03 -0.55832517741E+03  0.67616085644E+03  0.81124336107E+02 0.  0.
         23    2    1    2    0    0 -0.34406471644E+03  0.12379647118E+03 -0.12399635787E+04  0.12959211775E+04  0.90531356131E+02 0.  0.
         13    1    3    3    0    0  0.70904501970E+02 -0.17124849859E+02 -0.17432901209E+03  0.18897437217E+03  0.00000000000E+00 0. -1.
        -14    1    3    3    0    0  0.28686372288E+03 -0.87217085293E+02 -0.38399616532E+03  0.48718648426E+03  0.00000000000E+00 0.  1.
        -11    1    4    4    0    0 -0.26857808751E+03  0.13421709864E+03 -0.10074170706E+04  0.10512076734E+04  0.00000000000E+00 0. -1.
         11    1    4    4    0    0 -0.75486628925E+02 -0.10420627453E+02 -0.23254650816E+03  0.24471350408E+03  0.00000000000E+00 0.  1.
         21    1    1    2  502  501 -0.13703508408E+02 -0.19454536031E+02  0.32231719947E+02  0.40064309374E+02  0.00000000000E+00 0. -1.
<scales pt_clust_5="13000.00000" pt_clust_6="13000.00000" pt_clust_7="13000.00000" pt_clust_8="13000.00000" pt_clust_9="23.79633"></scales>
<clustering>
<clus scale="   23.796">  1  9  2 -1</clus>
<clus scale="   81.124">  5  6 -1 -1</clus>
<clus scale="   90.531">  7  8 -1 -1</clus>
<clus scale="  376.605">  1  5  2 -1</clus>
<clus scale="  378.743">  2  5  1 -1</clus>
</clustering>
</event>
<event>
 9    1  0.6106093E-005  0.1674790E+03  0.7546771E-02  0.1211711E+00
         -2   -1    0    0    0  501 -0.00000000000E+00  0.00000000000E+00  0.57569902605E+03  0.57569902605E+03  0.00000000000E+00 0.  1.
          1   -1    0    0  502    0  0.00000000000E+00 -0.00000000000E+00 -0.17195752961E+03  0.17195752961E+03  0.00000000000E+00 0. -1.
        -24    2    1    2    0    0  0.19324287510E+02  0.50666600671E+01  0.24083678241E+03  0.25527632370E+03  0.82246863475E+02 0.  0.
         23    2    1    2    0    0 -0.14125390980E+03 -0.33204503508E+02 -0.10283407474E+03  0.19865302029E+03  0.88504064624E+02 0.  0.
         11    1    3    3    0    0 -0.23946527695E+02  0.19279011169E+02  0.15586619237E+03  0.15886908568E+03  0.00000000000E+00 0. -1.
        -12    1    3    3    0    0  0.43270815206E+02 -0.14212351102E+02  0.84970590034E+02  0.96407238023E+02  0.00000000000E+00 0.  1.
        -11    1    4    4    0    0 -0.13030171291E+03 -0.12429173157E+02 -0.11313273335E+03  0.17300877459E+03  0.00000000000E+00 0. -1.
         11    1    4    4    0    0 -0.10952196894E+02 -0.20775330351E+02  0.10298658611E+02  0.25644245693E+02  0.00000000000E+00 0.  1.
         21    1    1    2  502  501  0.12192962229E+03  0.28137843441E+02  0.26573878876E+03  0.29372721167E+03  0.00000000000E+00 0.  1.
<scales pt_clust_5="13000.00000" pt_clust_6="13000.00000" pt_clust_7="13000.00000" pt_clust_8="13000.00000" pt_clust_9="142.18389"></scales>
<clustering>
<clus scale="   82.247">  5  6 -1 -1</clus>
<clus scale="   84.638">  1  5  2 -1</clus>
<clus scale="   88.504">  7  8 -1 -1</clus>
<clus scale="  142.184">  1  9  2 -1</clus>
<clus scale="  167.479">  2  5  1 -1</clus>
</clustering>
</event>
<event>
 9    1  0.6106093E-005  0.1383758E+03  0.7546771E-02  0.1218479E+00
         -4   -1    0    0    0  501 -0.00000000000E+00  0.00000000000E+00  0.11405187720E+03  0.11405187720E+03  0.00000000000E+00 0.  1.
          3   -1    0    0  502    0  0.00000000000E+00 -0.00000000000E+00 -0.52420825866E+03  0.52420825866E+03  0.00000000000E+00 0. -1.
        -24    2    1    2    0    0  0.21443564289E+02 -0.15905273486E+03 -0.23330717321E+03  0.29416023055E+03  0.79626661657E+02 0.  0.
         23    2    1    2    0    0 -0.12123139164E+02  0.73196774150E+02 -0.21817180123E+03  0.24836238391E+03  0.92629372435E+02 0.  0.
         13    1    3    3    0    0  0.40140878637E+02 -0.62957672817E+02 -0.62875165065E+02  0.97612730144E+02  0.00000000000E+00 0. -1.
        -14    1    3    3    0    0 -0.18697314348E+02 -0.96095062047E+02 -0.17043200815E+03  0.19654750040E+03  0.00000000000E+00 0.  1.
        -13    1    4    4    0    0  0.21420810551E+02  0.38196269700E+02 -0.18377358774E+03  0.18891939470E+03  0.00000000000E+00 0. -1.
         13    1    4    4    0    0 -0.33543949715E+02  0.35000504450E+02 -0.34398213494E+02  0.59442989207E+02  0.00000000000E+00 0.  1.
         21    1    1    2  502  501 -0.93204251249E+01  0.85855960715E+02  0.41322592977E+02  0.95737521407E+02  0.00000000000E+00 0.  1.
<scales pt_clust_5="13000.00000" pt_clust_6="13000.00000" pt_clust_7="13000.00000" pt_clust_8="13000.00000" pt_clust_9="86.36039"></scales>
<clustering>
<clus scale="   79.627">  5  6 -1 -1</clus>
<clus scale="   86.360">  1  9  2 -1</clus>
<clus scale="   92.629">  7  8 -1 -1</clus>
<clus scale="  130.031">  1  5  2 -1</clus>
<clus scale="  138.376">  2  5  1 -1</clus>
</clustering>
</event>
<event>
 9    1  0.6106093E-005  0.1546025E+03  0.7546771E-02  0.1197137E+00
          1   -1    0    0  502    0  0.00000000000E+00  0.00000000000E+00  0.54194516749E+03  0.54194516749E+03  0.00000000000E+00 0. -1.
         -2   -1    0    0    0  501 -0.00000000000E+00 -0.00000000000E+00 -0.10189007470E+03  0.10189007470E+03  0.00000000000E+00 0.  1.
        -24    2    1    2    0    0  0.27698046451E+02  0.12912680419E+03 -0.52337200586E+01  0.15428002299E+03  0.79586558737E+02 0.  0.
         23    2    1    2    0    0 -0.48324087913E+02 -0.11307598789E+03  0.43513351672E+03  0.46151609778E+03  0.92382545070E+02 0.  0.
         13    1    3    3    0    0  0.21370146457E+02  0.65174328661E+01  0.18773514509E+02  0.29182270950E+02  0.00000000000E+00 0. -1.
        -14    1    3    3    0    0  0.63278999937E+01  0.12260937132E+03 -0.24007234567E+02  0.12509775204E+03  0.00000000000E+00 0.  1.
        -13    1    4    4    0    0 -0.66425247838E+02 -0.71429403968E+02  0.20600393387E+03  0.22793002012E+03  0.00000000000E+00 0. -1.
         13    1    4    4    0    0  0.18101159925E+02 -0.41646583917E+02  0.22912958285E+03  0.23358607767E+03  0.00000000000E+00 0.  1.
         21    1    1    2  502  501  0.20626041462E+02 -0.16050816303E+02  0.10155296133E+02  0.28039121419E+02  0.00000000000E+00 0. -1.
<scales pt_clust_5="13000.00000" pt_clust_6="13000.00000" pt_clust_7="13000.00000" pt_clust_8="13000.00000" pt_clust_9="26.13546"></scales>
<clustering>
<clus scale="   26.135">  2  9  1 -1</clus>
<clus scale="   79.587">  5  6 -1 -1</clus>
<clus scale="   92.383">  7  8 -1 -1</clus>
<clus scale="  147.314">  2  5  1 -1</clus>
<clus scale="  154.603">  1  5  2 -1</clus>
</clustering>
</event>
<event>
 9    1  0.6106093E-005  0.2900367E+03  0.7546771E-02  0.1090429E+00
         -2   -1    0    0    0  501 -0.00000000000E+00  0.00000000000E+00  0.38408893117E+03  0.38408893117E+03  0.00000000000E+00 0.  1.
          1   -1    0    0  502    0  0.00000000000E+00 -0.00000000000E+00 -0.42004635043E+03  0.42004635043E+03  0.00000000000E+00 0. -1.
        -24    2    1    2    0    0  0.11665340927E+03  0.27784887476E+03  0.20338747597E+03  0.37217572976E+03  0.79625958958E+02 0.  0.
         23    2    1    2    0    0 -0.11862822407E+03 -0.24606614456E+03 -0.26627144492E+03  0.39025726279E+03  0.82334960620E+02 0.  0.
         11    1    3    3    0    0  0.87976871224E+02  0.11327962252E+03  0.77703196646E+02  0.16312568626E+03  0.00000000000E+00 0. -1.
        -12    1    3    3    0    0  0.28676538041E+02  0.16456925224E+03  0.12568427932E+03  0.20905004350E+03  0.00000000000E+00 0.  1.
        -11    1    4    4    0    0 -0.60912756071E+02 -0.84737563858E+02 -0.15173630098E+03  0.18415950590E+03  0.00000000000E+00 0. -1.
         11    1    4    4    0    0 -0.57715467996E+02 -0.16132858070E+03 -0.11453514394E+03  0.20609775689E+03  0.00000000000E+00 0.  1.
         21    1    1    2  502  501  0.19748148017E+01 -0.31782730210E+02  0.26926549687E+02  0.41702289039E+02  0.00000000000E+00 0. -1.
<scales pt_clust_5="13000.00000" pt_clust_6="13000.00000" pt_clust_7="13000.00000" pt_clust_8="13000.00000" pt_clust_9="31.84402"></scales>
<clustering>
<clus scale="   31.844">  1  9  2 -1</clus>
<clus scale="   79.626">  5  6 -1 -1</clus>
<clus scale="   82.335">  7  8 -1 -1</clus>
<clus scale="  289.279">  1  5  2 -1</clus>
<clus scale="  290.037">  2  5  1 -1</clus>
</clustering>
</event>
<event>
 9    1  0.6106093E-005  0.9597184E+02  0.7546771E-02  0.1292268E+00
          3   -1    0    0  502    0  0.00000000000E+00  0.00000000000E+00  0.20912484639E+03  0.20912484639E+03  0.00000000000E+00 0. -1.
         -4   -1    0    0    0  501 -0.00000000000E+00 -0.00000000000E+00 -0.61963515832E+02  0.61963515832E+02  0.00000000000E+00 0.  1.
         23    2    1    2    0    0 -0.38860453271E+02 -0.56574133347E+01  0.25173792325E+02  0.98790266081E+02  0.87084187418E+02 0.  0.
        -24    2    1    2    0    0  0.39097452746E+02 -0.16893203877E+02  0.11830765016E+03  0.14944797401E+03  0.80771317320E+02 0.  0.
         11    1    4    4    0    0  0.10628905551E+02  0.19444184849E+02  0.95353501810E+02  0.97894536441E+02  0.00000000000E+00 0. -1.
        -12    1    4    4    0    0  0.28468547195E+02 -0.36337388726E+02  0.22954148346E+02  0.51553437568E+02  0.00000000000E+00 0.  1.
        -11    1    3    3    0    0 -0.18380512899E+01  0.20447195331E+02 -0.24232512680E+02  0.31759737094E+02  0.00000000000E+00 0.  1.
         11    1    3    3    0    0 -0.37022401981E+02 -0.26104608666E+02  0.49406305005E+02  0.67030528987E+02  0.00000000000E+00 0. -1.
         21    1    1    2  502  501 -0.23699947456E+00  0.22550617211E+02  0.36798880820E+01  0.22850122137E+02  0.00000000000E+00 0. -1.
<scales pt_clust_5="13000.00000" pt_clust_6="13000.00000" pt_clust_7="13000.00000" pt_clust_8="13000.00000" pt_clust_9="22.55186"></scales>
<clustering>
<clus scale="   22.552">  2  9  1 -1</clus>
<clus scale="   80.771">  5  6 -1 -1</clus>
<clus scale="   87.084">  7  8 -1 -1</clus>
<clus scale="   90.283">  1  5  2 -1</clus>
<clus scale="   90.283">  1  5  2 -1</clus>
</clustering>
</event>
<event>
 9    1  0.6106093E-005  0.9599291E+02  0.7546771E-02  0.1295701E+00
          1   -1    0    0  502    0  0.00000000000E+00  0.00000000000E+00  0.67447506892E+02  0.67447506892E+02  0.00000000000E+00 0. -1.
         -2   -1    0    0    0  501 -0.00000000000E+00 -0.00000000000E+00 -0.29177410779E+03  0.29177410779E+03  0.00000000000E+00 0.  1.
        -24    2    1    2    0    0  0.28531021973E+02  0.30621463547E+02 -0.11508087207E+03  0.14569649434E+03  0.78944082121E+02 0.  0.
         23    2    1    2    0    0 -0.31261747433E+02  0.11061846683E+02 -0.32094815518E+00  0.96865088377E+02  0.91011433534E+02 0.  0.
         13    1    3    3    0    0  0.72786236963E+01  0.27698671110E+02 -0.59408977692E-02  0.28639042922E+02  0.00000000000E+00 0. -1.
        -14    1    3    3    0    0  0.21252398277E+02  0.29227924363E+01 -0.11507493117E+03  0.11705745142E+03  0.00000000000E+00 0.  1.
        -13    1    4    4    0    0 -0.32381113165E+02  0.37140944635E+02 -0.29725066482E+02  0.57546206092E+02  0.00000000000E+00 0.  1.
         13    1    4    4    0    0  0.11193657318E+01 -0.26079097951E+02  0.29404118327E+02  0.39318882285E+02  0.00000000000E+00 0. -1.
         21    1    1    2  502  501  0.27307254599E+01 -0.41683310230E+02 -0.10892478068E+03  0.11666003197E+03  0.00000000000E+00 0. -1.
<scales pt_clust_5="13000.00000" pt_clust_6="13000.00000" pt_clust_7="13000.00000" pt_clust_8="13000.00000" pt_clust_9="41.77266"></scales>
<clustering>
<clus scale="   41.773">  2  9  1 -1</clus>
<clus scale="   78.944">  5  6 -1 -1</clus>
<clus scale="   84.639">  2  5  1 -1</clus>
<clus scale="   91.011">  7  8 -1 -1</clus>
<clus scale="   95.993">  1  5  2 -1</clus>
</clustering>
</event>
<event>
 9    1  0.6106093E-005  0.2665109E+03  0.7546771E-02  0.1117750E+00
         -2   -1    0    0    0  501 -0.00000000000E+00  0.00000000000E+00  0.41795298432E+03  0.41795298432E+03  0.00000000000E+00 0.  1.
          1   -1    0    0  502    0  0.00000000000E+00 -0.00000000000E+00 -0.10558713145E+04  0.10558713145E+04  0.00000000000E+00 0. -1.
         23    2    1    2    0    0 -0.22406944997E+03 -0.86999491353E+02  0.28488286074E+03  0.38346867117E+03  0.90077452891E+02 0.  0.
        -24    2    1    2    0    0 -0.10405495005E+03 -0.12933503794E+03 -0.35073565320E+03  0.39629134397E+03  0.80475749185E+02 0.  0.
         11    1    4    4    0    0  0.10297825757E+02 -0.31111547581E+02 -0.48295220398E+02  0.58364389156E+02  0.00000000000E+00 0. -1.
        -12    1    4    4    0    0 -0.11435277581E+03 -0.98223490363E+02 -0.30244043280E+03  0.33792695481E+03  0.00000000000E+00 0.  1.
        -13    1    3    3    0    0 -0.21812695415E+03 -0.56102719760E+02  0.25032859920E+03  0.33673623338E+03  0.00000000000E+00 0.  1.
         13    1    3    3    0    0 -0.59424958193E+01 -0.30896771593E+02  0.34554261536E+02  0.46732437789E+02  0.00000000000E+00 0. -1.
         21    1    1    2  502  501  0.32812440002E+03  0.21633452930E+03 -0.57206553776E+03  0.69406428373E+03  0.00000000000E+00 0. -1.
<scales pt_clust_5="13000.00000" pt_clust_6="13000.00000" pt_clust_7="13000.00000" pt_clust_8="13000.00000" pt_clust_9="250.82682"></scales>
<clustering>
<clus scale="   80.476">  5  6 -1 -1</clus>
<clus scale="   90.077">  7  8 -1 -1</clus>
<clus scale="  184.476">  2  5  1 -1</clus>
<clus scale="  250.827">  2  9  1 -1</clus>
<clus scale="  184.476">  2  5  1 -1</clus>
</clustering>
</event>
<event>
 9    1  0.6106093E-005  0.1265679E+03  0.7546771E-02  0.1236635E+00
         -2   -1    0    0    0  501 -0.00000000000E+00  0.00000000000E+00  0.40869110550E+02  0.40869110550E+02  0.00000000000E+00 0.  1.
          1   -1    0    0  502    0  0.00000000000E+00 -0.00000000000E+00 -0.54344940907E+03  0.54344940907E+03  0.00000000000E+00 0. -1.
        -24    2    1    2    0    0  0.98489960906E+02 -0.74520255774E+01 -0.12591674563E+03  0.17698469202E+03  0.75582731462E+02 0.  0.
         23    2    1    2    0    0 -0.84669401566E+02 -0.95087624584E+01 -0.35690626747E+03  0.37785457187E+03  0.90181315127E+02 0.  0.
         11    1    3    3    0    0  0.60304511308E+02 -0.15098247579E+02 -0.12314019535E+03  0.13794237519E+03  0.00000000000E+00 0. -1.
        -12    1    3    3    0    0  0.38185449598E+02  0.76462220020E+01 -0.27765502865E+01  0.39042316829E+02  0.00000000000E+00 0.  1.
        -13    1    4    4    0    0  0.11646018421E+02 -0.23966164912E+02 -0.73651153743E+02  0.78323044204E+02  0.00000000000E+00 0.  1.
         13    1    4    4    0    0 -0.96315419988E+02  0.14457402454E+02 -0.28325511372E+03  0.29953152766E+03  0.00000000000E+00 0. -1.
         21    1    1    2  502  501 -0.13820559340E+02  0.16960788036E+02 -0.19757285419E+02  0.29479255730E+02  0.00000000000E+00 0. -1.
<scales pt_clust_5="13000.00000" pt_clust_6="13000.00000" pt_clust_7="13000.00000" pt_clust_8="13000.00000" pt_clust_9="21.87867"></scales>
<clustering>
<clus scale="   21.879">  1  9  2 -1</clus>
<clus scale="   75.583">  5  6 -1 -1</clus>
<clus scale="   90.181">  7  8 -1 -1</clus>
<clus scale="  116.617">  1  5  2 -1</clus>
<clus scale="  126.568">  2  5  1 -1</clus>
</clustering>
</event>
<event>
 9    1  0.6106093E-005  0.1205500E+03  0.7546771E-02  0.1245393E+00
          1   -1    0    0  502    0  0.00000000000E+00  0.00000000000E+00  0.66207171228E+03  0.66207171228E+03  0.00000000000E+00 0. -1.
         -2   -1    0    0    0  501 -0.00000000000E+00 -0.00000000000E+00 -0.52333956487E+02  0.52333956487E+02  0.00000000000E+00 0.  1.
        -24    2    1    2    0    0  0.10282416813E+02 -0.97104772048E+02  0.13877050434E+03  0.18787282083E+03  0.80646630953E+02 0.  0.
         23    2    1    2    0    0 -0.16109827188E+02  0.72255408039E+02  0.48391391779E+03  0.49791352278E+03  0.90911087363E+02 0.  0.
         11    1    3    3    0    0 -0.77954056917E+01 -0.21659052872E+02  0.97134840402E+02  0.99825147840E+02  0.00000000000E+00 0. -1.
        -12    1    3    3    0    0  0.18077822504E+02 -0.75445719176E+02  0.41635663936E+02  0.88047672995E+02  0.00000000000E+00 0.  1.
        -11    1    4    4    0    0 -0.50928580086E+02  0.55822573030E+02  0.26178385979E+03  0.27247140983E+03  0.00000000000E+00 0.  1.
         11    1    4    4    0    0  0.34818752898E+02  0.16432835009E+02  0.22213005800E+03  0.22544211294E+03  0.00000000000E+00 0. -1.
         21    1    1    2  502  501  0.58274103753E+01  0.24849364009E+02 -0.12946666337E+02  0.28619325159E+02  0.00000000000E+00 0.  1.
<scales pt_clust_5="13000.00000" pt_clust_6="13000.00000" pt_clust_7="13000.00000" pt_clust_8="13000.00000" pt_clust_9="25.52351"></scales>
<clustering>
<clus scale="   25.524">  2  9  1 -1</clus>
<clus scale="   80.647">  5  6 -1 -1</clus>
<clus scale="   90.911">  7  8 -1 -1</clus>
<clus scale="  113.010">  2  5  1 -1</clus>
<clus scale="  120.550">  1  5  2 -1</clus>
</clustering>
</event>
<event>
 9    1  0.6106093E-005  0.1793152E+03  0.7546771E-02  0.1170101E+00
          1   -1    0    0  502    0  0.00000000000E+00  0.00000000000E+00  0.59413233309E+03  0.59413233309E+03  0.00000000000E+00 0. -1.
         -2   -1    0    0    0  501 -0.00000000000E+00 -0.00000000000E+00 -0.70451466639E+02  0.70451466639E+02  0.00000000000E+00 0.  1.
        -24    2    1    2    0    0 -0.75664238173E+02 -0.14070684310E+03  0.26191191073E+03  0.31673310792E+03  0.78730680420E+02 0.  0.
         23    2    1    2    0    0  0.55383425334E+02  0.13788350471E+03  0.27320179295E+03  0.32439877555E+03  0.92283049538E+02 0.  0.
         11    1    3    3    0    0 -0.34066569816E+02 -0.96950221349E+02  0.22123087739E+03  0.24393232198E+03  0.00000000000E+00 0. -1.
        -12    1    3    3    0    0 -0.41597668357E+02 -0.43756621747E+02  0.40681033343E+02  0.72800785939E+02  0.00000000000E+00 0.  1.
        -11    1    4    4    0    0  0.62238783039E+02  0.55218424068E+02  0.86093024935E+02  0.11972781387E+03  0.00000000000E+00 0.  1.
         11    1    4    4    0    0 -0.68553577057E+01  0.82665080643E+02  0.18710876802E+03  0.20467096168E+03  0.00000000000E+00 0. -1.
         21    1    1    2  502  501  0.20280812839E+02  0.28233383855E+01 -0.11432837232E+02  0.23451916259E+02  0.00000000000E+00 0.  1.
<scales pt_clust_5="13000.00000" pt_clust_6="13000.00000" pt_clust_7="13000.00000" pt_clust_8="13000.00000" pt_clust_9="20.47639"></scales>
<clustering>
<clus scale="   20.476">  2  9  1 -1</clus>
<clus scale="   78.731">  5  6 -1 -1</clus>
<clus scale="   92.283">  7  8 -1 -1</clus>
<clus scale="  172.732">  2  5  1 -1</clus>
<clus scale="  179.315">  1  5  2 -1</clus>
</clustering>
</event>
<event>
 9    1  0.6106093E-005  0.1045257E+03  0.7546771E-02  0.1272703E+00
         -2   -1    0    0    0  501 -0.00000000000E+00  0.00000000000E+00  0.14539280827E+03  0.14539280827E+03  0.00000000000E+00 0.  1.
          1   -1    0    0  502    0  0.00000000000E+00 -0.00000000000E+00 -0.23681404296E+03  0.23681404296E+03  0.00000000000E+00 0. -1.
        -24    2    1    2    0    0 -0.70636102735E+02  0.66198555931E+01  0.24136993127E+02  0.10935604111E+03  0.79642123224E+02 0.  0.
         23    2    1    2    0    0 -0.26432965528E+00  0.65675801114E+02 -0.12858607174E+03  0.17075645176E+03  0.91159241178E+02 0.  0.
         13    1    3    3    0    0 -0.31005079328E+02  0.42302291925E+02  0.18991383633E+02  0.55780565598E+02  0.00000000000E+00 0. -1.
        -14    1    3    3    0    0 -0.39631023407E+02 -0.35682436331E+02  0.51456094933E+01  0.53575475508E+02  0.00000000000E+00 0.  1.
        -11    1    4    4    0    0  0.31485443180E+02  0.67462387846E+02 -0.11305619723E+03  0.13536694810E+03  0.00000000000E+00 0.  1.
         11    1    4    4    0    0 -0.31749772836E+02 -0.17865867322E+01 -0.15529874507E+02  0.35389503662E+02  0.00000000000E+00 0. -1.
         21    1    1    2  502  501  0.70900432390E+02 -0.72295656707E+02  0.13027843917E+02  0.10209435836E+03  0.00000000000E+00 0.  1.
<scales pt_clust_5="13000.00000" pt_clust_6="13000.00000" pt_clust_7="13000.00000" pt_clust_8="13000.00000" pt_clust_9="101.25973"></scales>
<clustering>
<clus scale="   79.642">  5  6 -1 -1</clus>
<clus scale="   91.159">  7  8 -1 -1</clus>
<clus scale="  101.260">  1  9  2 -1</clus>
<clus scale="  101.260">  1  5  2 -1</clus>
<clus scale="  104.526">  2  5  1 -1</clus>
</clustering>
</event>
<event>
 9    1  0.6106093E-005  0.1172214E+03  0.7546771E-02  0.1250785E+00
          1   -1    0    0  502    0  0.00000000000E+00  0.00000000000E+00  0.24100477791E+03  0.24100477791E+03  0.00000000000E+00 0. -1.
         -2   -1    0    0    0  501 -0.00000000000E+00 -0.00000000000E+00 -0.10687317640E+03  0.10687317640E+03  0.00000000000E+00 0.  1.
        -24    2    1    2    0    0 -0.33402116571E+02  0.15024161314E+02  0.10545969648E+02  0.89159593836E+02  0.80602660519E+02 0.  0.
         23    2    1    2    0    0  0.89614174630E+02 -0.54284248484E+02  0.13033838726E+03  0.18982170148E+03  0.89814827450E+02 0.  0.
         13    1    3    3    0    0 -0.57207561146E+02  0.90692993924E+01  0.22153254523E+02  0.62013901101E+02  0.00000000000E+00 0. -1.
        -14    1    3    3    0    0  0.23805444575E+02  0.59548619213E+01 -0.11607284876E+02  0.27145692736E+02  0.00000000000E+00 0.  1.
        -13    1    4    4    0    0  0.45417561102E+02 -0.75814693378E+02  0.76195094524E+02  0.11668896699E+03  0.00000000000E+00 0. -1.
         13    1    4    4    0    0  0.44196613529E+02  0.21530444894E+02  0.54143292734E+02  0.73132734482E+02  0.00000000000E+00 0.  1.
         21    1    1    2  502  501 -0.56212058060E+02  0.39260087170E+02 -0.67527554032E+01  0.68896659001E+02  0.00000000000E+00 0. -1.
<scales pt_clust_5="13000.00000" pt_clust_6="13000.00000" pt_clust_7="13000.00000" pt_clust_8="13000.00000" pt_clust_9="68.56493"></scales>
<clustering>
<clus scale="   68.565">  2  9  1 -1</clus>
<clus scale="   80.603">  5  6 -1 -1</clus>
<clus scale="   89.815">  7  8 -1 -1</clus>
<clus scale="  110.322">  2  5  1 -1</clus>
<clus scale="  117.221">  1  5  2 -1</clus>
</clustering>
</event>
<event>
 9    1  0.6106093E-005  0.1401863E+03  0.7546771E-02  0.1215929E+00
          3   -1    0    0  502    0  0.00000000000E+00  0.00000000000E+00  0.60708688497E+03  0.60708688497E+03  0.00000000000E+00 0. -1.
         -4   -1    0    0    0  501 -0.00000000000E+00 -0.00000000000E+00 -0.79272278868E+02  0.79272278868E+02  0.00000000000E+00 0.  1.
         23    2    1    2    0    0 -0.16339039127E+02 -0.93722817659E+02  0.41886770305E+02  0.13960792607E+03  0.93193029493E+02 0.  0.
        -24    2    1    2    0    0 -0.71368102198E+01  0.10663354638E+03  0.49924473455E+03  0.51683231047E+03  0.80303704126E+02 0.  0.
         11    1    4    4    0    0 -0.88591108303E+00  0.11104957329E+03  0.49639476546E+03  0.50866546545E+03  0.00000000000E+00 0. -1.
        -12    1    4    4    0    0 -0.62508991368E+01 -0.44160269141E+01  0.28499690885E+01  0.81668450169E+01  0.00000000000E+00 0.  1.
        -11    1    3    3    0    0 -0.37691989367E+02 -0.51023499128E+02 -0.15158331131E+02  0.65221610900E+02  0.00000000000E+00 0.  1.
         11    1    3    3    0    0  0.21352950240E+02 -0.42699318531E+02  0.57045101437E+02  0.74386315172E+02  0.00000000000E+00 0. -1.
         21    1    1    2  502  501  0.23475849347E+02 -0.12910728721E+02 -0.13316898746E+02  0.29918927302E+02  0.00000000000E+00 0. -1.
<scales pt_clust_5="13000.00000" pt_clust_6="13000.00000" pt_clust_7="13000.00000" pt_clust_8="13000.00000" pt_clust_9="26.79183"></scales>
<clustering>
<clus scale="   26.792">  2  9  1 -1</clus>
<clus scale="   80.304">  5  6 -1 -1</clus>
<clus scale="   93.193">  7  8 -1 -1</clus>
<clus scale="  131.970">  1  5  2 -1</clus>
<clus scale="  131.970">  1  5  2 -1</clus>
</clustering>
</event>
<event>
 9    1  0.6106093E-005  0.1868041E+03  0.7546771E-02  0.1162677E+00
          1   -1    0    0  502    0  0.00000000000E+00  0.00000000000E+00  0.20029341851E+03  0.20029341851E+03  0.00000000000E+00 0. -1.
         -2   -1    0    0    0  501 -0.00000000000E+00 -0.00000000000E+00 -0.25511099155E+03  0.25511099155E+03  0.00000000000E+00 0.  1.
        -24    2    1    2    0    0  0.13127728202E+03 -0.87946492195E+02 -0.12231587480E+03  0.21499269790E+03  0.79324502264E+02 0.  0.
         23    2    1    2    0    0 -0.13343685464E+03  0.11738763661E+03  0.49519252606E+02  0.20584741053E+03  0.91300321115E+02 0.  0.
         11    1    3    3    0    0  0.32249770043E+02 -0.51812350801E+02 -0.11603899309E+02  0.62122603314E+02  0.00000000000E+00 0. -1.
        -12    1    3    3    0    0  0.99027511973E+02 -0.36134141394E+02 -0.11071197549E+03  0.15287009459E+03  0.00000000000E+00 0.  1.
        -13    1    4    4    0    0 -0.11053727623E+03  0.74364120927E+02 -0.42307466125E+01  0.13329070161E+03  0.00000000000E+00 0.  1.
         13    1    4    4    0    0 -0.22899578411E+02  0.43023515687E+02  0.53749999218E+02  0.72556708921E+02  0.00000000000E+00 0. -1.
         21    1    1    2  502  501  0.21595726255E+01 -0.29441144419E+02  0.17979049152E+02  0.34564301628E+02  0.00000000000E+00 0.  1.
<scales pt_clust_5="13000.00000" pt_clust_6="13000.00000" pt_clust_7="13000.00000" pt_clust_8="13000.00000" pt_clust_9="29.52024"></scales>
<clustering>
<clus scale="   29.520">  1  9  2 -1</clus>
<clus scale="   79.325">  5  6 -1 -1</clus>
<clus scale="   91.300">  7  8 -1 -1</clus>
<clus scale="  181.252">  2  5  1 -1</clus>
<clus scale="   29.520">  1  5  2 -1</clus>
</clustering>
</event>
<event>
 9    1  0.6106093E-005  0.1544043E+03  0.7546771E-02  0.1198839E+00
         -2   -1    0    0    0  501 -0.00000000000E+00  0.00000000000E+00  0.37987879111E+02  0.37987879111E+02  0.00000000000E+00 0.  1.
          1   -1    0    0  502    0  0.00000000000E+00 -0.00000000000E+00 -0.99863773472E+03  0.99863773472E+03  0.00000000000E+00 0. -1.
        -24    2    1    2    0    0 -0.97819752257E+02  0.78278599789E+01 -0.14991725307E+03  0.19319918475E+03  0.72254846882E+02 0.  0.
         23    2    1    2    0    0  0.13251363441E+03  0.58885554910E+01 -0.77482528782E+03  0.79164669595E+03  0.93572037359E+02 0.  0.
         11    1    3    3    0    0 -0.78420715014E+02  0.37078052339E+02 -0.10833893151E+03  0.13878729981E+03  0.00000000000E+00 0. -1.
        -12    1    3    3    0    0 -0.19399037243E+02 -0.29250192360E+02 -0.41578321564E+02  0.54411884944E+02  0.00000000000E+00 0.  1.
        -13    1    4    4    0    0  0.61842078040E+02 -0.43429967095E+02 -0.32881269319E+03  0.33738463489E+03  0.00000000000E+00 0.  1.
         13    1    4    4    0    0  0.70671556369E+02  0.49318522586E+02 -0.44601259463E+03  0.45426206106E+03  0.00000000000E+00 0. -1.
         21    1    1    2  502  501 -0.34693882152E+02 -0.13716415470E+02 -0.35907314714E+02  0.51779733121E+02  0.00000000000E+00 0. -1.
<scales pt_clust_5="13000.00000" pt_clust_6="13000.00000" pt_clust_7="13000.00000" pt_clust_8="13000.00000" pt_clust_9="37.30691"></scales>
<clustering>
<clus scale="   37.307">  1  9  2 -1</clus>
<clus scale="   72.255">  5  6 -1 -1</clus>
<clus scale="   93.572">  7  8 -1 -1</clus>
<clus scale="  142.498">  1  5  2 -1</clus>
<clus scale="  154.404">  2  5  1 -1</clus>
</clustering>
</event>
<event>
 9    1  0.6106093E-005  0.1004651E+03  0.7546771E-02  0.1285244E+00
         -2   -1    0    0    0  501 -0.00000000000E+00  0.00000000000E+00  0.17012353580E+03  0.17012353580E+03  0.00000000000E+00 0.  1.
          1   -1    0    0  502    0  0.00000000000E+00 -0.00000000000E+00 -0.25060830016E+03  0.25060830016E+03  0.00000000000E+00 0. -1.
         23    2    1    2    0    0  0.92667434100E+01 -0.75000645514E+02 -0.13341819402E+03  0.17892402538E+03  0.92208584214E+02 0.  0.
        -24    2    1    2    0    0 -0.12287840925E+01  0.98651488100E+01 -0.66951217657E+02  0.10513458575E+03  0.80448645136E+02 0.  0.
         11    1    4    4    0    0 -0.19441553619E+02 -0.19791156998E+02  0.20862104913E+01  0.27821146214E+02  0.00000000000E+00 0. -1.
        -12    1    4    4    0    0  0.18212769526E+02  0.29656305808E+02 -0.69037428148E+02  0.77313439539E+02  0.00000000000E+00 0.  1.
        -13    1    3    3    0    0 -0.35195265406E+02 -0.49720469806E+02 -0.41420651619E+02  0.73664796241E+02  0.00000000000E+00 0.  1.
         13    1    3    3    0    0  0.44462008816E+02 -0.25280175708E+02 -0.91997542398E+02  0.10525922914E+03  0.00000000000E+00 0. -1.
         21    1    1    2  502  501 -0.80379593175E+01  0.65135496704E+02  0.11988464731E+03  0.13667322482E+03  0.00000000000E+00 0.  1.
<scales pt_clust_5="13000.00000" pt_clust_6="13000.00000" pt_clust_7="13000.00000" pt_clust_8="13000.00000" pt_clust_9="65.62958"></scales>
<clustering>
<clus scale="   65.630">  1  9  2 -1</clus>
<clus scale="   80.449">  5  6 -1 -1</clus>
<clus scale="   89.793">  2  5  1 -1</clus>
<clus scale="   92.209">  7  8 -1 -1</clus>
<clus scale="   89.793">  2  5  1 -1</clus>
</clustering>
</event>
<event>
 9    1  0.6106093E-005  0.1192563E+03  0.7546771E-02  0.1246546E+00
         -2   -1    0    0    0  501 -0.00000000000E+00  0.00000000000E+00  0.39371653888E+02  0.39371653888E+02  0.00000000000E+00 0.  1.
          1   -1    0    0  502    0  0.00000000000E+00 -0.00000000000E+00 -0.11469248837E+04  0.11469248837E+04  0.00000000000E+00 0. -1.
         23    2    1    2    0    0 -0.41994532442E+02  0.29723533260E+02 -0.30915316829E+03  0.32608579882E+03  0.90051305050E+02 0.  0.
        -24    2    1    2    0    0  0.90230123784E+02 -0.28986044358E+02 -0.80199772298E+03  0.81183554542E+03  0.83035770215E+02 0.  0.
         13    1    4    4    0    0  0.47732182320E+02 -0.56247428599E+02 -0.40797045712E+03  0.41458657520E+03  0.00000000000E+00 0. -1.
        -14    1    4    4    0    0  0.42497941464E+02  0.27261384240E+02 -0.39402726586E+03  0.39724897022E+03  0.00000000000E+00 0.  1.
        -13    1    3    3    0    0 -0.63576295869E+02 -0.67744364700E+00 -0.22941238960E+03  0.23805975894E+03  0.00000000000E+00 0.  1.
         13    1    3    3    0    0  0.21581763427E+02  0.30400976907E+02 -0.79740778691E+02  0.88026039874E+02  0.00000000000E+00 0. -1.
         21    1    1    2  502  501 -0.48235591342E+02 -0.73748890157E+00  0.35976614778E+01  0.48375193334E+02  0.00000000000E+00 0.  1.
<scales pt_clust_5="13000.00000" pt_clust_6="13000.00000" pt_clust_7="13000.00000" pt_clust_8="13000.00000" pt_clust_9="48.24123"></scales>
<clustering>
<clus scale="   48.241">  1  9  2 -1</clus>
<clus scale="   83.036">  5  6 -1 -1</clus>
<clus scale="   90.051">  7  8 -1 -1</clus>
<clus scale="  114.052">  2  5  1 -1</clus>
<clus scale="  114.052">  2  5  1 -1</clus>
</clustering>
</event>
<event>
 9    1  0.6106093E-005  0.1053244E+03  0.7546771E-02  0.1276314E+00
          1   -1    0    0  502    0  0.00000000000E+00  0.00000000000E+00  0.18927586152E+03  0.18927586152E+03  0.00000000000E+00 0. -1.
         -2   -1    0    0    0  501 -0.00000000000E+00 -0.00000000000E+00 -0.14331154386E+03  0.14331154386E+03  0.00000000000E+00 0.  1.
        -24    2    1    2    0    0 -0.70501926786E+01 -0.25439538943E+02 -0.56779432860E+02  0.10170867551E+03  0.80149081835E+02 0.  0.
         23    2    1    2    0    0  0.39939085836E+02  0.32235879973E+02  0.14259357851E+03  0.17876464027E+03  0.94813424392E+02 0.  0.
         13    1    3    3    0    0  0.30894083148E+02 -0.33140058171E+02 -0.25919255523E+02  0.52196892973E+02  0.00000000000E+00 0. -1.
        -14    1    3    3    0    0 -0.37944275827E+02  0.77005192287E+01 -0.30860177337E+02  0.49511782534E+02  0.00000000000E+00 0.  1.
        -13    1    4    4    0    0  0.67568319920E+02  0.34783424764E+01  0.95803983970E+02  0.11728589032E+03  0.00000000000E+00 0. -1.
         13    1    4    4    0    0 -0.27629234084E+02  0.28757537497E+02  0.46789594538E+02  0.61478749954E+02  0.00000000000E+00 0.  1.
         21    1    1    2  502  501 -0.32888893157E+02 -0.67963410308E+01 -0.39849827982E+02  0.52114089599E+02  0.00000000000E+00 0.  1.
<scales pt_clust_5="13000.00000" pt_clust_6="13000.00000" pt_clust_7="13000.00000" pt_clust_8="13000.00000" pt_clust_9="33.58377"></scales>
<clustering>
<clus scale="   33.584">  2  9  1 -1</clus>
<clus scale="   80.149">  5  6 -1 -1</clus>
<clus scale="   92.345">  2  5  1 -1</clus>
<clus scale="   94.813">  7  8 -1 -1</clus>
<clus scale="  105.324">  1  5  2 -1</clus>
</clustering>
</event>
<event>
 9    1  0.6106093E-005  0.1118367E+03  0.7546771E-02  0.1261316E+00
         -2   -1    0    0    0  501 -0.00000000000E+00  0.00000000000E+00  0.60195893232E+02  0.60195893232E+02  0.00000000000E+00 0.  1.
          1   -1    0    0  502    0  0.00000000000E+00 -0.00000000000E+00 -0.41022062038E+03  0.41022062038E+03  0.00000000000E+00 0. -1.
        -24    2    1    2    0    0 -0.26432705593E+02 -0.44685021292E+02 -0.52422936732E+01  0.95667369721E+02  0.80183071365E+02 0.  0.
         23    2    1    2    0    0  0.19018487738E+02  0.65204057318E+02 -0.32829658295E+03  0.34740349097E+03  0.91089336364E+02 0.  0.
         13    1    3    3    0    0 -0.22654780597E+02  0.15917658856E+02  0.15215854312E+02  0.31593245636E+02  0.00000000000E+00 0. -1.
        -14    1    3    3    0    0 -0.37779249964E+01 -0.60602680148E+02 -0.20458147985E+02  0.64074124086E+02  0.00000000000E+00 0.  1.
        -11    1    4    4    0    0  0.43265429040E+02  0.69784255989E+02 -0.29334227137E+03  0.30461685427E+03  0.00000000000E+00 0.  1.
         11    1    4    4    0    0 -0.24246941302E+02 -0.45801986712E+01 -0.34954311576E+02  0.42786636700E+02  0.00000000000E+00 0. -1.
         21    1    1    2  502  501  0.74142178555E+01 -0.20519036026E+02 -0.16485850525E+02  0.27345652915E+02  0.00000000000E+00 0.  1.
<scales pt_clust_5="13000.00000" pt_clust_6="13000.00000" pt_clust_7="13000.00000" pt_clust_8="13000.00000" pt_clust_9="21.81746"></scales>
<clustering>
<clus scale="   21.817">  1  9  2 -1</clus>
<clus scale="   80.183">  5  6 -1 -1</clus>
<clus scale="   91.089">  7  8 -1 -1</clus>
<clus scale="  103.148">  1  5  2 -1</clus>
<clus scale="  111.837">  2  5  1 -1</clus>
</clustering>
</event>
<event>
 9    1  0.6106093E-005  0.8966212E+02  0.7546771E-02  0.1307497E+00
          1   -1    0    0  502    0  0.00000000000E+00  0.00000000000E+00  0.90550790435E+02  0.90550790435E+02  0.00000000000E+00 0. -1.
         -2   -1    0    0    0  501 -0.00000000000E+00 -0.00000000000E+00 -0.15274848935E+03  0.15274848935E+03  0.00000000000E+00 0.  1.
        -24    2    1    2    0    0 -0.23728334095E+01 -0.83208314523E+01 -0.47899550302E+02  0.94205969954E+02  0.80656873740E+02 0.  0.
         23    2    1    2    0    0 -0.34509252323E+02 -0.12623122835E+02  0.17639650182E+02  0.95999426369E+02  0.86916631773E+02 0.  0.
         11    1    3    3    0    0  0.37854928115E+02 -0.30619869995E+01 -0.34967766657E+02  0.51624762004E+02  0.00000000000E+00 0. -1.
        -12    1    3    3    0    0 -0.40227761525E+02 -0.52588444528E+01 -0.12931783645E+02  0.42581207951E+02  0.00000000000E+00 0.  1.
        -11    1    4    4    0    0 -0.59862902294E+02 -0.14064811437E+02  0.29228009941E+02  0.68085700091E+02  0.00000000000E+00 0.  1.
         11    1    4    4    0    0  0.25353649970E+02  0.14416886027E+01 -0.11588359759E+02  0.27913726278E+02  0.00000000000E+00 0. -1.
         21    1    1    2  502  501  0.36882085733E+02  0.20943954287E+02 -0.31937798798E+02  0.53093883464E+02  0.00000000000E+00 0.  1.
<scales pt_clust_5="13000.00000" pt_clust_6="13000.00000" pt_clust_7="13000.00000" pt_clust_8="13000.00000" pt_clust_9="42.41388"></scales>
<clustering>
<clus scale="   42.414">  2  9  1 -1</clus>
<clus scale="   80.657">  5  6 -1 -1</clus>
<clus scale="   83.608">  2  5  1 -1</clus>
<clus scale="   86.917">  7  8 -1 -1</clus>
<clus scale="   89.662">  1  5  2 -1</clus>
</clustering>
</event>
<event>
 9    1  0.6106093E-005  0.1433558E+03  0.7546771E-02  0.1212043E+00
         -2   -1    0    0    0  501 -0.00000000000E+00  0.00000000000E+00  0.30396348147E+03  0.30396348147E+03  0.00000000000E+00 0.  1.
          1   -1    0    0  502    0  0.00000000000E+00 -0.00000000000E+00 -0.36686955940E+03  0.36686955940E+03  0.00000000000E+00 0. -1.
         23    2    1    2    0    0  0.81677337614E+02  0.82047259537E+00  0.18732220551E+03  0.22350548480E+03  0.90516475854E+02 0.  0.
        -24    2    1    2    0    0 -0.10915969707E+03  0.30308859535E+02 -0.33030567424E+03  0.35712387589E+03  0.74840883642E+02 0.  0.
         11    1    4    4    0    0 -0.11562184144E+03  0.18657953842E+02 -0.31839886739E+03  0.33925560897E+03  0.00000000000E+00 0. -1.
        -12    1    4    4    0    0  0.64621443766E+01  0.11650905693E+02 -0.11906806850E+02  0.17868266921E+02  0.00000000000E+00 0.  1.
        -13    1    3    3    0    0  0.85663682539E+02 -0.29235458865E+02  0.12653533267E+03  0.15557689088E+03  0.00000000000E+00 0.  1.
         13    1    3    3    0    0 -0.39863449251E+01  0.30055931460E+02  0.60786872843E+02  0.67928593919E+02  0.00000000000E+00 0. -1.
         21    1    1    2  502  501  0.27482359453E+02 -0.31129332130E+02  0.80077390804E+02  0.90203680180E+02  0.00000000000E+00 0.  1.
<scales pt_clust_5="13000.00000" pt_clust_6="13000.00000" pt_clust_7="13000.00000" pt_clust_8="13000.00000" pt_clust_9="41.52488"></scales>
<clustering>
<clus scale="   41.525">  1  9  2 -1</clus>
<clus scale="   74.841">  5  6 -1 -1</clus>
<clus scale="   90.516">  7  8 -1 -1</clus>
<clus scale="  134.010">  2  5  1 -1</clus>
<clus scale="  134.010">  2  5  1 -1</clus>
</clustering>
</event>
<event>
 9    1  0.6106093E-005  0.9271575E+02  0.7546771E-02  0.1307254E+00
          1   -1    0    0  502    0  0.00000000000E+00  0.00000000000E+00  0.16545318061E+03  0.16545318061E+03  0.00000000000E+00 0. -1.
         -2   -1    0    0    0  501 -0.00000000000E+00 -0.00000000000E+00 -0.11968732523E+03  0.11968732523E+03  0.00000000000E+00 0.  1.
        -24    2    1    2    0    0 -0.15750172683E+02 -0.44096501711E+02  0.35136559983E+01  0.87363583037E+02  0.73671435848E+02 0.  0.
         23    2    1    2    0    0 -0.10683156892E+02  0.66608985132E+01  0.92155667189E+02  0.13002368378E+03  0.90856997196E+02 0.  0.
         13    1    3    3    0    0  0.29533809354E+02 -0.22338282805E+02  0.50944785818E+00  0.37033826574E+02  0.00000000000E+00 0. -1.
        -14    1    3    3    0    0 -0.45283982037E+02 -0.21758218905E+02  0.30042081402E+01  0.50329756463E+02  0.00000000000E+00 0.  1.
        -13    1    4    4    0    0  0.35591754016E+02  0.63912641592E+01  0.69844340706E+02  0.78650194787E+02  0.00000000000E+00 0. -1.
         13    1    4    4    0    0 -0.46274910908E+02  0.26963435403E+00  0.22311326483E+02  0.51373488996E+02  0.00000000000E+00 0.  1.
         21    1    1    2  502  501  0.26433329576E+02  0.37435603197E+02 -0.49903467800E+02  0.67753239020E+02  0.00000000000E+00 0.  1.
<scales pt_clust_5="13000.00000" pt_clust_6="13000.00000" pt_clust_7="13000.00000" pt_clust_8="13000.00000" pt_clust_9="45.82734"></scales>
<clustering>
<clus scale="   45.827">  2  9  1 -1</clus>
<clus scale="   73.671">  5  6 -1 -1</clus>
<clus scale="   75.952">  2  5  1 -1</clus>
<clus scale="   90.857">  7  8 -1 -1</clus>
<clus scale="   92.716">  1  5  2 -1</clus>
</clustering>
</event>
<event>
 9    1  0.6106093E-005  0.2198087E+03  0.7546771E-02  0.1168416E+00
         -2   -1    0    0    0  501 -0.00000000000E+00  0.00000000000E+00  0.13089941233E+04  0.13089941233E+04  0.00000000000E+00 0.  1.
          1   -1    0    0  502    0  0.00000000000E+00 -0.00000000000E+00 -0.10714782651E+03  0.10714782651E+03  0.00000000000E+00 0. -1.
         23    2    1    2    0    0 -0.16790589357E+03 -0.78028726056E+02  0.81190558029E+03  0.83816383888E+03  0.95116130639E+02 0.  0.
        -24    2    1    2    0    0 -0.53478479745E+02  0.17742924165E+02 -0.27819024486E+02  0.10135601761E+03  0.79526002223E+02 0.  0.
         11    1    4    4    0    0 -0.46514429435E+02  0.47256648593E+02 -0.25138659627E+02  0.70913575497E+02  0.00000000000E+00 0. -1.
        -12    1    4    4    0    0 -0.69640503094E+01 -0.29513724428E+02 -0.26803648592E+01  0.30442442118E+02  0.00000000000E+00 0.  1.
        -11    1    3    3    0    0 -0.77388520156E+02 -0.69851647037E+01  0.18292397330E+03  0.19874344162E+03  0.00000000000E+00 0. -1.
         11    1    3    3    0    0 -0.90517373412E+02 -0.71043561352E+02  0.62898160699E+03  0.63942039726E+03  0.00000000000E+00 0.  1.
         21    1    1    2  502  501  0.22138437331E+03  0.60285801891E+02  0.41775974094E+03  0.47662209329E+03  0.00000000000E+00 0. -1.
<scales pt_clust_5="13000.00000" pt_clust_6="13000.00000" pt_clust_7="13000.00000" pt_clust_8="13000.00000" pt_clust_9="198.16351"></scales>
<clustering>
<clus scale="   79.526">  5  6 -1 -1</clus>
<clus scale="   95.116">  7  8 -1 -1</clus>
<clus scale="   97.464">  2  5  1 -1</clus>
<clus scale="  198.164">  2  9  1 -1</clus>
<clus scale="   97.464">  2  5  1 -1</clus>
</clustering>
</event>
<event>
 9    1  0.6106093E-005  0.1981610E+03  0.7546771E-02  0.1152171E+00
          1   -1    0    0  502    0  0.00000000000E+00  0.00000000000E+00  0.11364522066E+04  0.11364522066E+04  0.00000000000E+00 0. -1.
         -2   -1    0    0    0  501 -0.00000000000E+00 -0.00000000000E+00 -0.44420113717E+02  0.44420113717E+02  0.00000000000E+00 0.  1.
        -24    2    1    2    0    0 -0.16306208217E+03  0.92162004956E+02  0.50706194092E+03  0.54713272173E+03  0.84612797212E+02 0.  0.
         23    2    1    2    0    0  0.14479783222E+03 -0.79571080891E+02  0.58096621078E+03  0.61119751042E+03  0.93502350425E+02 0.  0.
         11    1    3    3    0    0 -0.23900799819E+02 -0.38529549552E+01  0.19491550397E+02  0.31080766250E+02  0.00000000000E+00 0. -1.
        -12    1    3    3    0    0 -0.13916128235E+03  0.96014959912E+02  0.48757039053E+03  0.51605195547E+03  0.00000000000E+00 0.  1.
        -13    1    4    4    0    0  0.77304117318E+02 -0.58219136530E+02  0.46786563874E+03  0.47776945311E+03  0.00000000000E+00 0.  1.
         13    1    4    4    0    0  0.67493714901E+02 -0.21351944361E+02  0.11310057204E+03  0.13342805730E+03  0.00000000000E+00 0. -1.
         21    1    1    2  502  501  0.18264249951E+02 -0.12590924065E+02  0.40039411933E+01  0.22542088194E+02  0.00000000000E+00 0.  1.
<scales pt_clust_5="13000.00000" pt_clust_6="13000.00000" pt_clust_7="13000.00000" pt_clust_8="13000.00000" pt_clust_9="22.18365"></scales>
<clustering>
<clus scale="   22.184">  2  9  1 -1</clus>
<clus scale="   84.613">  5  6 -1 -1</clus>
<clus scale="   93.502">  7  8 -1 -1</clus>
<clus scale="  194.125">  2  5  1 -1</clus>
<clus scale="  198.161">  1  5  2 -1</clus>
</clustering>
</event>
<event>
 9    1  0.6106093E-005  0.1050066E+03  0.7546771E-02  0.1282968E+00
         -2   -1    0    0    0  501 -0.00000000000E+00  0.00000000000E+00  0.90524657882E+02  0.90524657882E+02  0.00000000000E+00 0.  1.
          1   -1    0    0  502    0  0.00000000000E+00 -0.00000000000E+00 -0.18515607674E+03  0.18515607674E+03  0.00000000000E+00 0. -1.
        -24    2    1    2    0    0  0.19387115233E+00  0.27574267184E+01  0.27321233329E+02  0.85552347898E+02  0.81025387701E+02 0.  0.
         23    2    1    2    0    0  0.11180002412E+02  0.14575593956E+02 -0.13025500495E+03  0.16779617530E+03  0.10417173196E+03 0.  0.
         13    1    3    3    0    0 -0.29428372798E+02  0.11698473495E+02 -0.13418849809E+02  0.34394024741E+02  0.00000000000E+00 0. -1.
        -14    1    3    3    0    0  0.29622243951E+02 -0.89410467762E+01  0.40740083139E+02  0.51158323157E+02  0.00000000000E+00 0.  1.
        -11    1    4    4    0    0  0.14221240898E+02  0.54451442435E+02 -0.10860506702E+03  0.12232033297E+03  0.00000000000E+00 0. -1.
         11    1    4    4    0    0 -0.30412384860E+01 -0.39875848478E+02 -0.21649937927E+02  0.45475842330E+02  0.00000000000E+00 0.  1.
         21    1    1    2  502  501 -0.11373873564E+02 -0.17333020675E+02  0.83023527610E+01  0.22332211421E+02  0.00000000000E+00 0.  1.
<scales pt_clust_5="13000.00000" pt_clust_6="13000.00000" pt_clust_7="13000.00000" pt_clust_8="13000.00000" pt_clust_9="20.73158"></scales>
<clustering>
<clus scale="   20.732">  1  9  2 -1</clus>
<clus scale="   81.025">  5  6 -1 -1</clus>
<clus scale="   82.096">  1  5  2 -1</clus>
<clus scale="  104.172">  7  8 -1 -1</clus>
<clus scale="  105.007">  2  5  1 -1</clus>
</clustering>
</event>
<event>
 9    1  0.6106093E-005  0.1384007E+03  0.7546771E-02  0.1217805E+00
         -2   -1    0    0    0  501 -0.00000000000E+00  0.00000000000E+00  0.19815876321E+03  0.19815876321E+03  0.00000000000E+00 0.  1.
          1   -1    0    0  502    0  0.00000000000E+00 -0.00000000000E+00 -0.13517214478E+03  0.13517214478E+03  0.00000000000E+00 0. -1.
         23    2    1    2    0    0 -0.57401630696E+02 -0.77706540875E+02  0.51709034419E+02  0.14222118640E+03  0.90663046043E+02 0.  0.
        -24    2    1    2    0    0  0.45921759197E+02  0.99612186090E+02 -0.33477577995E+02  0.13997588477E+03  0.80256491978E+02 0.  0.
         13    1    4    4    0    0  0.21263464302E+02  0.72163961567E+02 -0.58580103843E+02  0.95348837589E+02  0.00000000000E+00 0. -1.
        -14    1    4    4    0    0  0.24658294894E+02  0.27448224523E+02  0.25102525848E+02  0.44627047186E+02  0.00000000000E+00 0.  1.
        -11    1    3    3    0    0 -0.26791704574E+02 -0.91652218773E+02  0.23539032066E+02  0.98346381075E+02  0.00000000000E+00 0.  1.
         11    1    3    3    0    0 -0.30609926123E+02  0.13945677898E+02  0.28170002353E+02  0.43874805320E+02  0.00000000000E+00 0. -1.
         21    1    1    2  502  501  0.11479871500E+02 -0.21905645215E+02  0.44755162001E+02  0.51133836817E+02  0.00000000000E+00 0.  1.
<scales pt_clust_5="13000.00000" pt_clust_6="13000.00000" pt_clust_7="13000.00000" pt_clust_8="13000.00000" pt_clust_9="24.73145"></scales>
<clustering>
<clus scale="   24.731">  1  9  2 -1</clus>
<clus scale="   80.256">  5  6 -1 -1</clus>
<clus scale="   90.663">  7  8 -1 -1</clus>
<clus scale="  131.818">  2  5  1 -1</clus>
<clus scale="  131.818">  2  5  1 -1</clus>
</clustering>
</event>
<event>
 9    1  0.6106093E-005  0.9329313E+02  0.7546771E-02  0.1300378E+00
         -4   -1    0    0    0  501 -0.00000000000E+00  0.00000000000E+00  0.15971457286E+03  0.15971457286E+03  0.00000000000E+00 0.  1.
          3   -1    0    0  502    0  0.00000000000E+00 -0.00000000000E+00 -0.23127501826E+03  0.23127501826E+03  0.00000000000E+00 0. -1.
        -24    2    1    2    0    0 -0.15052821936E+02  0.40794023658E+02 -0.13664668970E+02  0.92597453389E+02  0.80602886932E+02 0.  0.
         23    2    1    2    0    0  0.14599850812E+01 -0.20403838739E+02 -0.16478033242E+03  0.18873433744E+03  0.89719808211E+02 0.  0.
         13    1    3    3    0    0  0.15442440932E+02  0.54800046480E+02 -0.16648419881E+01  0.56958632137E+02  0.00000000000E+00 0. -1.
        -14    1    3    3    0    0 -0.30495262867E+02 -0.14006022822E+02 -0.11999826982E+02  0.35638821252E+02  0.00000000000E+00 0.  1.
        -13    1    4    4    0    0 -0.31775952467E+02 -0.23057751861E+02 -0.28707800279E+02  0.48636497335E+02  0.00000000000E+00 0.  1.
         13    1    4    4    0    0  0.33235937548E+02  0.26539131229E+01 -0.13607253214E+03  0.14009784010E+03  0.00000000000E+00 0. -1.
         21    1    1    2  502  501  0.13592836855E+02 -0.20390184919E+02  0.10688455599E+03  0.10965780028E+03  0.00000000000E+00 0.  1.
<scales pt_clust_5="13000.00000" pt_clust_6="13000.00000" pt_clust_7="13000.00000" pt_clust_8="13000.00000" pt_clust_9="24.50561"></scales>
<clustering>
<clus scale="   24.506">  1  9  2 -1</clus>
<clus scale="   80.603">  5  6 -1 -1</clus>
<clus scale="   84.562">  1  5  2 -1</clus>
<clus scale="   89.720">  7  8 -1 -1</clus>
<clus scale="   93.293">  2  5  1 -1</clus>
</clustering>
</event>
<event>
 9    1  0.6106093E-005  0.1114689E+03  0.7546771E-02  0.1261588E+00
         -2   -1    0    0    0  501 -0.00000000000E+00  0.00000000000E+00  0.44173720018E+03  0.44173720018E+03  0.00000000000E+00 0.  1.
          1   -1    0    0  502    0  0.00000000000E+00 -0.00000000000E+00 -0.45052296425E+02  0.45052296425E+02  0.00000000000E+00 0. -1.
         23    2    1    2    0    0 -0.57945531996E+02 -0.26757118954E+02  0.20707638679E+03  0.23609919282E+03  0.93747377525E+02 0.  0.
        -24    2    1    2    0    0  0.61311737492E+02 -0.92314115338E+01  0.70337441874E+02  0.12606247776E+03  0.84261761528E+02 0.  0.
         13    1    4    4    0    0  0.71634538582E+01  0.29984866927E+02  0.45036858893E+02  0.54577705840E+02  0.00000000000E+00 0. -1.
        -14    1    4    4    0    0  0.54148283634E+02 -0.39216278461E+02  0.25300582980E+02  0.71484771917E+02  0.00000000000E+00 0.  1.
        -11    1    3    3    0    0 -0.30269881011E+02  0.17689460200E+02  0.17039121891E+02  0.38980948852E+02  0.00000000000E+00 0. -1.
         11    1    3    3    0    0 -0.27675650985E+02 -0.44446579155E+02  0.19003726490E+03  0.19711824397E+03  0.00000000000E+00 0.  1.
         21    1    1    2  502  501 -0.33662054959E+01  0.35988530488E+02  0.11927107510E+03  0.12462782603E+03  0.00000000000E+00 0. -1.
<scales pt_clust_5="13000.00000" pt_clust_6="13000.00000" pt_clust_7="13000.00000" pt_clust_8="13000.00000" pt_clust_9="36.14562"></scales>
<clustering>
<clus scale="   36.146">  1  9  2 -1</clus>
<clus scale="   84.262">  5  6 -1 -1</clus>
<clus scale="   93.747">  7  8 -1 -1</clus>
<clus scale="  103.619">  2  5  1 -1</clus>
<clus scale="  103.619">  2  5  1 -1</clus>
</clustering>
</event>
<event>
 9    1  0.6106093E-005  0.1085852E+03  0.7546771E-02  0.1267225E+00
          3   -1    0    0  502    0  0.00000000000E+00  0.00000000000E+00  0.51363019230E+03  0.51363019230E+03  0.00000000000E+00 0. -1.
         -4   -1    0    0    0  501 -0.00000000000E+00 -0.00000000000E+00 -0.52095849213E+02  0.52095849213E+02  0.00000000000E+00 0.  1.
         23    2    1    2    0    0  0.22517427648E+02 -0.36094794057E+02  0.18113888890E+02  0.10203468143E+03  0.90956553028E+02 0.  0.
        -24    2    1    2    0    0 -0.39939668431E+02  0.47155191775E+02  0.42125774251E+03  0.43340848272E+03  0.81031093085E+02 0.  0.
         11    1    4    4    0    0 -0.38209843534E+02  0.65108900799E+02  0.39068293916E+03  0.39790993963E+03  0.00000000000E+00 0. -1.
        -12    1    4    4    0    0 -0.17298248966E+01 -0.17953709023E+02  0.30574803352E+02  0.35498543095E+02  0.00000000000E+00 0.  1.
        -13    1    3    3    0    0  0.52483076053E+02 -0.40829310740E+02 -0.39748805541E+00  0.66495592968E+02  0.00000000000E+00 0.  1.
         13    1    3    3    0    0 -0.29965648405E+02  0.47345166825E+01  0.18511376946E+02  0.35539088466E+02  0.00000000000E+00 0. -1.
         21    1    1    2  502  501  0.17422240783E+02 -0.11060397718E+02  0.22162711685E+02  0.30282877353E+02  0.00000000000E+00 0. -1.
<scales pt_clust_5="13000.00000" pt_clust_6="13000.00000" pt_clust_7="13000.00000" pt_clust_8="13000.00000" pt_clust_9="20.63654"></scales>
<clustering>
<clus scale="   20.637">  2  9  1 -1</clus>
<clus scale="   81.031">  5  6 -1 -1</clus>
<clus scale="   90.957">  7  8 -1 -1</clus>
<clus scale="  100.418">  1  5  2 -1</clus>
<clus scale="  100.418">  1  5  2 -1</clus>
</clustering>
</event>
<event>
 9    1  0.6106093E-005  0.1139072E+03  0.7546771E-02  0.1253591E+00
         -2   -1    0    0    0  501 -0.00000000000E+00  0.00000000000E+00  0.69106708332E+02  0.69106708332E+02  0.00000000000E+00 0.  1.
          1   -1    0    0  502    0  0.00000000000E+00 -0.00000000000E+00 -0.55378244848E+03  0.55378244848E+03  0.00000000000E+00 0. -1.
         23    2    1    2    0    0 -0.34463537799E+02 -0.14885775869E+02  0.61063704677E+01  0.85861410381E+02  0.76977738804E+02 0.  0.
        -24    2    1    2    0    0  0.69105215894E+02  0.60454515851E+02 -0.45255139922E+03  0.46819357455E+03  0.77279848357E+02 0.  0.
         13    1    4    4    0    0  0.40293449385E+02  0.72586063848E+02 -0.38368127598E+03  0.39256033965E+03  0.00000000000E+00 0. -1.
        -14    1    4    4    0    0  0.28811766509E+02 -0.12131547997E+02 -0.68870123238E+02  0.75633234897E+02  0.00000000000E+00 0.  1.
        -11    1    3    3    0    0 -0.27111743028E+02 -0.35547177378E+02  0.29682165935E+02  0.53662644401E+02  0.00000000000E+00 0.  1.
         11    1    3    3    0    0 -0.73517947711E+01  0.20661401509E+02 -0.23575795467E+02  0.32198765979E+02  0.00000000000E+00 0. -1.
         21    1    1    2  502  501 -0.34641678095E+02 -0.45568739982E+02 -0.38230711392E+02  0.68834171879E+02  0.00000000000E+00 0.  1.
<scales pt_clust_5="13000.00000" pt_clust_6="13000.00000" pt_clust_7="13000.00000" pt_clust_8="13000.00000" pt_clust_9="57.24121"></scales>
<clustering>
<clus scale="   57.241">  1  9  2 -1</clus>
<clus scale="   76.978">  7  8 -1 -1</clus>
<clus scale="   77.280">  5  6 -1 -1</clus>
<clus scale="  113.702">  1  7  2 -1</clus>
<clus scale="  113.907">  2  5  1 -1</clus>
</clustering>
</event>
<event>
 9    1  0.6106093E-005  0.3450880E+03  0.7546771E-02  0.1064692E+00
         -2   -1    0    0    0  501 -0.00000000000E+00  0.00000000000E+00  0.32693327021E+03  0.32693327021E+03  0.00000000000E+00 0.  1.
          1   -1    0    0  502    0  0.00000000000E+00 -0.00000000000E+00 -0.12898957186E+04  0.12898957186E+04  0.00000000000E+00 0. -1.
        -24    2    1    2    0    0 -0.28572450596E+03 -0.16478020769E+03  0.14274732312E+03  0.37042437524E+03  0.89701780164E+02 0.  0.
         23    2    1    2    0    0  0.27270697220E+03  0.19147355834E+03 -0.11456633051E+04  0.11966223275E+04  0.91265381192E+02 0.  0.
         13    1    3    3    0    0 -0.12862920411E+03 -0.39812066260E+02  0.22760843422E+02  0.13655961615E+03  0.00000000000E+00 0. -1.
        -14    1    3    3    0    0 -0.15709530185E+03 -0.12496814143E+03  0.11998647969E+03  0.23386475909E+03  0.00000000000E+00 0.  1.
        -13    1    4    4    0    0  0.26713070444E+03  0.15676392558E+03 -0.10486874409E+04  0.10934711200E+04  0.00000000000E+00 0. -1.
         13    1    4    4    0    0  0.55762677573E+01  0.34709632758E+02 -0.96975864218E+02  0.10315120750E+03  0.00000000000E+00 0.  1.
         21    1    1    2  502  501  0.13017533760E+02 -0.26693350645E+02  0.39953533628E+02  0.49782286038E+02  0.00000000000E+00 0. -1.
<scales pt_clust_5="13000.00000" pt_clust_6="13000.00000" pt_clust_7="13000.00000" pt_clust_8="13000.00000" pt_clust_9="29.69834"></scales>
<clustering>
<clus scale="   29.698">  1  9  2 -1</clus>
<clus scale="   89.702">  5  6 -1 -1</clus>
<clus scale="   91.265">  7  8 -1 -1</clus>
<clus scale="  344.678">  1  5  2 -1</clus>
<clus scale="  345.088">  2  5  1 -1</clus>
</clustering>
</event>
<event>
 9    1  0.6106093E-005  0.1103095E+03  0.7546771E-02  0.1264085E+00
         -2   -1    0    0    0  501 -0.00000000000E+00  0.00000000000E+00  0.52170523448E+02  0.52170523448E+02  0.00000000000E+00 0.  1.
          1   -1    0    0  502    0  0.00000000000E+00 -0.00000000000E+00 -0.54270123369E+03  0.54270123369E+03  0.00000000000E+00 0. -1.
        -24    2    1    2    0    0 -0.17375374598E+02  0.71864248486E+02 -0.14440362616E+03  0.18141946705E+03  0.81204937805E+02 0.  0.
         23    2    1    2    0    0  0.41511136454E+02 -0.41926324444E+02 -0.35718430873E+03  0.37343883593E+03  0.91623919601E+02 0.  0.
         11    1    3    3    0    0 -0.14205049433E+02  0.40030090127E+02 -0.14324169235E+03  0.14940674005E+03  0.00000000000E+00 0. -1.
        -12    1    3    3    0    0 -0.31703251653E+01  0.31834158358E+02 -0.11619338136E+01  0.32012727004E+02  0.00000000000E+00 0.  1.
        -13    1    4    4    0    0  0.15211558053E+02 -0.59452296269E+02 -0.31391161027E+03  0.31985381988E+03  0.00000000000E+00 0. -1.
         13    1    4    4    0    0  0.26299578401E+02  0.17525971825E+02 -0.43272698462E+02  0.53585016046E+02  0.00000000000E+00 0.  1.
         21    1    1    2  502  501 -0.24135761856E+02 -0.29937924042E+02  0.11057224656E+02  0.40013454155E+02  0.00000000000E+00 0.  1.
<scales pt_clust_5="13000.00000" pt_clust_6="13000.00000" pt_clust_7="13000.00000" pt_clust_8="13000.00000" pt_clust_9="38.45535"></scales>
<clustering>
<clus scale="   38.455">  1  9  2 -1</clus>
<clus scale="   81.205">  5  6 -1 -1</clus>
<clus scale="   91.624">  7  8 -1 -1</clus>
<clus scale="  101.821">  1  5  2 -1</clus>
<clus scale="  110.310">  2  5  1 -1</clus>
</clustering>
</event>
<event>
 9    1  0.6106093E-005  0.1313036E+03  0.7546771E-02  0.1231061E+00
         -2   -1    0    0    0  501 -0.00000000000E+00  0.00000000000E+00  0.66038353335E+02  0.66038353335E+02  0.00000000000E+00 0.  1.
          1   -1    0    0  502    0  0.00000000000E+00 -0.00000000000E+00 -0.36547238943E+03  0.36547238943E+03  0.00000000000E+00 0. -1.
        -24    2    1    2    0    0  0.84451531037E+02  0.11638800643E+02 -0.51755898466E+02  0.12409559048E+03  0.73847950387E+02 0.  0.
         23    2    1    2    0    0 -0.96753527004E+02 -0.47221274706E+02 -0.18214932433E+03  0.23184083827E+03  0.94766577258E+02 0.  0.
         11    1    3    3    0    0  0.31741187741E+02 -0.31156825330E+02 -0.25721668428E+02  0.51379519174E+02  0.00000000000E+00 0. -1.
        -12    1    3    3    0    0  0.52710343296E+02  0.42795625973E+02 -0.26034230038E+02  0.72716071308E+02  0.00000000000E+00 0.  1.
        -13    1    4    4    0    0 -0.15989246687E+02 -0.48466856873E+02 -0.29010301484E+02  0.58705108952E+02  0.00000000000E+00 0.  1.
         13    1    4    4    0    0 -0.80764280317E+02  0.12455821669E+01 -0.15313902284E+03  0.17313572932E+03  0.00000000000E+00 0. -1.
         21    1    1    2  502  501  0.12301995967E+02  0.35582474064E+02 -0.65528813297E+02  0.75574314005E+02  0.00000000000E+00 0. -1.
<scales pt_clust_5="13000.00000" pt_clust_6="13000.00000" pt_clust_7="13000.00000" pt_clust_8="13000.00000" pt_clust_9="37.64906"></scales>
<clustering>
<clus scale="   37.649">  2  9  1 -1</clus>
<clus scale="   73.848">  5  6 -1 -1</clus>
<clus scale="   94.767">  7  8 -1 -1</clus>
<clus scale="  117.104">  1  5  2 -1</clus>
<clus scale="   37.649">  2  5  1 -1</clus>
</clustering>
</event>
<event>
 9    1  0.6106093E-005  0.1256542E+03  0.7546771E-02  0.1236637E+00
         -2   -1    0    0    0  501 -0.00000000000E+00  0.00000000000E+00  0.18237281203E+03  0.18237281203E+03  0.00000000000E+00 0.  1.
          1   -1    0    0  502    0  0.00000000000E+00 -0.00000000000E+00 -0.14754003170E+03  0.14754003170E+03  0.00000000000E+00 0. -1.
        -24    2    1    2    0    0 -0.27094185496E+02 -0.48132198630E+02  0.33220895057E+02  0.10402433632E+03  0.81649441187E+02 0.  0.
         23    2    1    2    0    0  0.76348870272E+02  0.82504450583E+02 -0.43315370963E+02  0.15088228080E+03  0.90846612156E+02 0.  0.
         11    1    3    3    0    0 -0.41094854291E+02  0.21034732516E+01 -0.18304209956E+01  0.41189344374E+02  0.00000000000E+00 0. -1.
        -12    1    3    3    0    0  0.14000668795E+02 -0.50235671882E+02  0.35051316052E+02  0.62834991948E+02  0.00000000000E+00 0.  1.
        -11    1    4    4    0    0  0.14462148438E+02  0.45758044608E+02 -0.60167602129E+02  0.76961631543E+02  0.00000000000E+00 0.  1.
         11    1    4    4    0    0  0.61886721834E+02  0.36746405975E+02  0.16852231166E+02  0.73920649258E+02  0.00000000000E+00 0. -1.
         21    1    1    2  502  501 -0.49254684776E+02 -0.34372251953E+02  0.44927256231E+02  0.75006226602E+02  0.00000000000E+00 0.  1.
<scales pt_clust_5="13000.00000" pt_clust_6="13000.00000" pt_clust_7="13000.00000" pt_clust_8="13000.00000" pt_clust_9="60.06226"></scales>
<clustering>
<clus scale="   60.062">  1  9  2 -1</clus>
<clus scale="   81.649">  5  6 -1 -1</clus>
<clus scale="   90.847">  7  8 -1 -1</clus>
<clus scale="  119.174">  1  5  2 -1</clus>
<clus scale="  125.654">  2  5  1 -1</clus>
</clustering>
</event>
<event>
 9    1  0.6106093E-005  0.9321304E+02  0.7546771E-02  0.1298792E+00
          1   -1    0    0  502    0  0.00000000000E+00  0.00000000000E+00  0.99202889759E+02  0.99202889759E+02  0.00000000000E+00 0. -1.
         -2   -1    0    0    0  501 -0.00000000000E+00 -0.00000000000E+00 -0.32729044320E+03  0.32729044320E+03  0.00000000000E+00 0.  1.
        -24    2    1    2    0    0  0.36266723571E+02 -0.16045802216E+02 -0.26376269682E+03  0.27824680150E+03  0.79232438453E+02 0.  0.
         23    2    1    2    0    0 -0.16828811940E+02  0.33095731253E+02  0.61396878069E+02  0.11177544532E+03  0.85706692864E+02 0.  0.
         11    1    3    3    0    0  0.10942070499E+02 -0.20315875700E+02 -0.13631837957E+02  0.26800946221E+02  0.00000000000E+00 0. -1.
        -12    1    3    3    0    0  0.25324653071E+02  0.42700734840E+01 -0.25013085886E+03  0.25144585528E+03  0.00000000000E+00 0.  1.
        -13    1    4    4    0    0 -0.13722090901E+02  0.61787166540E+02  0.33387726838E+02  0.71558996856E+02  0.00000000000E+00 0. -1.
         13    1    4    4    0    0 -0.31067210397E+01 -0.28691435287E+02  0.28009151231E+02  0.40216448465E+02  0.00000000000E+00 0.  1.
         21    1    1    2  502  501 -0.19437911630E+02 -0.17049929037E+02 -0.25721734694E+02  0.36471086142E+02  0.00000000000E+00 0. -1.
<scales pt_clust_5="13000.00000" pt_clust_6="13000.00000" pt_clust_7="13000.00000" pt_clust_8="13000.00000" pt_clust_9="25.85600"></scales>
<clustering>
<clus scale="   25.856">  2  9  1 -1</clus>
<clus scale="   79.232">  5  6 -1 -1</clus>
<clus scale="   85.707">  7  8 -1 -1</clus>
<clus scale="   87.297">  2  5  1 -1</clus>
<clus scale="   93.213">  1  5  2 -1</clus>
</clustering>
</event>
<event>
 9    1  0.6106093E-005  0.1811823E+03  0.7546771E-02  0.1192123E+00
          1   -1    0    0  502    0  0.00000000000E+00  0.00000000000E+00  0.52620276490E+03  0.52620276490E+03  0.00000000000E+00 0. -1.
         -2   -1    0    0    0  501 -0.00000000000E+00 -0.00000000000E+00 -0.99345643672E+02  0.99345643672E+02  0.00000000000E+00 0.  1.
         23    2    1    2    0    0  0.44886450800E+02  0.88497566154E+01  0.58628256071E+02  0.11778822960E+03  0.91343762593E+02 0.  0.
        -24    2    1    2    0    0 -0.63652839558E+02 -0.16380751225E+03  0.23144122344E+03  0.30021514217E+03  0.75362501453E+02 0.  0.
         13    1    4    4    0    0 -0.73871817267E+02 -0.94509730016E+02  0.12941925096E+03  0.17646097861E+03  0.00000000000E+00 0. -1.
        -14    1    4    4    0    0  0.10218977708E+02 -0.69297782232E+02  0.10202197249E+03  0.12375416356E+03  0.00000000000E+00 0.  1.
        -13    1    3    3    0    0  0.16060152943E+02 -0.25798182928E+02 -0.13086042953E+02  0.33086542205E+02  0.00000000000E+00 0.  1.
         13    1    3    3    0    0  0.28826297858E+02  0.34647939543E+02  0.71714299025E+02  0.84701687394E+02  0.00000000000E+00 0. -1.
         21    1    1    2  502  501  0.18766388758E+02  0.15495775563E+03  0.13678764172E+03  0.20754503681E+03  0.00000000000E+00 0. -1.
<scales pt_clust_5="13000.00000" pt_clust_6="13000.00000" pt_clust_7="13000.00000" pt_clust_8="13000.00000" pt_clust_9="164.76501"></scales>
<clustering>
<clus scale="   75.363">  5  6 -1 -1</clus>
<clus scale="   91.344">  7  8 -1 -1</clus>
<clus scale="  102.161">  2  7  1 -1</clus>
<clus scale="  164.765">  2  9  1 -1</clus>
<clus scale="  181.182">  1  5  2 -1</clus>
</clustering>
</event>
<event>
 9    1  0.6106093E-005  0.1147183E+03  0.7546771E-02  0.1265547E+00
         -2   -1    0    0    0  501 -0.00000000000E+00  0.00000000000E+00  0.47031741153E+03  0.47031741153E+03  0.00000000000E+00 0.  1.
          1   -1    0    0  502    0  0.00000000000E+00 -0.00000000000E+00 -0.51705506309E+02  0.51705506309E+02  0.00000000000E+00 0. -1.
        -24    2    1    2    0    0  0.59641552029E+01  0.44646262815E+01  0.27383886587E+03  0.28552536727E+03  0.80507806196E+02 0.  0.
         23    2    1    2    0    0  0.33154586755E+02 -0.33181753714E+02  0.47700272248E+02  0.12797072673E+03  0.10909140903E+03 0.  0.
         13    1    3    3    0    0  0.42113384057E+02  0.32518494073E+01  0.18162076701E+03  0.18646773086E+03  0.00000000000E+00 0. -1.
        -14    1    3    3    0    0 -0.36149228854E+02  0.12127768742E+01  0.92218098858E+02  0.99057636412E+02  0.00000000000E+00 0.  1.
        -13    1    4    4    0    0  0.44466546747E+02  0.18532869933E+02 -0.10490988559E+02  0.49303163068E+02  0.00000000000E+00 0. -1.
         13    1    4    4    0    0 -0.11311959992E+02 -0.51714623647E+02  0.58191260807E+02  0.78667563660E+02  0.00000000000E+00 0.  1.
         21    1    1    2  502  501 -0.39118741958E+02  0.28717127433E+02  0.97072767103E+02  0.10852682384E+03  0.00000000000E+00 0.  1.
<scales pt_clust_5="13000.00000" pt_clust_6="13000.00000" pt_clust_7="13000.00000" pt_clust_8="13000.00000" pt_clust_9="48.52782"></scales>
<clustering>
<clus scale="   48.528">  1  9  2 -1</clus>
<clus scale="   80.508">  5  6 -1 -1</clus>
<clus scale="   87.982">  1  5  2 -1</clus>
<clus scale="  109.091">  7  8 -1 -1</clus>
<clus scale="  114.718">  2  5  1 -1</clus>
</clustering>
</event>
<event>
 9    1  0.6106093E-005  0.1693392E+03  0.7546771E-02  0.1180013E+00
          1   -1    0    0  502    0  0.00000000000E+00  0.00000000000E+00  0.12178348330E+03  0.12178348330E+03  0.00000000000E+00 0. -1.
         -2   -1    0    0    0  501 -0.00000000000E+00 -0.00000000000E+00 -0.32289935531E+03  0.32289935531E+03  0.00000000000E+00 0.  1.
         23    2    1    2    0    0  0.74728866184E+01  0.11334726968E+03 -0.13340994433E+03  0.19807037101E+03  0.92359141661E+02 0.  0.
        -24    2    1    2    0    0 -0.20505400029E+01 -0.15902292195E+03 -0.19352719534E+02  0.17987642193E+03  0.81783280650E+02 0.  0.
         11    1    4    4    0    0  0.15257729766E+02 -0.76482017541E+02  0.28352435953E+02  0.82982877446E+02  0.00000000000E+00 0. -1.
        -12    1    4    4    0    0 -0.17308269769E+02 -0.82540904412E+02 -0.47705155487E+02  0.96893544488E+02  0.00000000000E+00 0.  1.
        -13    1    3    3    0    0 -0.19446983835E+01  0.73981221267E+02 -0.18563065284E+02  0.76299346948E+02  0.00000000000E+00 0.  1.
         13    1    3    3    0    0  0.94175850019E+01  0.39366048411E+02 -0.11484687904E+03  0.12177102406E+03  0.00000000000E+00 0. -1.
         21    1    1    2  502  501 -0.54223466155E+01  0.45675652274E+02 -0.48353208148E+02  0.66736045670E+02  0.00000000000E+00 0. -1.
<scales pt_clust_5="13000.00000" pt_clust_6="13000.00000" pt_clust_7="13000.00000" pt_clust_8="13000.00000" pt_clust_9="45.99638"></scales>
<clustering>
<clus scale="   45.996">  2  9  1 -1</clus>
<clus scale="   81.783">  5  6 -1 -1</clus>
<clus scale="   92.359">  7  8 -1 -1</clus>
<clus scale="  163.811">  1  5  2 -1</clus>
<clus scale="  163.811">  1  5  2 -1</clus>
</clustering>
</event>
<event>
 9    1  0.6756696E-005  0.2299529E+03  0.7546771E-02  0.1127388E+00
          1   -1    0    0  502    0  0.00000000000E+00  0.00000000000E+00  0.13827322414E+04  0.13827322414E+04  0.00000000000E+00 0. -1.
         -2   -1    0    0    0  501 -0.00000000000E+00 -0.00000000000E+00 -0.86183192202E+02  0.86183192202E+02  0.00000000000E+00 0.  1.
         23    2    1    2    0    0 -0.10308411991E+03 -0.19521718268E+03  0.13342673360E+03  0.27353373712E+03  0.91005098286E+02 0.  0.
        -24    2    1    2    0    0  0.11493813786E+03  0.17552992168E+03  0.11429005986E+04  0.11647708516E+04  0.80298377832E+02 0.  0.
         13    1    4    4    0    0  0.12315702184E+03  0.16629433078E+03  0.11177739838E+04  0.11367674060E+04  0.00000000000E+00 0. -1.
        -14    1    4    4    0    0 -0.82188839829E+01  0.92355908989E+01  0.25126614742E+02  0.28003445531E+02  0.00000000000E+00 0.  1.
        -11    1    3    3    0    0 -0.56057911667E+02 -0.16115901259E+03  0.62142038074E+02  0.18159391426E+03  0.00000000000E+00 0.  1.
         11    1    3    3    0    0 -0.47026208247E+02 -0.34058170085E+02  0.71284695531E+02  0.91939822865E+02  0.00000000000E+00 0. -1.
         21    1    1    2  502  501 -0.11854017947E+02  0.19687260995E+02  0.20221716996E+02  0.30610844895E+02  0.00000000000E+00 0.  1.
<scales pt_clust_5="13000.00000" pt_clust_6="13000.00000" pt_clust_7="13000.00000" pt_clust_8="13000.00000" pt_clust_9="22.98056"></scales>
<clustering>
<clus scale="   22.981">  2  9  1 -1</clus>
<clus scale="   80.298">  5  6 -1 -1</clus>
<clus scale="   91.005">  7  8 -1 -1</clus>
<clus scale="  225.930">  1  5  2 -1</clus>
<clus scale="  225.930">  1  5  2 -1</clus>
</clustering>
</event>
<event>
 9    1  0.6106093E-005  0.1194707E+03  0.7546771E-02  0.1246440E+00
          1   -1    0    0  502    0  0.00000000000E+00  0.00000000000E+00  0.25241535856E+03  0.25241535856E+03  0.00000000000E+00 0. -1.
         -2   -1    0    0    0  501 -0.00000000000E+00 -0.00000000000E+00 -0.52571246113E+03  0.52571246113E+03  0.00000000000E+00 0.  1.
         23    2    1    2    0    0  0.71458323892E+00 -0.82011173942E+00 -0.20152108024E+03  0.22125621038E+03  0.91336639086E+02 0.  0.
        -24    2    1    2    0    0 -0.80267106233E+02  0.17894007960E+02  0.22251945240E+03  0.25153581334E+03  0.83620301556E+02 0.  0.
         11    1    4    4    0    0 -0.73398635737E+02 -0.18728989370E+02  0.17821175700E+03  0.19364288034E+03  0.00000000000E+00 0. -1.
        -12    1    4    4    0    0 -0.68684704958E+01  0.36622997331E+02  0.44307695402E+02  0.57892933008E+02  0.00000000000E+00 0.  1.
        -11    1    3    3    0    0 -0.38986620211E+02  0.21614806638E+02 -0.82042085661E+02  0.93370553394E+02  0.00000000000E+00 0.  1.
         11    1    3    3    0    0  0.39701203450E+02 -0.22434918377E+02 -0.11947899458E+03  0.12788565699E+03  0.00000000000E+00 0. -1.
         21    1    1    2  502  501  0.79552522994E+02 -0.17073896221E+02 -0.29429547473E+03  0.30533579596E+03  0.00000000000E+00 0.  1.
<scales pt_clust_5="13000.00000" pt_clust_6="13000.00000" pt_clust_7="13000.00000" pt_clust_8="13000.00000" pt_clust_9="81.36413"></scales>
<clustering>
<clus scale="   81.364">  2  9  1 -1</clus>
<clus scale="   83.620">  5  6 -1 -1</clus>
<clus scale="   91.337">  7  8 -1 -1</clus>
<clus scale="  113.680">  1  5  2 -1</clus>
<clus scale="  113.680">  1  5  2 -1</clus>
</clustering>
</event>
<event>
 9    1  0.6106093E-005  0.1020716E+03  0.7546771E-02  0.1278424E+00
         -2   -1    0    0    0  501 -0.00000000000E+00  0.00000000000E+00  0.33734711072E+02  0.33734711072E+02  0.00000000000E+00 0.  1.
          1   -1    0    0  502    0  0.00000000000E+00 -0.00000000000E+00 -0.63235567201E+03  0.63235567201E+03  0.00000000000E+00 0. -1.
        -24    2    1    2    0    0 -0.38890261061E+02  0.11604298406E+02 -0.23860662068E+03  0.26135908512E+03  0.98632346605E+02 0.  0.
         23    2    1    2    0    0  0.13927923168E+02 -0.14091373253E+02 -0.36648287804E+03  0.37882481547E+03  0.93840220996E+02 0.  0.
         13    1    3    3    0    0 -0.33979901149E+02  0.51776964805E+02 -0.17813720549E+03  0.18859573629E+03  0.00000000000E+00 0. -1.
        -14    1    3    3    0    0 -0.49103599116E+01 -0.40172666398E+02 -0.60469415186E+02  0.72763348830E+02  0.00000000000E+00 0.  1.
        -11    1    4    4    0    0 -0.25215671691E+02  0.28056169480E+02 -0.16747910785E+03  0.17167478065E+03  0.00000000000E+00 0. -1.
         11    1    4    4    0    0  0.39143594859E+02 -0.42147542734E+02 -0.19900377019E+03  0.20715003482E+03  0.00000000000E+00 0.  1.
         21    1    1    2  502  501  0.24962337893E+02  0.24870748471E+01  0.64685377744E+01  0.25906482496E+02  0.00000000000E+00 0.  1.
<scales pt_clust_5="13000.00000" pt_clust_6="13000.00000" pt_clust_7="13000.00000" pt_clust_8="13000.00000" pt_clust_9="25.08593"></scales>
<clustering>
<clus scale="   25.086">  1  9  2 -1</clus>
<clus scale="   93.840">  7  8 -1 -1</clus>
<clus scale="   97.449">  2  7  1 -1</clus>
<clus scale="   98.632">  5  6 -1 -1</clus>
<clus scale="   97.449">  2  5  1 -1</clus>
</clustering>
</event>
<event>
 9    1  0.6106093E-005  0.9867657E+02  0.7546771E-02  0.1290364E+00
         -2   -1    0    0    0  501 -0.00000000000E+00  0.00000000000E+00  0.43664816900E+03  0.43664816900E+03  0.00000000000E+00 0.  1.
          1   -1    0    0  502    0  0.00000000000E+00 -0.00000000000E+00 -0.38797481303E+03  0.38797481303E+03  0.00000000000E+00 0. -1.
         23    2    1    2    0    0 -0.31021244506E+01 -0.32095283102E+02  0.13900710028E+03  0.17187899029E+03  0.95810662249E+02 0.  0.
        -24    2    1    2    0    0  0.19419372781E+02 -0.15646445548E+02 -0.36417493455E+03  0.37429377587E+03  0.82767894732E+02 0.  0.
         11    1    4    4    0    0  0.50496928244E+02 -0.19301720510E+02 -0.25804036340E+03  0.26364241942E+03  0.00000000000E+00 0. -1.
        -12    1    4    4    0    0 -0.31077555462E+02  0.36552749612E+01 -0.10613457116E+03  0.11065135644E+03  0.00000000000E+00 0.  1.
        -11    1    3    3    0    0  0.40676961005E+02 -0.19149007158E+02  0.30973883590E+02  0.54595614260E+02  0.00000000000E+00 0.  1.
         11    1    3    3    0    0 -0.43779085456E+02 -0.12946275944E+02  0.10803321669E+03  0.11728337603E+03  0.00000000000E+00 0. -1.
         21    1    1    2  502  501 -0.16317248331E+02  0.47741728651E+02  0.27384119024E+03  0.27845021587E+03  0.00000000000E+00 0.  1.
<scales pt_clust_5="13000.00000" pt_clust_6="13000.00000" pt_clust_7="13000.00000" pt_clust_8="13000.00000" pt_clust_9="50.45320"></scales>
<clustering>
<clus scale="   50.453">  1  9  2 -1</clus>
<clus scale="   82.768">  5  6 -1 -1</clus>
<clus scale="   86.069">  2  5  1 -1</clus>
<clus scale="   95.811">  7  8 -1 -1</clus>
<clus scale="   86.069">  2  5  1 -1</clus>
</clustering>
</event>
<event>
 9    1  0.6106093E-005  0.2464167E+03  0.7546771E-02  0.1116194E+00
         -2   -1    0    0    0  501 -0.00000000000E+00  0.00000000000E+00  0.11946559742E+04  0.11946559742E+04  0.00000000000E+00 0.  1.
          1   -1    0    0  502    0  0.00000000000E+00 -0.00000000000E+00 -0.14733565810E+03  0.14733565810E+03  0.00000000000E+00 0. -1.
        -24    2    1    2    0    0  0.15050989707E+03 -0.87556192781E+02  0.43951717411E+03  0.47954029848E+03  0.80400469669E+02 0.  0.
         23    2    1    2    0    0 -0.17204696694E+03  0.17779493579E+03  0.16739611672E+02  0.26415126447E+03  0.91019107294E+02 0.  0.
         13    1    3    3    0    0  0.28284353864E+02 -0.26289795947E+02  0.33499744301E+02  0.51121335201E+02  0.00000000000E+00 0. -1.
        -14    1    3    3    0    0  0.12222554320E+03 -0.61266396834E+02  0.40601742981E+03  0.42841896328E+03  0.00000000000E+00 0.  1.
        -13    1    4    4    0    0 -0.55091115100E+02  0.43720838919E+02 -0.35418203342E+02  0.78746376721E+02  0.00000000000E+00 0.  1.
         13    1    4    4    0    0 -0.11695585184E+03  0.13407409688E+03  0.52157815014E+02  0.18540488774E+03  0.00000000000E+00 0. -1.
         21    1    1    2  502  501  0.21537069872E+02 -0.90238743013E+02  0.59106353029E+03  0.59830006933E+03  0.00000000000E+00 0.  1.
<scales pt_clust_5="13000.00000" pt_clust_6="13000.00000" pt_clust_7="13000.00000" pt_clust_8="13000.00000" pt_clust_9="92.77325"></scales>
<clustering>
<clus scale="   80.400">  5  6 -1 -1</clus>
<clus scale="   91.019">  7  8 -1 -1</clus>
<clus scale="   92.773">  1  9  2 -1</clus>
<clus scale="  242.695">  1  5  2 -1</clus>
<clus scale="  246.417">  2  5  1 -1</clus>
</clustering>
</event>
<event>
 9    1  0.6106093E-005  0.1678291E+03  0.7546771E-02  0.1181951E+00
          3   -1    0    0  502    0  0.00000000000E+00  0.00000000000E+00  0.12520216359E+03  0.12520216359E+03  0.00000000000E+00 0. -1.
         -4   -1    0    0    0  501 -0.00000000000E+00 -0.00000000000E+00 -0.37563676250E+03  0.37563676250E+03  0.00000000000E+00 0.  1.
         23    2    1    2    0    0 -0.14033067551E+03  0.53912471601E+02 -0.14895589643E+03  0.23139473606E+03  0.93575700439E+02 0.  0.
        -24    2    1    2    0    0  0.11996383994E+03 -0.62452577589E+02  0.79557210375E+01  0.15780354129E+03  0.80913637953E+02 0.  0.
         13    1    4    4    0    0  0.24168228824E+02  0.66446426737E+01 -0.24769151490E+02  0.35238692176E+02  0.00000000000E+00 0. -1.
        -14    1    4    4    0    0  0.95795611117E+02 -0.69097220263E+02  0.32724872528E+02  0.12256484912E+03  0.00000000000E+00 0.  1.
        -11    1    3    3    0    0 -0.21302170676E+02  0.26617289024E+02 -0.89093691053E+02  0.95393649348E+02  0.00000000000E+00 0.  1.
         11    1    3    3    0    0 -0.11902850483E+03  0.27295182577E+02 -0.59862205377E+02  0.13600108671E+03  0.00000000000E+00 0. -1.
         21    1    1    2  502  501  0.20366835567E+02  0.85401059882E+01 -0.10943442351E+03  0.11164064874E+03  0.00000000000E+00 0.  1.
<scales pt_clust_5="13000.00000" pt_clust_6="13000.00000" pt_clust_7="13000.00000" pt_clust_8="13000.00000" pt_clust_9="22.08487"></scales>
<clustering>
<clus scale="   22.085">  2  9  1 -1</clus>
<clus scale="   80.914">  5  6 -1 -1</clus>
<clus scale="   93.576">  7  8 -1 -1</clus>
<clus scale="  161.112">  1  5  2 -1</clus>
<clus scale="  161.112">  1  5  2 -1</clus>
</clustering>
</event>
<event>
 9    1  0.6106093E-005  0.1252724E+03  0.7546771E-02  0.1238920E+00
          1   -1    0    0  502    0  0.00000000000E+00  0.00000000000E+00  0.12147787334E+03  0.12147787334E+03  0.00000000000E+00 0. -1.
         -2   -1    0    0    0  501 -0.00000000000E+00 -0.00000000000E+00 -0.22567387549E+03  0.22567387549E+03  0.00000000000E+00 0.  1.
        -24    2    1    2    0    0  0.11230996300E+02 -0.10225690622E+03 -0.86660398765E+02  0.15662506136E+03  0.80241977706E+02 0.  0.
         23    2    1    2    0    0  0.28285182986E+02  0.71429063610E+02  0.25436070108E+02  0.12450813682E+03  0.94620926689E+02 0.  0.
         13    1    3    3    0    0  0.35987229850E+02 -0.63532362578E+02 -0.20090959726E+02  0.75730366893E+02  0.00000000000E+00 0. -1.
        -14    1    3    3    0    0 -0.24756233550E+02 -0.38724543640E+02 -0.66569439038E+02  0.80894694471E+02  0.00000000000E+00 0.  1.
        -11    1    4    4    0    0  0.55369929322E+02  0.73480380301E+02  0.30394486627E+02  0.96896956503E+02  0.00000000000E+00 0. -1.
         11    1    4    4    0    0 -0.27084746335E+02 -0.20513166910E+01 -0.49584165191E+01  0.27611180319E+02  0.00000000000E+00 0.  1.
         21    1    1    2  502  501 -0.39516179287E+02  0.30827842609E+02 -0.42971673496E+02  0.66018550638E+02  0.00000000000E+00 0.  1.
<scales pt_clust_5="13000.00000" pt_clust_6="13000.00000" pt_clust_7="13000.00000" pt_clust_8="13000.00000" pt_clust_9="50.11870"></scales>
<clustering>
<clus scale="   50.119">  2  9  1 -1</clus>
<clus scale="   80.242">  5  6 -1 -1</clus>
<clus scale="   94.621">  7  8 -1 -1</clus>
<clus scale="  114.799">  2  5  1 -1</clus>
<clus scale="  125.272">  1  5  2 -1</clus>
</clustering>
</event>
<event>
 9    1  0.6106093E-005  0.2363111E+03  0.7546771E-02  0.1122937E+00
         -2   -1    0    0    0  501 -0.00000000000E+00  0.00000000000E+00  0.25332588486E+03  0.25332588486E+03  0.00000000000E+00 0.  1.
          1   -1    0    0  502    0  0.00000000000E+00 -0.00000000000E+00 -0.50871414995E+03  0.50871414995E+03  0.00000000000E+00 0. -1.
         23    2    1    2    0    0  0.22121611658E+03 -0.60605496126E+02  0.11304174936E+03  0.27153186745E+03  0.91331930594E+02 0.  0.
        -24    2    1    2    0    0 -0.21556096831E+03  0.20410624364E+02 -0.38304301261E+03  0.44736714126E+03  0.80822552102E+02 0.  0.
         13    1    4    4    0    0 -0.21999789387E+03  0.28548675716E+02 -0.36702618367E+03  0.42886165566E+03  0.00000000000E+00 0. -1.
        -14    1    4    4    0    0  0.44369255633E+01 -0.81380513523E+01 -0.16016828939E+02  0.18505485606E+02  0.00000000000E+00 0.  1.
        -11    1    3    3    0    0  0.13073641982E+02 -0.16830502869E+02  0.42325855071E+02  0.47388436870E+02  0.00000000000E+00 0. -1.
         11    1    3    3    0    0  0.20814247460E+03 -0.43774993257E+02  0.70715894293E+02  0.22414343058E+03  0.00000000000E+00 0.  1.
         21    1    1    2  502  501 -0.56551482689E+01  0.40194871763E+02  0.14612998149E+02  0.43141026099E+02  0.00000000000E+00 0.  1.
<scales pt_clust_5="13000.00000" pt_clust_6="13000.00000" pt_clust_7="13000.00000" pt_clust_8="13000.00000" pt_clust_9="40.59074"></scales>
<clustering>
<clus scale="   40.591">  1  9  2 -1</clus>
<clus scale="   80.823">  5  6 -1 -1</clus>
<clus scale="   91.332">  7  8 -1 -1</clus>
<clus scale="  232.452">  2  5  1 -1</clus>
<clus scale="  232.452">  2  5  1 -1</clus>
</clustering>
</event>
<event>
 9    1  0.6106093E-005  0.1266274E+03  0.7546771E-02  0.1235603E+00
          1   -1    0    0  502    0  0.00000000000E+00  0.00000000000E+00  0.95640546820E+02  0.95640546820E+02  0.00000000000E+00 0. -1.
         -2   -1    0    0    0  501 -0.00000000000E+00 -0.00000000000E+00 -0.39678030582E+03  0.39678030582E+03  0.00000000000E+00 0.  1.
        -24    2    1    2    0    0  0.21195934634E+02  0.10156654123E+03 -0.18080853102E+03  0.22215793240E+03  0.76794479585E+02 0.  0.
         23    2    1    2    0    0 -0.63993732544E+01 -0.87423812684E+02  0.22136373036E+02  0.12633247753E+03  0.88238318582E+02 0.  0.
         13    1    3    3    0    0  0.29734409562E+01  0.22744254176E+02  0.12105168774E+01  0.22969714849E+02  0.00000000000E+00 0. -1.
        -14    1    3    3    0    0  0.18222493678E+02  0.78822287055E+02 -0.18201904790E+03  0.19918821755E+03  0.00000000000E+00 0.  1.
        -13    1    4    4    0    0  0.30928268828E+02 -0.59499210130E+02  0.38017518457E+02  0.77084664677E+02  0.00000000000E+00 0. -1.
         13    1    4    4    0    0 -0.37327642083E+02 -0.27924602554E+02 -0.15881145420E+02  0.49247812856E+02  0.00000000000E+00 0.  1.
         21    1    1    2  502  501 -0.14796561380E+02 -0.14142728546E+02 -0.14246760101E+03  0.14393044270E+03  0.00000000000E+00 0. -1.
<scales pt_clust_5="13000.00000" pt_clust_6="13000.00000" pt_clust_7="13000.00000" pt_clust_8="13000.00000" pt_clust_9="20.46839"></scales>
<clustering>
<clus scale="   20.468">  2  9  1 -1</clus>
<clus scale="   76.794">  5  6 -1 -1</clus>
<clus scale="   88.238">  7  8 -1 -1</clus>
<clus scale="  118.937">  2  5  1 -1</clus>
<clus scale="  126.627">  1  5  2 -1</clus>
</clustering>
</event>
<event>
 9    1  0.6106093E-005  0.1266650E+03  0.7546771E-02  0.1234208E+00
         -2   -1    0    0    0  501 -0.00000000000E+00  0.00000000000E+00  0.15934071572E+03  0.15934071572E+03  0.00000000000E+00 0.  1.
          1   -1    0    0  502    0  0.00000000000E+00 -0.00000000000E+00 -0.13818659714E+03  0.13818659714E+03  0.00000000000E+00 0. -1.
         23    2    1    2    0    0  0.17955555118E+02 -0.68303651157E+02  0.58303698323E+02  0.12645812834E+03  0.87204049587E+02 0.  0.
        -24    2    1    2    0    0 -0.19481681109E+02  0.10086105002E+03 -0.43854657725E+02  0.13779349743E+03  0.80692810210E+02 0.  0.
         11    1    4    4    0    0  0.29570506539E+02  0.23928115529E+02 -0.22109540202E+02  0.43997742416E+02  0.00000000000E+00 0. -1.
        -12    1    4    4    0    0 -0.49052187648E+02  0.76932934487E+02 -0.21745117522E+02  0.93795755010E+02  0.00000000000E+00 0.  1.
        -11    1    3    3    0    0  0.26789386164E+02 -0.31459960485E+02 -0.14986037650E+02  0.43954313203E+02  0.00000000000E+00 0.  1.
         11    1    3    3    0    0 -0.88338310458E+01 -0.36843690672E+02  0.73289735972E+02  0.82503815137E+02  0.00000000000E+00 0. -1.
         21    1    1    2  502  501  0.15261259906E+01 -0.32557398860E+02  0.67050779831E+01  0.33275687098E+02  0.00000000000E+00 0.  1.
<scales pt_clust_5="13000.00000" pt_clust_6="13000.00000" pt_clust_7="13000.00000" pt_clust_8="13000.00000" pt_clust_9="32.59315"></scales>
<clustering>
<clus scale="   32.593">  1  9  2 -1</clus>
<clus scale="   80.693">  5  6 -1 -1</clus>
<clus scale="   87.204">  7  8 -1 -1</clus>
<clus scale="  122.273">  2  5  1 -1</clus>
<clus scale="  122.273">  2  5  1 -1</clus>
</clustering>
</event>
<event>
 9    1  0.6106093E-005  0.1201089E+03  0.7546771E-02  0.1250869E+00
          1   -1    0    0  502    0  0.00000000000E+00  0.00000000000E+00  0.52313492744E+03  0.52313492744E+03  0.00000000000E+00 0. -1.
         -2   -1    0    0    0  501 -0.00000000000E+00 -0.00000000000E+00 -0.47923966343E+02  0.47923966343E+02  0.00000000000E+00 0.  1.
        -24    2    1    2    0    0  0.63779639858E+02  0.14143337442E+02  0.53603570147E+02  0.11084301519E+03  0.71728340496E+02 0.  0.
         23    2    1    2    0    0 -0.75828613847E+02  0.78028519779E+01  0.41733267971E+03  0.43481733216E+03  0.95334587732E+02 0.  0.
         11    1    3    3    0    0  0.36478962971E+02  0.33177427270E+02  0.18903545057E+01  0.49346021723E+02  0.00000000000E+00 0. -1.
        -12    1    3    3    0    0  0.27300676886E+02 -0.19034089827E+02  0.51713215641E+02  0.61496993471E+02  0.00000000000E+00 0.  1.
        -13    1    4    4    0    0 -0.68259994349E+02 -0.35403852158E+02  0.23401728655E+03  0.24632691688E+03  0.00000000000E+00 0.  1.
         13    1    4    4    0    0 -0.75686194980E+01  0.43206704136E+02  0.18331539316E+03  0.18849041528E+03  0.00000000000E+00 0. -1.
         21    1    1    2  502  501  0.12048973989E+02 -0.21946189420E+02  0.42747112371E+01  0.25398546424E+02  0.00000000000E+00 0.  1.
<scales pt_clust_5="13000.00000" pt_clust_6="13000.00000" pt_clust_7="13000.00000" pt_clust_8="13000.00000" pt_clust_9="25.03623"></scales>
<clustering>
<clus scale="   25.036">  2  9  1 -1</clus>
<clus scale="   71.728">  5  6 -1 -1</clus>
<clus scale="   95.335">  7  8 -1 -1</clus>
<clus scale="  102.384">  2  5  1 -1</clus>
<clus scale="  120.109">  1  5  2 -1</clus>
</clustering>
</event>
<event>
 9    1  0.6106093E-005  0.1091666E+03  0.7546771E-02  0.1270858E+00
          3   -1    0    0  502    0  0.00000000000E+00  0.00000000000E+00  0.19360632895E+03  0.19360632895E+03  0.00000000000E+00 0. -1.
         -4   -1    0    0    0  501 -0.00000000000E+00 -0.00000000000E+00 -0.17971355587E+03  0.17971355587E+03  0.00000000000E+00 0.  1.
        -24    2    1    2    0    0 -0.34324265155E+02 -0.23418271334E+02 -0.11972729213E+03  0.15025924829E+03  0.80725749334E+02 0.  0.
         23    2    1    2    0    0  0.45493942010E+02  0.85981521661E+00  0.15512075715E+03  0.18995587287E+03  0.99751422523E+02 0.  0.
         13    1    3    3    0    0 -0.18814619749E+02  0.29119355371E+02 -0.34239905595E+02  0.48726767887E+02  0.00000000000E+00 0. -1.
        -14    1    3    3    0    0 -0.15509645406E+02 -0.52537626705E+02 -0.85487386537E+02  0.10153248041E+03  0.00000000000E+00 0.  1.
        -11    1    4    4    0    0  0.22806738715E+02 -0.48769564459E+02  0.62854774761E+02  0.82760742255E+02  0.00000000000E+00 0.  1.
         11    1    4    4    0    0  0.22687203295E+02  0.49629379676E+02  0.92265982391E+02  0.10719513061E+03  0.00000000000E+00 0. -1.
         21    1    1    2  502  501 -0.11169676855E+02  0.22558456118E+02 -0.21500691942E+02  0.33104763667E+02  0.00000000000E+00 0. -1.
<scales pt_clust_5="13000.00000" pt_clust_6="13000.00000" pt_clust_7="13000.00000" pt_clust_8="13000.00000" pt_clust_9="25.17232"></scales>
<clustering>
<clus scale="   25.172">  2  9  1 -1</clus>
<clus scale="   80.726">  5  6 -1 -1</clus>
<clus scale="   92.107">  2  5  1 -1</clus>
<clus scale="   99.751">  7  8 -1 -1</clus>
<clus scale="  109.167">  1  5  2 -1</clus>
</clustering>
</event>
<event>
 9    1  0.6106093E-005  0.1179722E+03  0.7546771E-02  0.1250311E+00
         -2   -1    0    0    0  501 -0.00000000000E+00  0.00000000000E+00  0.12186659930E+03  0.12186659930E+03  0.00000000000E+00 0.  1.
          1   -1    0    0  502    0  0.00000000000E+00 -0.00000000000E+00 -0.19215301143E+03  0.19215301143E+03  0.00000000000E+00 0. -1.
        -24    2    1    2    0    0 -0.82990050136E+01  0.86245875116E+02  0.46835326018E+02  0.12779833407E+03  0.81434894059E+02 0.  0.
         23    2    1    2    0    0  0.20459583640E+02 -0.66291050135E+02 -0.11417568133E+03  0.16266806110E+03  0.92799321135E+02 0.  0.
         13    1    3    3    0    0 -0.30746648562E+02  0.25786139159E+02 -0.10527526777E+02  0.41486265083E+02  0.00000000000E+00 0. -1.
        -14    1    3    3    0    0  0.22447643549E+02  0.60459735957E+02  0.57362852794E+02  0.86312068991E+02  0.00000000000E+00 0.  1.
        -13    1    4    4    0    0 -0.31704193961E+02 -0.50495664866E+02 -0.73598509130E+02  0.94719103834E+02  0.00000000000E+00 0. -1.
         13    1    4    4    0    0  0.52163777600E+02 -0.15795385269E+02 -0.40577172198E+02  0.67948957262E+02  0.00000000000E+00 0.  1.
         21    1    1    2  502  501 -0.12160578626E+02 -0.19954824980E+02 -0.29460568217E+01  0.23553215562E+02  0.00000000000E+00 0. -1.
<scales pt_clust_5="13000.00000" pt_clust_6="13000.00000" pt_clust_7="13000.00000" pt_clust_8="13000.00000" pt_clust_9="23.36824"></scales>
<clustering>
<clus scale="   23.368">  1  9  2 -1</clus>
<clus scale="   81.435">  5  6 -1 -1</clus>
<clus scale="   92.799">  7  8 -1 -1</clus>
<clus scale="  109.258">  1  5  2 -1</clus>
<clus scale="  117.972">  2  5  1 -1</clus>
</clustering>
</event>
<event>
 9    1  0.6106093E-005  0.1163298E+03  0.7546771E-02  0.1252670E+00
          1   -1    0    0  502    0  0.00000000000E+00  0.00000000000E+00  0.36575011553E+03  0.36575011553E+03  0.00000000000E+00 0. -1.
         -2   -1    0    0    0  501 -0.00000000000E+00 -0.00000000000E+00 -0.12277998591E+03  0.12277998591E+03  0.00000000000E+00 0.  1.
        -24    2    1    2    0    0  0.38331372470E+02 -0.81105626297E+02 -0.48867988844E+02  0.13085738662E+03  0.81781162673E+02 0.  0.
         23    2    1    2    0    0 -0.47066408448E+02 -0.19170308012E+02  0.12860966277E+03  0.16590438427E+03  0.91657361129E+02 0.  0.
         13    1    3    3    0    0  0.59398727765E+02 -0.76360193295E+02 -0.27728673059E+02  0.10063780249E+03  0.00000000000E+00 0. -1.
        -14    1    3    3    0    0 -0.21067355295E+02 -0.47454330022E+01 -0.21139315785E+02  0.30219584136E+02  0.00000000000E+00 0.  1.
        -11    1    4    4    0    0 -0.71339658481E+02 -0.72050980333E+00  0.10672203820E+03  0.12837234688E+03  0.00000000000E+00 0.  1.
         11    1    4    4    0    0  0.24273250033E+02 -0.18449798209E+02  0.21887624565E+02  0.37532037385E+02  0.00000000000E+00 0. -1.
         21    1    1    2  502  501  0.87350359780E+01  0.10027593431E+03  0.16322845569E+03  0.19176833055E+03  0.00000000000E+00 0. -1.
<scales pt_clust_5="13000.00000" pt_clust_6="13000.00000" pt_clust_7="13000.00000" pt_clust_8="13000.00000" pt_clust_9="100.65567"></scales>
<clustering>
<clus scale="   81.781">  5  6 -1 -1</clus>
<clus scale="   91.657">  7  8 -1 -1</clus>
<clus scale="  100.656">  1  9  2 -1</clus>
<clus scale="  108.719">  2  5  1 -1</clus>
<clus scale="  100.656">  1  5  2 -1</clus>
</clustering>
</event>
<event>
 9    1  0.6106093E-005  0.1081302E+03  0.7546771E-02  0.1268452E+00
          1   -1    0    0  502    0  0.00000000000E+00  0.00000000000E+00  0.16584204379E+03  0.16584204379E+03  0.00000000000E+00 0. -1.
         -2   -1    0    0    0  501 -0.00000000000E+00 -0.00000000000E+00 -0.95634540751E+02  0.95634540751E+02  0.00000000000E+00 0.  1.
         23    2    1    2    0    0  0.23771773522E+02  0.68221447190E+02  0.21052767528E+00  0.11600884465E+03  0.90767530772E+02 0.  0.
        -24    2    1    2    0    0 -0.28290700097E+02 -0.34219176277E+02  0.39958369665E+02  0.99872861261E+02  0.80041247948E+02 0.  0.
         13    1    4    4    0    0 -0.32679004077E+02 -0.92191755587E+01  0.59047207928E+02  0.68113752426E+02  0.00000000000E+00 0. -1.
        -14    1    4    4    0    0  0.43883039804E+01 -0.25000000719E+02 -0.19088838263E+02  0.31759108835E+02  0.00000000000E+00 0.  1.
        -13    1    3    3    0    0 -0.88909180976E+01  0.22095566993E+02  0.40232783831E+02  0.46754030844E+02  0.00000000000E+00 0. -1.
         13    1    3    3    0    0  0.32662691619E+02  0.46125880198E+02 -0.40022256156E+02  0.69254813809E+02  0.00000000000E+00 0.  1.
         21    1    1    2  502  501  0.45189265749E+01 -0.34002270913E+02  0.30038605697E+02  0.45594878626E+02  0.00000000000E+00 0.  1.
<scales pt_clust_5="13000.00000" pt_clust_6="13000.00000" pt_clust_7="13000.00000" pt_clust_8="13000.00000" pt_clust_9="34.30124"></scales>
<clustering>
<clus scale="   34.301">  1  9  2 -1</clus>
<clus scale="   80.041">  5  6 -1 -1</clus>
<clus scale="   90.768">  7  8 -1 -1</clus>
<clus scale="   99.298">  1  5  2 -1</clus>
<clus scale="   34.301">  1  5  2 -1</clus>
</clustering>
</event>
<event>
 9    1  0.6106093E-005  0.1082482E+03  0.7546771E-02  0.1268456E+00
         -2   -1    0    0    0  501 -0.00000000000E+00  0.00000000000E+00  0.48605137468E+03  0.48605137468E+03  0.00000000000E+00 0.  1.
          1   -1    0    0  502    0  0.00000000000E+00 -0.00000000000E+00 -0.17324890500E+03  0.17324890500E+03  0.00000000000E+00 0. -1.
        -24    2    1    2    0    0  0.51649795203E+01  0.40772968580E+02  0.32447580524E+03  0.33715605889E+03  0.81856874354E+02 0.  0.
         23    2    1    2    0    0  0.22680078841E+02 -0.51975880049E+02 -0.14735859328E+03  0.18317896735E+03  0.92866037846E+02 0.  0.
         11    1    3    3    0    0  0.30603419548E+02 -0.88293593762E+01  0.16932296760E+03  0.17229275734E+03  0.00000000000E+00 0. -1.
        -12    1    3    3    0    0 -0.25438440028E+02  0.49602327956E+02  0.15515283764E+03  0.16486330154E+03  0.00000000000E+00 0.  1.
        -13    1    4    4    0    0  0.30580016156E+02  0.19639984388E+02 -0.57167538644E+02  0.67742112821E+02  0.00000000000E+00 0.  1.
         13    1    4    4    0    0 -0.78999373148E+01 -0.71615864437E+02 -0.90191054632E+02  0.11543685453E+03  0.00000000000E+00 0. -1.
         21    1    1    2  502  501 -0.27845058361E+02  0.11202911469E+02  0.13568525772E+03  0.13896525343E+03  0.00000000000E+00 0.  1.
<scales pt_clust_5="13000.00000" pt_clust_6="13000.00000" pt_clust_7="13000.00000" pt_clust_8="13000.00000" pt_clust_9="30.01420"></scales>
<clustering>
<clus scale="   30.014">  1  9  2 -1</clus>
<clus scale="   81.857">  5  6 -1 -1</clus>
<clus scale="   92.866">  7  8 -1 -1</clus>
<clus scale="   98.965">  1  5  2 -1</clus>
<clus scale="  108.248">  2  5  1 -1</clus>
</clustering>
</event>
<event>
 9    1  0.6106093E-005  0.1372810E+03  0.7546771E-02  0.1219142E+00
         -2   -1    0    0    0  501 -0.00000000000E+00  0.00000000000E+00  0.53350916014E+02  0.53350916014E+02  0.00000000000E+00 0.  1.
          1   -1    0    0  502    0  0.00000000000E+00 -0.00000000000E+00 -0.48517280138E+03  0.48517280138E+03  0.00000000000E+00 0. -1.
        -24    2    1    2    0    0 -0.42095467334E+02 -0.98138926698E+02 -0.10738844938E+03  0.17235123282E+03  0.82276309403E+02 0.  0.
         23    2    1    2    0    0  0.15917797829E+02  0.10009097828E+03 -0.30279213253E+03  0.33215150721E+03  0.91487529183E+02 0.  0.
         11    1    3    3    0    0 -0.41526666955E+02 -0.25241092792E+02 -0.81694711395E+02  0.95055787324E+02  0.00000000000E+00 0. -1.
        -12    1    3    3    0    0 -0.56880037891E+00 -0.72897833906E+02 -0.25693737986E+02  0.77295445492E+02  0.00000000000E+00 0.  1.
        -11    1    4    4    0    0 -0.27258068690E+02  0.56570955372E+02 -0.83656871204E+02  0.10460280780E+03  0.00000000000E+00 0.  1.
         11    1    4    4    0    0  0.43175866520E+02  0.43520022907E+02 -0.21913526133E+03  0.22754869941E+03  0.00000000000E+00 0. -1.
         21    1    1    2  502  501  0.26177669505E+02 -0.19520515809E+01 -0.21641303450E+02  0.34020977368E+02  0.00000000000E+00 0. -1.
<scales pt_clust_5="13000.00000" pt_clust_6="13000.00000" pt_clust_7="13000.00000" pt_clust_8="13000.00000" pt_clust_9="26.25035"></scales>
<clustering>
<clus scale="   26.250">  1  9  2 -1</clus>
<clus scale="   82.276">  5  6 -1 -1</clus>
<clus scale="   91.488">  7  8 -1 -1</clus>
<clus scale="  131.322">  1  5  2 -1</clus>
<clus scale="  137.281">  2  5  1 -1</clus>
</clustering>
</event>
<event>
 9    1  0.6106093E-005  0.1304992E+03  0.7546771E-02  0.1229079E+00
          1   -1    0    0  502    0  0.00000000000E+00  0.00000000000E+00  0.48627512975E+03  0.48627512975E+03  0.00000000000E+00 0. -1.
         -2   -1    0    0    0  501 -0.00000000000E+00 -0.00000000000E+00 -0.84756889989E+02  0.84756889989E+02  0.00000000000E+00 0.  1.
        -24    2    1    2    0    0 -0.69463153829E+02 -0.45259008951E+02  0.10979687989E+02  0.11627197192E+03  0.80778154681E+02 0.  0.
         23    2    1    2    0    0  0.90285935309E+02  0.35523511913E+02  0.40601228997E+03  0.42705075867E+03  0.90071642917E+02 0.  0.
         13    1    3    3    0    0 -0.72647242105E+02 -0.29639934002E+02  0.36221382749E+02  0.86418377914E+02  0.00000000000E+00 0. -1.
        -14    1    3    3    0    0  0.31840882762E+01 -0.15619074949E+02 -0.25241694760E+02  0.29853594001E+02  0.00000000000E+00 0.  1.
        -11    1    4    4    0    0  0.90671236520E+02 -0.34692433755E+01  0.24159510822E+03  0.25807267407E+03  0.00000000000E+00 0.  1.
         11    1    4    4    0    0 -0.38530121117E+00  0.38992755288E+02  0.16441718175E+03  0.16897808461E+03  0.00000000000E+00 0. -1.
         21    1    1    2  502  501 -0.20822781480E+02  0.97354970385E+01 -0.15473738205E+02  0.27709289150E+02  0.00000000000E+00 0. -1.
<scales pt_clust_5="13000.00000" pt_clust_6="13000.00000" pt_clust_7="13000.00000" pt_clust_8="13000.00000" pt_clust_9="22.98626"></scales>
<clustering>
<clus scale="   22.986">  2  9  1 -1</clus>
<clus scale="   80.778">  5  6 -1 -1</clus>
<clus scale="   90.072">  7  8 -1 -1</clus>
<clus scale="  124.267">  2  5  1 -1</clus>
<clus scale="  130.499">  1  5  2 -1</clus>
</clustering>
</event>
<event>
 9    1  0.6106093E-005  0.1038492E+03  0.7546771E-02  0.1277362E+00
          1   -1    0    0  502    0  0.00000000000E+00  0.00000000000E+00  0.29648457772E+02  0.29648457772E+02  0.00000000000E+00 0. -1.
         -2   -1    0    0    0  501 -0.00000000000E+00 -0.00000000000E+00 -0.47081130196E+03  0.47081130196E+03  0.00000000000E+00 0.  1.
        -24    2    1    2    0    0  0.41306564257E+02 -0.15073537262E+02 -0.23858962157E+03  0.25525390393E+03  0.79347994132E+02 0.  0.
         23    2    1    2    0    0 -0.56210683870E+02  0.35946207815E+02 -0.16980566937E+03  0.20359439460E+03  0.90360064887E+02 0.  0.
         13    1    3    3    0    0 -0.14219307029E+02 -0.29120167945E+02 -0.68473796523E+02  0.75755090151E+02  0.00000000000E+00 0. -1.
        -14    1    3    3    0    0  0.55525871286E+02  0.14046630683E+02 -0.17011582505E+03  0.17949881378E+03  0.00000000000E+00 0.  1.
        -13    1    4    4    0    0 -0.33662814615E+02  0.59737127114E+02 -0.15091554870E+03  0.16576251773E+03  0.00000000000E+00 0. -1.
         13    1    4    4    0    0 -0.22547869255E+02 -0.23790919299E+02 -0.18890120667E+02  0.37831876874E+02  0.00000000000E+00 0.  1.
         21    1    1    2  502  501  0.14904119613E+02 -0.20872670553E+02 -0.32767553247E+02  0.41611461200E+02  0.00000000000E+00 0.  1.
<scales pt_clust_5="13000.00000" pt_clust_6="13000.00000" pt_clust_7="13000.00000" pt_clust_8="13000.00000" pt_clust_9="25.64763"></scales>
<clustering>
<clus scale="   25.648">  1  9  2 -1</clus>
<clus scale="   79.348">  5  6 -1 -1</clus>
<clus scale="   90.360">  7  8 -1 -1</clus>
<clus scale="   94.424">  2  5  1 -1</clus>
<clus scale="   25.648">  1  5  2 -1</clus>
</clustering>
</event>
<event>
 9    1  0.6106093E-005  0.1755217E+03  0.7546771E-02  0.1172337E+00
         -2   -1    0    0    0  501 -0.00000000000E+00  0.00000000000E+00  0.14331899788E+03  0.14331899788E+03  0.00000000000E+00 0.  1.
          1   -1    0    0  502    0  0.00000000000E+00 -0.00000000000E+00 -0.71184984720E+03  0.71184984720E+03  0.00000000000E+00 0. -1.
        -24    2    1    2    0    0  0.29679616738E+02 -0.19659207967E+03  0.11666995861E+01  0.21455497933E+03  0.80642126268E+02 0.  0.
         23    2    1    2    0    0 -0.47156380209E+02  0.14284584410E+03 -0.55695995319E+03  0.58267992539E+03  0.81748679653E+02 0.  0.
         11    1    3    3    0    0  0.23737424639E+02 -0.23192993901E+02 -0.21554877280E+02  0.39572629798E+02  0.00000000000E+00 0. -1.
        -12    1    3    3    0    0  0.59421920988E+01 -0.17339908577E+03  0.22721576866E+02  0.17498234954E+03  0.00000000000E+00 0.  1.
        -13    1    4    4    0    0 -0.21070235314E+02 -0.42257989909E+01 -0.58538235632E+02  0.62358136792E+02  0.00000000000E+00 0.  1.
         13    1    4    4    0    0 -0.26086144895E+02  0.14707164309E+03 -0.49842171755E+03  0.52032178860E+03  0.00000000000E+00 0. -1.
         21    1    1    2  502  501  0.17476763471E+02  0.53746235574E+02 -0.12737595720E+02  0.57933940350E+02  0.00000000000E+00 0. -1.
<scales pt_clust_5="13000.00000" pt_clust_6="13000.00000" pt_clust_7="13000.00000" pt_clust_8="13000.00000" pt_clust_9="56.51633"></scales>
<clustering>
<clus scale="   56.516">  1  9  2 -1</clus>
<clus scale="   80.642">  5  6 -1 -1</clus>
<clus scale="   81.749">  7  8 -1 -1</clus>
<clus scale="  175.009">  1  5  2 -1</clus>
<clus scale="  175.522">  2  5  1 -1</clus>
</clustering>
</event>
<event>
 9    1  0.6106093E-005  0.2062520E+03  0.7546771E-02  0.1145585E+00
          1   -1    0    0  502    0  0.00000000000E+00  0.00000000000E+00  0.51651003009E+03  0.51651003009E+03  0.00000000000E+00 0. -1.
         -2   -1    0    0    0  501 -0.00000000000E+00 -0.00000000000E+00 -0.40066026660E+03  0.40066026660E+03  0.00000000000E+00 0.  1.
         23    2    1    2    0    0 -0.16878972983E+03  0.16283830560E+02 -0.30841051071E+03  0.36380460443E+03  0.92095662527E+02 0.  0.
        -24    2    1    2    0    0  0.17405265256E+03  0.67724784967E+02  0.42282838343E+03  0.46918020569E+03  0.80406785887E+02 0.  0.
         13    1    4    4    0    0  0.16567769683E+03  0.35503021251E+02  0.33909987121E+03  0.37907556819E+03  0.00000000000E+00 0. -1.
        -14    1    4    4    0    0  0.83749557295E+01  0.32221763716E+02  0.83728512224E+02  0.90104637504E+02  0.00000000000E+00 0.  1.
        -13    1    3    3    0    0 -0.16147010875E+03 -0.12685889309E+02 -0.24487694718E+03  0.29359537985E+03  0.00000000000E+00 0.  1.
         13    1    3    3    0    0 -0.73196210779E+01  0.28969719869E+02 -0.63533563530E+02  0.70209224585E+02  0.00000000000E+00 0. -1.
         21    1    1    2  502  501 -0.52629227300E+01 -0.84008615527E+02  0.14318907688E+01  0.84185486573E+02  0.00000000000E+00 0.  1.
<scales pt_clust_5="13000.00000" pt_clust_6="13000.00000" pt_clust_7="13000.00000" pt_clust_8="13000.00000" pt_clust_9="84.17331"></scales>
<clustering>
<clus scale="   80.407">  5  6 -1 -1</clus>
<clus scale="   84.173">  2  9  1 -1</clus>
<clus scale="   92.096">  7  8 -1 -1</clus>
<clus scale="  201.305">  1  5  2 -1</clus>
<clus scale="  201.305">  1  5  2 -1</clus>
</clustering>
</event>
<event>
 9    1  0.6106093E-005  0.1075893E+03  0.7546771E-02  0.1277401E+00
          1   -1    0    0  502    0  0.00000000000E+00  0.00000000000E+00  0.33875851586E+03  0.33875851586E+03  0.00000000000E+00 0. -1.
         -2   -1    0    0    0  501 -0.00000000000E+00 -0.00000000000E+00 -0.18745075928E+03  0.18745075928E+03  0.00000000000E+00 0.  1.
        -24    2    1    2    0    0 -0.17145262810E+02 -0.17589986492E+02 -0.50435880866E+02  0.98709662429E+02  0.81218542934E+02 0.  0.
         23    2    1    2    0    0 -0.54780139424E+02 -0.27542559097E+02  0.28764785974E+03  0.30671159358E+03  0.87012954132E+02 0.  0.
         11    1    3    3    0    0 -0.40421266129E+01 -0.33462047834E+02  0.97619797842E+01  0.35090507009E+02  0.00000000000E+00 0. -1.
        -12    1    3    3    0    0 -0.13103136197E+02  0.15872061343E+02 -0.60197860650E+02  0.63619155420E+02  0.00000000000E+00 0.  1.
        -13    1    4    4    0    0  0.73157090853E+01  0.23630739325E+02  0.49492778030E+02  0.55330520670E+02  0.00000000000E+00 0.  1.
         13    1    4    4    0    0 -0.62095848509E+02 -0.51173298422E+02  0.23815508171E+03  0.25138107291E+03  0.00000000000E+00 0. -1.
         21    1    1    2  502  501  0.71925402234E+02  0.45132545588E+02 -0.85904222291E+02  0.12078801913E+03  0.00000000000E+00 0.  1.
<scales pt_clust_5="13000.00000" pt_clust_6="13000.00000" pt_clust_7="13000.00000" pt_clust_8="13000.00000" pt_clust_9="63.27877"></scales>
<clustering>
<clus scale="   81.219">  5  6 -1 -1</clus>
<clus scale="   84.852">  2  5  1 -1</clus>
<clus scale="   63.279">  2  9  1 -1</clus>
<clus scale="   87.013">  7  8 -1 -1</clus>
<clus scale="  107.589">  1  5  2 -1</clus>
</clustering>
</event>
<event>
 9    1  0.6106093E-005  0.9690155E+02  0.7546771E-02  0.1291339E+00
         -2   -1    0    0    0  501 -0.00000000000E+00  0.00000000000E+00  0.56820956993E+03  0.56820956993E+03  0.00000000000E+00 0.  1.
          1   -1    0    0  502    0  0.00000000000E+00 -0.00000000000E+00 -0.12588617886E+03  0.12588617886E+03  0.00000000000E+00 0. -1.
         23    2    1    2    0    0 -0.32309926586E+02  0.21632173565E+02  0.45476285883E+03  0.46506515222E+03  0.89243799468E+02 0.  0.
        -24    2    1    2    0    0  0.49906822206E+02  0.52809991242E+02 -0.73437956699E+02  0.13119347536E+03  0.80864135526E+02 0.  0.
         13    1    4    4    0    0  0.38770735071E+02  0.64875253321E+02 -0.82950891932E+02  0.11221772972E+03  0.00000000000E+00 0. -1.
        -14    1    4    4    0    0  0.11136087135E+02 -0.12065262078E+02  0.95129352328E+01  0.18975745636E+02  0.00000000000E+00 0.  1.
        -11    1    3    3    0    0  0.24797743667E+02  0.28059664869E+02  0.13124267499E+03  0.13648044777E+03  0.00000000000E+00 0. -1.
         11    1    3    3    0    0 -0.57107670253E+02 -0.64274913042E+01  0.32352018384E+03  0.32858470445E+03  0.00000000000E+00 0.  1.
         21    1    1    2  502  501 -0.17596895620E+02 -0.74442164807E+02  0.60998488931E+02  0.97837121219E+02  0.00000000000E+00 0. -1.
<scales pt_clust_5="13000.00000" pt_clust_6="13000.00000" pt_clust_7="13000.00000" pt_clust_8="13000.00000" pt_clust_9="76.49370"></scales>
<clustering>
<clus scale="   76.494">  2  9  1 -1</clus>
<clus scale="   80.864">  5  6 -1 -1</clus>
<clus scale="   89.244">  7  8 -1 -1</clus>
<clus scale="   89.244">  2  5  1 -1</clus>
<clus scale="   76.494">  2  5  1 -1</clus>
</clustering>
</event>
<event>
 9    1  0.6106093E-005  0.1996755E+03  0.7546771E-02  0.1150885E+00
          1   -1    0    0  502    0  0.00000000000E+00  0.00000000000E+00  0.61336046394E+02  0.61336046394E+02  0.00000000000E+00 0. -1.
         -2   -1    0    0    0  501 -0.00000000000E+00 -0.00000000000E+00 -0.11827924521E+04  0.11827924521E+04  0.00000000000E+00 0.  1.
        -24    2    1    2    0    0 -0.78789389766E+02  0.13490047564E+03 -0.42581139689E+03  0.46054612178E+03  0.79884155463E+02 0.  0.
         23    2    1    2    0    0  0.19067520071E+03 -0.94126928562E+02 -0.36124915349E+03  0.42861546997E+03  0.89405589028E+02 0.  0.
         11    1    3    3    0    0 -0.78078500691E+02  0.55973496452E+02 -0.21699167427E+03  0.23730712438E+03  0.00000000000E+00 0. -1.
        -12    1    3    3    0    0 -0.71088907548E+00  0.78926979186E+02 -0.20881972262E+03  0.22323899740E+03  0.00000000000E+00 0.  1.
        -11    1    4    4    0    0 -0.14853282765E+01 -0.21515844705E+02 -0.15918830050E+02  0.26805725575E+02  0.00000000000E+00 0. -1.
         11    1    4    4    0    0  0.19216052899E+03 -0.72611083858E+02 -0.34533032344E+03  0.40180974439E+03  0.00000000000E+00 0.  1.
         21    1    1    2  502  501 -0.11188581094E+03 -0.40773547075E+02 -0.33439585531E+03  0.35496690674E+03  0.00000000000E+00 0. -1.
<scales pt_clust_5="13000.00000" pt_clust_6="13000.00000" pt_clust_7="13000.00000" pt_clust_8="13000.00000" pt_clust_9="119.08365"></scales>
<clustering>
<clus scale="   79.884">  5  6 -1 -1</clus>
<clus scale="   89.406">  7  8 -1 -1</clus>
<clus scale="  119.084">  2  9  1 -1</clus>
<clus scale="  195.598">  2  5  1 -1</clus>
<clus scale="  199.675">  1  5  2 -1</clus>
</clustering>
</event>
<event>
 9    1  0.6106093E-005  0.1056952E+03  0.7546771E-02  0.1273875E+00
          1   -1    0    0  502    0  0.00000000000E+00  0.00000000000E+00  0.58922822801E+03  0.58922822801E+03  0.00000000000E+00 0. -1.
         -2   -1    0    0    0  501 -0.00000000000E+00 -0.00000000000E+00 -0.25628008256E+02  0.25628008256E+02  0.00000000000E+00 0.  1.
        -24    2    1    2    0    0 -0.32376130390E+02  0.17469850586E+02  0.10915975680E+03  0.14043265297E+03  0.80324765908E+02 0.  0.
         23    2    1    2    0    0  0.50990468883E+02 -0.29826275583E+02  0.41441859919E+03  0.42858774125E+03  0.91951302145E+02 0.  0.
         13    1    3    3    0    0 -0.55405878726E+02  0.19910356239E+02  0.98912160026E+02  0.11510798879E+03  0.00000000000E+00 0. -1.
        -14    1    3    3    0    0  0.23029748336E+02 -0.24405056529E+01  0.10247596773E+02  0.25324664181E+02  0.00000000000E+00 0.  1.
        -11    1    4    4    0    0  0.59152785650E+02  0.16541869689E+02  0.25967451450E+03  0.26683991265E+03  0.00000000000E+00 0.  1.
         11    1    4    4    0    0 -0.81623167672E+01 -0.46368145272E+02  0.15474408469E+03  0.16174782860E+03  0.00000000000E+00 0. -1.
         21    1    1    2  502  501 -0.18614338493E+02  0.12356424997E+02  0.40021863773E+02  0.45835842047E+02  0.00000000000E+00 0. -1.
<scales pt_clust_5="13000.00000" pt_clust_6="13000.00000" pt_clust_7="13000.00000" pt_clust_8="13000.00000" pt_clust_9="22.34222"></scales>
<clustering>
<clus scale="   22.342">  2  9  1 -1</clus>
<clus scale="   80.325">  5  6 -1 -1</clus>
<clus scale="   91.951">  7  8 -1 -1</clus>
<clus scale="   95.752">  2  5  1 -1</clus>
<clus scale="  105.695">  1  5  2 -1</clus>
</clustering>
</event>
<event>
 9    1  0.6106093E-005  0.1491114E+03  0.7546771E-02  0.1203226E+00
         -2   -1    0    0    0  501 -0.00000000000E+00  0.00000000000E+00  0.44507878603E+02  0.44507878603E+02  0.00000000000E+00 0.  1.
          1   -1    0    0  502    0  0.00000000000E+00 -0.00000000000E+00 -0.75620064874E+03  0.75620064874E+03  0.00000000000E+00 0. -1.
         23    2    1    2    0    0 -0.81378297025E+01 -0.14669009694E+03 -0.26176465237E+03  0.31376094300E+03  0.91329005860E+02 0.  0.
        -24    2    1    2    0    0  0.24354407706E+02  0.10279917478E+03 -0.37876553167E+03  0.40178007815E+03  0.82480880874E+02 0.  0.
         11    1    4    4    0    0  0.34103113706E+02  0.43493413499E+01 -0.11686964955E+03  0.12182140256E+03  0.00000000000E+00 0. -1.
        -12    1    4    4    0    0 -0.97487060007E+01  0.98449833434E+02 -0.26189588212E+03  0.27995867560E+03  0.00000000000E+00 0.  1.
        -11    1    3    3    0    0 -0.52550068761E+01 -0.11681326530E+03 -0.11517088696E+03  0.16412582750E+03  0.00000000000E+00 0.  1.
         11    1    3    3    0    0 -0.28828228263E+01 -0.29876831636E+02 -0.14659376540E+03  0.14963511550E+03  0.00000000000E+00 0. -1.
         21    1    1    2  502  501 -0.16216578003E+02  0.43890922157E+02 -0.71162586107E+02  0.85167506194E+02  0.00000000000E+00 0. -1.
<scales pt_clust_5="13000.00000" pt_clust_6="13000.00000" pt_clust_7="13000.00000" pt_clust_8="13000.00000" pt_clust_9="46.79092"></scales>
<clustering>
<clus scale="   46.791">  1  9  2 -1</clus>
<clus scale="   82.481">  5  6 -1 -1</clus>
<clus scale="   91.329">  7  8 -1 -1</clus>
<clus scale="  143.862">  2  5  1 -1</clus>
<clus scale="  143.862">  2  5  1 -1</clus>
</clustering>
</event>
<event>
 9    1  0.6106093E-005  0.3496935E+03  0.7546771E-02  0.1102348E+00
         -2   -1    0    0    0  501 -0.00000000000E+00  0.00000000000E+00  0.34180263716E+03  0.34180263716E+03  0.00000000000E+00 0.  1.
          1   -1    0    0  502    0  0.00000000000E+00 -0.00000000000E+00 -0.10776210423E+04  0.10776210423E+04  0.00000000000E+00 0. -1.
         23    2    1    2    0    0 -0.64020301428E+02 -0.42788069170E+02  0.14331953123E+03  0.18749677410E+03  0.93194068523E+02 0.  0.
        -24    2    1    2    0    0  0.19409801026E+03  0.29747120554E+03 -0.87308835846E+03  0.94588441259E+03  0.79062535940E+02 0.  0.
         13    1    4    4    0    0  0.13947217587E+03  0.26533402332E+03 -0.74263545444E+03  0.80085082879E+03  0.00000000000E+00 0. -1.
        -14    1    4    4    0    0  0.54625834394E+02  0.32137182218E+02 -0.13045290402E+03  0.14503358380E+03  0.00000000000E+00 0.  1.
        -13    1    3    3    0    0  0.15460263441E+02  0.15627925272E+02  0.21488810774E+02  0.30741190323E+02  0.00000000000E+00 0. -1.
         13    1    3    3    0    0 -0.79480564869E+02 -0.58415994442E+02  0.12183072046E+03  0.15675558378E+03  0.00000000000E+00 0.  1.
         21    1    1    2  502  501 -0.13007770883E+03 -0.25468313637E+03 -0.60495779277E+01  0.28604249279E+03  0.00000000000E+00 0.  1.
<scales pt_clust_5="13000.00000" pt_clust_6="13000.00000" pt_clust_7="13000.00000" pt_clust_8="13000.00000" pt_clust_9="340.63861"></scales>
<clustering>
<clus scale="   79.063">  5  6 -1 -1</clus>
<clus scale="   93.194">  7  8 -1 -1</clus>
<clus scale="  120.891">  1  7  2 -1</clus>
<clus scale="  340.639">  1  9  2 -1</clus>
<clus scale="  349.694">  2  5  1 -1</clus>
</clustering>
</event>
<event>
 9    1  0.6106093E-005  0.1152229E+03  0.7546771E-02  0.1254315E+00
         -2   -1    0    0    0  501 -0.00000000000E+00  0.00000000000E+00  0.64949085500E+03  0.64949085500E+03  0.00000000000E+00 0.  1.
          1   -1    0    0  502    0  0.00000000000E+00 -0.00000000000E+00 -0.68956402444E+02  0.68956402444E+02  0.00000000000E+00 0. -1.
        -24    2    1    2    0    0 -0.59393201662E+02 -0.19766241618E+02  0.39824922881E+03  0.41149238884E+03  0.82494127788E+02 0.  0.
         23    2    1    2    0    0  0.51518546446E+02  0.50223847601E+02 -0.55895799357E+01  0.11646440213E+03  0.91411804836E+02 0.  0.
         13    1    3    3    0    0 -0.24389947205E+02  0.31382969432E+02  0.19472494240E+03  0.19873993933E+03  0.00000000000E+00 0. -1.
        -14    1    3    3    0    0 -0.35003254458E+02 -0.51149211050E+02  0.20352428641E+03  0.21275244951E+03  0.00000000000E+00 0.  1.
        -13    1    4    4    0    0 -0.13685513425E+02  0.28600506732E+02  0.25857008474E+02  0.40912921556E+02  0.00000000000E+00 0. -1.
         13    1    4    4    0    0  0.65204059872E+02  0.21623340869E+02 -0.31446588409E+02  0.75551480572E+02  0.00000000000E+00 0.  1.
         21    1    1    2  502  501  0.78746552160E+01 -0.30457605983E+02  0.18787480368E+03  0.19049046647E+03  0.00000000000E+00 0.  1.
<scales pt_clust_5="13000.00000" pt_clust_6="13000.00000" pt_clust_7="13000.00000" pt_clust_8="13000.00000" pt_clust_9="31.45912"></scales>
<clustering>
<clus scale="   31.459">  1  9  2 -1</clus>
<clus scale="   82.494">  5  6 -1 -1</clus>
<clus scale="   91.412">  7  8 -1 -1</clus>
<clus scale="  108.284">  1  5  2 -1</clus>
<clus scale="  115.223">  2  5  1 -1</clus>
</clustering>
</event>
<event>
 9    1  0.7433393E-005  0.9229148E+02  0.7546771E-02  0.1304717E+00
         -2   -1    0    0    0  501 -0.00000000000E+00  0.00000000000E+00  0.16555109180E+03  0.16555109180E+03  0.00000000000E+00 0.  1.
          1   -1    0    0  502    0  0.00000000000E+00 -0.00000000000E+00 -0.40890474447E+03  0.40890474447E+03  0.00000000000E+00 0. -1.
        -24    2    1    2    0    0  0.24918244080E+02 -0.23793226285E+01  0.91566477511E+02  0.12429213715E+03  0.80234253836E+02 0.  0.
         23    2    1    2    0    0  0.88809607453E+00  0.85294593027E+01 -0.38369242973E+03  0.39464317520E+03  0.91922873703E+02 0.  0.
         13    1    3    3    0    0  0.37520829022E+02  0.13294237160E+02  0.11063947982E+02  0.41315376037E+02  0.00000000000E+00 0. -1.
        -14    1    3    3    0    0 -0.12602584942E+02 -0.15673559788E+02  0.80502529529E+02  0.82976761110E+02  0.00000000000E+00 0.  1.
        -13    1    4    4    0    0 -0.44676898046E+02  0.92113372487E+01 -0.22279183929E+03  0.22741389054E+03  0.00000000000E+00 0. -1.
         13    1    4    4    0    0  0.45564994120E+02 -0.68187794594E+00 -0.16090059043E+03  0.16722928466E+03  0.00000000000E+00 0.  1.
         21    1    1    2  502  501 -0.25806340154E+02 -0.61501366742E+01  0.48772299547E+02  0.55520523920E+02  0.00000000000E+00 0.  1.
<scales pt_clust_5="13000.00000" pt_clust_6="13000.00000" pt_clust_7="13000.00000" pt_clust_8="13000.00000" pt_clust_9="26.52907"></scales>
<clustering>
<clus scale="   26.529">  1  9  2 -1</clus>
<clus scale="   80.234">  5  6 -1 -1</clus>
<clus scale="   80.656">  1  5  2 -1</clus>
<clus scale="   91.923">  7  8 -1 -1</clus>
<clus scale="   92.291">  2  5  1 -1</clus>
</clustering>
</event>
<event>
 9    1  0.6106093E-005  0.1321413E+03  0.7546771E-02  0.1228238E+00
          1   -1    0    0  502    0  0.00000000000E+00  0.00000000000E+00  0.26023275236E+03  0.26023275236E+03  0.00000000000E+00 0. -1.
         -2   -1    0    0    0  501 -0.00000000000E+00 -0.00000000000E+00 -0.84364908254E+02  0.84364908254E+02  0.00000000000E+00 0.  1.
        -24    2    1    2    0    0  0.10009850853E+03 -0.25351409579E+02  0.40463582967E+02  0.13674822854E+03  0.80002319257E+02 0.  0.
         23    2    1    2    0    0 -0.77782059555E+02  0.37161316712E+02  0.12870479131E+03  0.18172701455E+03  0.95019851931E+02 0.  0.
         13    1    3    3    0    0  0.82477583094E+02 -0.20021611809E+01  0.59613175918E+02  0.10178551520E+03  0.00000000000E+00 0. -1.
        -14    1    3    3    0    0  0.17620925431E+02 -0.23349248398E+02 -0.19149592951E+02  0.34962713338E+02  0.00000000000E+00 0.  1.
        -11    1    4    4    0    0 -0.33407620466E+02 -0.13361577918E+02  0.10406825603E+03  0.11011268220E+03  0.00000000000E+00 0.  1.
         11    1    4    4    0    0 -0.44374439089E+02  0.50522894630E+02  0.24636535288E+02  0.71614332345E+02  0.00000000000E+00 0. -1.
         21    1    1    2  502  501 -0.22316448971E+02 -0.11809907134E+02  0.66994698215E+01  0.26122417519E+02  0.00000000000E+00 0.  1.
<scales pt_clust_5="13000.00000" pt_clust_6="13000.00000" pt_clust_7="13000.00000" pt_clust_8="13000.00000" pt_clust_9="25.24872"></scales>
<clustering>
<clus scale="   25.249">  2  9  1 -1</clus>
<clus scale="   80.002">  5  6 -1 -1</clus>
<clus scale="   95.020">  7  8 -1 -1</clus>
<clus scale="  121.791">  2  5  1 -1</clus>
<clus scale="  132.141">  1  5  2 -1</clus>
</clustering>
</event>
<event>
 9    1  0.6106093E-005  0.9503961E+02  0.7546771E-02  0.1295165E+00
         -2   -1    0    0    0  501 -0.00000000000E+00  0.00000000000E+00  0.30426081626E+03  0.30426081626E+03  0.00000000000E+00 0.  1.
          1   -1    0    0  502    0  0.00000000000E+00 -0.00000000000E+00 -0.47599391875E+02  0.47599391875E+02  0.00000000000E+00 0. -1.
        -24    2    1    2    0    0  0.93865954467E+01  0.21141676764E+02  0.19873049436E+03  0.21695782593E+03  0.83915494242E+02 0.  0.
         23    2    1    2    0    0 -0.13884792288E+01 -0.41306818392E+02  0.48520695997E+02  0.11125591726E+03  0.91189034783E+02 0.  0.
         11    1    3    3    0    0  0.10200981615E+02  0.44781860482E+02  0.56686467697E+02  0.72957732106E+02  0.00000000000E+00 0. -1.
        -12    1    3    3    0    0 -0.81438616837E+00 -0.23640183718E+02  0.14204402666E+03  0.14400009382E+03  0.00000000000E+00 0.  1.
        -13    1    4    4    0    0  0.26760616703E+02  0.19396893293E+02  0.18972930675E+02  0.38109607374E+02  0.00000000000E+00 0.  1.
         13    1    4    4    0    0 -0.28149095932E+02 -0.60703711686E+02  0.29547765322E+02  0.73146309885E+02  0.00000000000E+00 0. -1.
         21    1    1    2  502  501 -0.79981162180E+01  0.20165141628E+02  0.94102340260E+01  0.23646464944E+02  0.00000000000E+00 0.  1.
<scales pt_clust_5="13000.00000" pt_clust_6="13000.00000" pt_clust_7="13000.00000" pt_clust_8="13000.00000" pt_clust_9="21.69338"></scales>
<clustering>
<clus scale="   21.693">  2  9  1 -1</clus>
<clus scale="   83.915">  5  6 -1 -1</clus>
<clus scale="   88.085">  1  5  2 -1</clus>
<clus scale="   91.189">  7  8 -1 -1</clus>
<clus scale="   21.693">  2  5  1 -1</clus>
</clustering>
</event>
<event>
 9    1  0.6106093E-005  0.1028170E+03  0.7546771E-02  0.1274874E+00
         -2   -1    0    0    0  501 -0.00000000000E+00  0.00000000000E+00  0.27427296077E+03  0.27427296077E+03  0.00000000000E+00 0.  1.
          1   -1    0    0  502    0  0.00000000000E+00 -0.00000000000E+00 -0.13757802917E+03  0.13757802917E+03  0.00000000000E+00 0. -1.
         23    2    1    2    0    0 -0.17772862621E+02  0.29096393561E+02  0.63185953002E+02  0.11651706568E+03  0.91767571478E+02 0.  0.
        -24    2    1    2    0    0 -0.17046319053E+02 -0.50054235992E+02 -0.82788586924E+02  0.13383923221E+03  0.90900970407E+02 0.  0.
         11    1    4    4    0    0 -0.30301535260E+02 -0.72694881079E+02 -0.58750873508E+02  0.98256775400E+02  0.00000000000E+00 0. -1.
        -12    1    4    4    0    0  0.13255216207E+02  0.22640645087E+02 -0.24037713416E+02  0.35582456814E+02  0.00000000000E+00 0.  1.
        -13    1    3    3    0    0 -0.24512679170E+02 -0.25033954790E+02  0.48851254680E+02  0.60116681681E+02  0.00000000000E+00 0. -1.
         13    1    3    3    0    0  0.67398165487E+01  0.54130348351E+02  0.14334698322E+02  0.56400384003E+02  0.00000000000E+00 0.  1.
         21    1    1    2  502  501  0.34819181674E+02  0.20957842431E+02  0.15629756552E+03  0.16149469204E+03  0.00000000000E+00 0.  1.
<scales pt_clust_5="13000.00000" pt_clust_6="13000.00000" pt_clust_7="13000.00000" pt_clust_8="13000.00000" pt_clust_9="40.63996"></scales>
<clustering>
<clus scale="   40.640">  1  9  2 -1</clus>
<clus scale="   90.901">  5  6 -1 -1</clus>
<clus scale="   91.768">  7  8 -1 -1</clus>
<clus scale="  102.044">  2  5  1 -1</clus>
<clus scale="  102.044">  2  5  1 -1</clus>
</clustering>
</event>
<event>
 9    1  0.6106093E-005  0.1028864E+03  0.7546771E-02  0.1279055E+00
         -2   -1    0    0    0  501 -0.00000000000E+00  0.00000000000E+00  0.15176793518E+03  0.15176793518E+03  0.00000000000E+00 0.  1.
          1   -1    0    0  502    0  0.00000000000E+00 -0.00000000000E+00 -0.28276962537E+03  0.28276962537E+03  0.00000000000E+00 0. -1.
         23    2    1    2    0    0  0.11362851837E+02  0.28212969942E+02  0.73447158469E+02  0.12095412527E+03  0.91161007337E+02 0.  0.
        -24    2    1    2    0    0 -0.35906814937E+02 -0.34080152535E+02 -0.24671730511E+03  0.26435486260E+03  0.81014249281E+02 0.  0.
         11    1    4    4    0    0 -0.59914776314E+02 -0.11125835471E+02 -0.14283014311E+03  0.15528687780E+03  0.00000000000E+00 0. -1.
        -12    1    4    4    0    0  0.24007961377E+02 -0.22954317064E+02 -0.10388716199E+03  0.10906798480E+03  0.00000000000E+00 0.  1.
        -13    1    3    3    0    0 -0.20016946606E+02 -0.92892250231E+01  0.68310141299E+02  0.71786093760E+02  0.00000000000E+00 0.  1.
         13    1    3    3    0    0  0.31379798444E+02  0.37502194965E+02  0.51370171696E+01  0.49168031514E+02  0.00000000000E+00 0. -1.
         21    1    1    2  502  501  0.24543963099E+02  0.58671825939E+01  0.42268456450E+02  0.49228572668E+02  0.00000000000E+00 0. -1.
<scales pt_clust_5="13000.00000" pt_clust_6="13000.00000" pt_clust_7="13000.00000" pt_clust_8="13000.00000" pt_clust_9="25.23549"></scales>
<clustering>
<clus scale="   25.235">  1  9  2 -1</clus>
<clus scale="   81.014">  5  6 -1 -1</clus>
<clus scale="   91.161">  7  8 -1 -1</clus>
<clus scale="   94.014">  2  5  1 -1</clus>
<clus scale="   94.014">  2  5  1 -1</clus>
</clustering>
</event>
<event>
 9    1  0.6106093E-005  0.1127854E+03  0.7546771E-02  0.1264127E+00
         -4   -1    0    0    0  501 -0.00000000000E+00  0.00000000000E+00  0.10528784431E+03  0.10528784431E+03  0.00000000000E+00 0.  1.
          3   -1    0    0  502    0  0.00000000000E+00 -0.00000000000E+00 -0.18806811390E+03  0.18806811390E+03  0.00000000000E+00 0. -1.
        -24    2    1    2    0    0 -0.12435966250E+02 -0.56916191192E+02  0.37199020338E+02  0.10747213859E+03  0.82294516112E+02 0.  0.
         23    2    1    2    0    0 -0.75050554159E+01  0.44917769934E+02 -0.11792356261E+03  0.16252076176E+03  0.10214254487E+03 0.  0.
         13    1    3    3    0    0 -0.31973192679E+02 -0.17971478782E+02 -0.14870705916E+02  0.39577733565E+02  0.00000000000E+00 0. -1.
        -14    1    3    3    0    0  0.19537226429E+02 -0.38944712410E+02  0.52069726254E+02  0.67894405023E+02  0.00000000000E+00 0.  1.
        -13    1    4    4    0    0  0.35564975626E+02 -0.13279469569E+02 -0.28549012596E+02  0.47500083406E+02  0.00000000000E+00 0. -1.
         13    1    4    4    0    0 -0.43070031042E+02  0.58197239504E+02 -0.89374550012E+02  0.11502067836E+03  0.00000000000E+00 0.  1.
         21    1    1    2  502  501  0.19941021666E+02  0.11998421257E+02 -0.20557273247E+01  0.23363057860E+02  0.00000000000E+00 0. -1.
<scales pt_clust_5="13000.00000" pt_clust_6="13000.00000" pt_clust_7="13000.00000" pt_clust_8="13000.00000" pt_clust_9="23.27244"></scales>
<clustering>
<clus scale="   23.272">  1  9  2 -1</clus>
<clus scale="   82.295">  5  6 -1 -1</clus>
<clus scale="   95.183">  1  5  2 -1</clus>
<clus scale="  102.143">  7  8 -1 -1</clus>
<clus scale="  112.785">  2  5  1 -1</clus>
</clustering>
</event>
<event>
 9    1  0.6106093E-005  0.1023050E+03  0.7546771E-02  0.1281883E+00
          1   -1    0    0  502    0  0.00000000000E+00  0.00000000000E+00  0.31924678873E+03  0.31924678873E+03  0.00000000000E+00 0. -1.
         -2   -1    0    0    0  501 -0.00000000000E+00 -0.00000000000E+00 -0.27964011822E+03  0.27964011822E+03  0.00000000000E+00 0.  1.
        -24    2    1    2    0    0 -0.69129270820E+02  0.19081396042E+01 -0.20348596587E+03  0.22905632274E+03  0.79232339337E+02 0.  0.
         23    2    1    2    0    0  0.41534165057E+02  0.11469635258E+02  0.29357376255E+03  0.31076452948E+03  0.92370987471E+02 0.  0.
         11    1    3    3    0    0 -0.62126347577E+02  0.35949135375E+01 -0.63584812713E+02  0.88969853739E+02  0.00000000000E+00 0. -1.
        -12    1    3    3    0    0 -0.70029232430E+01 -0.16867739333E+01 -0.13990115316E+03  0.14008646900E+03  0.00000000000E+00 0.  1.
        -11    1    4    4    0    0 -0.21603585613E+02 -0.12015173198E+02  0.30798752283E+02  0.39492308624E+02  0.00000000000E+00 0.  1.
         11    1    4    4    0    0  0.63137750670E+02  0.23484808456E+02  0.26277501026E+03  0.27127222085E+03  0.00000000000E+00 0. -1.
         21    1    1    2  502  501  0.27595105763E+02 -0.13377774862E+02 -0.50481126163E+02  0.59066054727E+02  0.00000000000E+00 0. -1.
<scales pt_clust_5="13000.00000" pt_clust_6="13000.00000" pt_clust_7="13000.00000" pt_clust_8="13000.00000" pt_clust_9="30.66683"></scales>
<clustering>
<clus scale="   30.667">  2  9  1 -1</clus>
<clus scale="   79.232">  5  6 -1 -1</clus>
<clus scale="   90.618">  2  5  1 -1</clus>
<clus scale="   92.371">  7  8 -1 -1</clus>
<clus scale="  102.305">  1  5  2 -1</clus>
</clustering>
</event>
<event>
 9    1  0.6106093E-005  0.1235767E+03  0.7546771E-02  0.1239346E+00
          1   -1    0    0  502    0  0.00000000000E+00  0.00000000000E+00  0.17342418018E+03  0.17342418018E+03  0.00000000000E+00 0. -1.
         -2   -1    0    0    0  501 -0.00000000000E+00 -0.00000000000E+00 -0.17960437578E+03  0.17960437578E+03  0.00000000000E+00 0.  1.
        -24    2    1    2    0    0  0.26441663932E+02  0.70561702491E+02 -0.80228391775E+02  0.13629522104E+03  0.80384556860E+02 0.  0.
         23    2    1    2    0    0 -0.67036280493E+02 -0.63236213405E+02  0.10520621981E+03  0.16503799547E+03  0.87615693084E+02 0.  0.
         13    1    3    3    0    0  0.23602365461E+02 -0.29680508913E+01  0.43548895391E+01  0.24183590394E+02  0.00000000000E+00 0. -1.
        -14    1    3    3    0    0  0.28392984713E+01  0.73529753382E+02 -0.84583281314E+02  0.11211163065E+03  0.00000000000E+00 0.  1.
        -11    1    4    4    0    0 -0.17110823326E+02 -0.74055985912E+02  0.65527788769E+02  0.10035417493E+03  0.00000000000E+00 0. -1.
         11    1    4    4    0    0 -0.49925457167E+02  0.10819772507E+02  0.39678431043E+02  0.64683820547E+02  0.00000000000E+00 0.  1.
         21    1    1    2  502  501  0.40594616561E+02 -0.73254890860E+01 -0.31158023637E+02  0.51695339452E+02  0.00000000000E+00 0.  1.
<scales pt_clust_5="13000.00000" pt_clust_6="13000.00000" pt_clust_7="13000.00000" pt_clust_8="13000.00000" pt_clust_9="41.25028"></scales>
<clustering>
<clus scale="   41.250">  2  9  1 -1</clus>
<clus scale="   80.385">  5  6 -1 -1</clus>
<clus scale="   87.616">  7  8 -1 -1</clus>
<clus scale="  118.560">  2  5  1 -1</clus>
<clus scale="  123.577">  1  5  2 -1</clus>
</clustering>
</event>
<event>
 9    1  0.6106093E-005  0.1126025E+03  0.7546771E-02  0.1268739E+00
         -2   -1    0    0    0  501 -0.00000000000E+00  0.00000000000E+00  0.50699270796E+02  0.50699270796E+02  0.00000000000E+00 0.  1.
          1   -1    0    0  502    0  0.00000000000E+00 -0.00000000000E+00 -0.28863664862E+03  0.28863664862E+03  0.00000000000E+00 0. -1.
        -24    2    1    2    0    0  0.27288911262E+02  0.34671594010E+02 -0.48632614108E+02  0.99153026129E+02  0.74292579216E+02 0.  0.
         23    2    1    2    0    0 -0.47885023301E+01 -0.50262544423E+02 -0.17549012305E+03  0.20952036838E+03  0.10272657082E+03 0.  0.
         13    1    3    3    0    0 -0.21026221836E+02  0.23167874906E+02 -0.36409551632E+02  0.48005290150E+02  0.00000000000E+00 0. -1.
        -14    1    3    3    0    0  0.48315133098E+02  0.11503719104E+02 -0.12223062476E+02  0.51147735979E+02  0.00000000000E+00 0.  1.
        -13    1    4    4    0    0  0.21140877028E+02  0.26230940000E+02 -0.50720246772E+02  0.60889591289E+02  0.00000000000E+00 0.  1.
         13    1    4    4    0    0 -0.25929379358E+02 -0.76493484423E+02 -0.12476987628E+03  0.14863077709E+03  0.00000000000E+00 0. -1.
         21    1    1    2  502  501 -0.22500408932E+02  0.15590950414E+02 -0.13814640670E+02  0.30662524908E+02  0.00000000000E+00 0. -1.
<scales pt_clust_5="13000.00000" pt_clust_6="13000.00000" pt_clust_7="13000.00000" pt_clust_8="13000.00000" pt_clust_9="27.37419"></scales>
<clustering>
<clus scale="   27.374">  1  9  2 -1</clus>
<clus scale="   74.293">  5  6 -1 -1</clus>
<clus scale="   87.441">  1  5  2 -1</clus>
<clus scale="  102.727">  7  8 -1 -1</clus>
<clus scale="  112.602">  2  5  1 -1</clus>
</clustering>
</event>
<event>
 9    1  0.6106093E-005  0.9258133E+02  0.7546771E-02  0.1302156E+00
         -2   -1    0    0    0  501 -0.00000000000E+00  0.00000000000E+00  0.44781560608E+02  0.44781560608E+02  0.00000000000E+00 0.  1.
          1   -1    0    0  502    0  0.00000000000E+00 -0.00000000000E+00 -0.60958376069E+03  0.60958376069E+03  0.00000000000E+00 0. -1.
        -24    2    1    2    0    0  0.56716725991E+01 -0.13209590037E+02 -0.65682248684E+02  0.10528971189E+03  0.81025332455E+02 0.  0.
         23    2    1    2    0    0  0.16645567515E+02 -0.23882311903E+02 -0.49677522026E+03  0.50572395246E+03  0.90131331320E+02 0.  0.
         11    1    3    3    0    0  0.34793306776E+02 -0.22150530449E+02 -0.62193383465E+02  0.74627321688E+02  0.00000000000E+00 0. -1.
        -12    1    3    3    0    0 -0.29121634176E+02  0.89409404126E+01 -0.34888652194E+01  0.30662390205E+02  0.00000000000E+00 0.  1.
        -13    1    4    4    0    0 -0.17733794133E+02  0.27331630547E+02 -0.19591236592E+03  0.19860302264E+03  0.00000000000E+00 0.  1.
         13    1    4    4    0    0  0.34379361648E+02 -0.51213942450E+02 -0.30086285435E+03  0.30712092982E+03  0.00000000000E+00 0. -1.
         21    1    1    2  502  501 -0.22317240114E+02  0.37091901940E+02 -0.23447311383E+01  0.43351656946E+02  0.00000000000E+00 0.  1.
<scales pt_clust_5="13000.00000" pt_clust_6="13000.00000" pt_clust_7="13000.00000" pt_clust_8="13000.00000" pt_clust_9="43.28820"></scales>
<clustering>
<clus scale="   43.288">  1  9  2 -1</clus>
<clus scale="   81.025">  5  6 -1 -1</clus>
<clus scale="   83.742">  1  5  2 -1</clus>
<clus scale="   90.131">  7  8 -1 -1</clus>
<clus scale="   92.581">  2  5  1 -1</clus>
</clustering>
</event>
<event>
 9    1  0.6106093E-005  0.1311063E+03  0.7546771E-02  0.1228117E+00
         -2   -1    0    0    0  501 -0.00000000000E+00  0.00000000000E+00  0.14129497627E+03  0.14129497627E+03  0.00000000000E+00 0.  1.
          1   -1    0    0  502    0  0.00000000000E+00 -0.00000000000E+00 -0.18764284424E+03  0.18764284424E+03  0.00000000000E+00 0. -1.
         23    2    1    2    0    0  0.49471824423E+02  0.97347601062E+02 -0.22334619097E+02  0.14381239022E+03  0.90879874153E+02 0.  0.
        -24    2    1    2    0    0  0.38874425205E+01 -0.89409422722E+02 -0.41871481681E+02  0.12829988566E+03  0.81844258204E+02 0.  0.
         11    1    4    4    0    0 -0.10159566159E+02 -0.19356707934E+02 -0.51745335111E+02  0.56173647134E+02  0.00000000000E+00 0. -1.
        -12    1    4    4    0    0  0.14047008680E+02 -0.70052714788E+02  0.98738534308E+01  0.72126238523E+02  0.00000000000E+00 0.  1.
        -13    1    3    3    0    0  0.73427557205E+02  0.63071556200E+02 -0.29913093702E+02  0.10131347656E+03  0.00000000000E+00 0. -1.
         13    1    3    3    0    0 -0.23955732783E+02  0.34276044862E+02  0.75784746046E+01  0.42498913655E+02  0.00000000000E+00 0.  1.
         21    1    1    2  502  501 -0.53359266943E+02 -0.79381783407E+01  0.17858232803E+02  0.56825544634E+02  0.00000000000E+00 0.  1.
<scales pt_clust_5="13000.00000" pt_clust_6="13000.00000" pt_clust_7="13000.00000" pt_clust_8="13000.00000" pt_clust_9="53.94651"></scales>
<clustering>
<clus scale="   53.947">  1  9  2 -1</clus>
<clus scale="   81.844">  5  6 -1 -1</clus>
<clus scale="   90.880">  7  8 -1 -1</clus>
<clus scale="  125.013">  2  5  1 -1</clus>
<clus scale="  125.013">  2  5  1 -1</clus>
</clustering>
</event>
<event>
 9    1  0.6106093E-005  0.9028585E+02  0.7546771E-02  0.1307385E+00
         -4   -1    0    0    0  501 -0.00000000000E+00  0.00000000000E+00  0.34751230218E+03  0.34751230218E+03  0.00000000000E+00 0.  1.
          3   -1    0    0  502    0  0.00000000000E+00 -0.00000000000E+00 -0.90248291140E+02  0.90248291140E+02  0.00000000000E+00 0. -1.
        -24    2    1    2    0    0 -0.30590081291E+02 -0.10049031447E+02  0.73683662067E+02  0.11430204514E+03  0.81233856001E+02 0.  0.
         23    2    1    2    0    0  0.15857823289E+01  0.72197818541E+01 -0.39742201685E+02  0.98242617032E+02  0.89540656971E+02 0.  0.
         11    1    3    3    0    0  0.26854407577E+02 -0.10356492462E+02  0.33665048176E+02  0.44291665256E+02  0.00000000000E+00 0. -1.
        -12    1    3    3    0    0 -0.57444488867E+02  0.30746101560E+00  0.40018613891E+02  0.70010379882E+02  0.00000000000E+00 0.  1.
        -13    1    4    4    0    0 -0.12682643214E+02 -0.28162363238E+02  0.12696643220E+02  0.33394204454E+02  0.00000000000E+00 0.  1.
         13    1    4    4    0    0  0.14268425542E+02  0.35382145093E+02 -0.52438844906E+02  0.64848412578E+02  0.00000000000E+00 0. -1.
         21    1    1    2  502  501  0.29004298962E+02  0.28292495926E+01  0.22332255066E+03  0.22521593115E+03  0.00000000000E+00 0.  1.
<scales pt_clust_5="13000.00000" pt_clust_6="13000.00000" pt_clust_7="13000.00000" pt_clust_8="13000.00000" pt_clust_9="29.14196"></scales>
<clustering>
<clus scale="   29.142">  1  9  2 -1</clus>
<clus scale="   81.234">  5  6 -1 -1</clus>
<clus scale="   82.055">  1  5  2 -1</clus>
<clus scale="   89.541">  7  8 -1 -1</clus>
<clus scale="   90.286">  2  5  1 -1</clus>
</clustering>
</event>
<event>
 9    1  0.6106093E-005  0.1066240E+03  0.7546771E-02  0.1270227E+00
         -4   -1    0    0    0  501 -0.00000000000E+00  0.00000000000E+00  0.19808568643E+03  0.19808568643E+03  0.00000000000E+00 0.  1.
          3   -1    0    0  502    0  0.00000000000E+00 -0.00000000000E+00 -0.11129045905E+03  0.11129045905E+03  0.00000000000E+00 0. -1.
        -24    2    1    2    0    0  0.79448769560E+01  0.24380843021E+02  0.48008251650E+02  0.98732065416E+02  0.82375250764E+02 0.  0.
         23    2    1    2    0    0 -0.42490007570E+02 -0.63647459811E+02 -0.32066119099E+02  0.12257936357E+03  0.90227847676E+02 0.  0.
         11    1    3    3    0    0  0.10651203765E+02  0.44018973951E+02 -0.15917834920E+01  0.45317237162E+02  0.00000000000E+00 0. -1.
        -12    1    3    3    0    0 -0.27063268085E+01 -0.19638130930E+02  0.49600035142E+02  0.53414828254E+02  0.00000000000E+00 0.  1.
        -13    1    4    4    0    0 -0.66933445631E+02 -0.22803677336E+02 -0.19052294264E+02  0.73233078324E+02  0.00000000000E+00 0.  1.
         13    1    4    4    0    0  0.24443438061E+02 -0.40843782475E+02 -0.13013824835E+02  0.49346285249E+02  0.00000000000E+00 0. -1.
         21    1    1    2  502  501  0.34545130614E+02  0.39266616791E+02  0.70853094830E+02  0.88064716489E+02  0.00000000000E+00 0.  1.
<scales pt_clust_5="13000.00000" pt_clust_6="13000.00000" pt_clust_7="13000.00000" pt_clust_8="13000.00000" pt_clust_9="52.29946"></scales>
<clustering>
<clus scale="   52.299">  1  9  2 -1</clus>
<clus scale="   82.375">  5  6 -1 -1</clus>
<clus scale="   90.228">  7  8 -1 -1</clus>
<clus scale="  100.066">  1  5  2 -1</clus>
<clus scale="  106.624">  2  5  1 -1</clus>
</clustering>
</event>
<event>
 9    1  0.6106093E-005  0.1697078E+03  0.7546771E-02  0.1179745E+00
          3   -1    0    0  502    0  0.00000000000E+00  0.00000000000E+00  0.11995735765E+03  0.11995735765E+03  0.00000000000E+00 0. -1.
         -4   -1    0    0    0  501 -0.00000000000E+00 -0.00000000000E+00 -0.76896639091E+03  0.76896639091E+03  0.00000000000E+00 0.  1.
         23    2    1    2    0    0  0.41349861104E+02  0.15317095449E+03 -0.66195160008E+03  0.68683776194E+03  0.91624440370E+02 0.  0.
        -24    2    1    2    0    0 -0.25797364006E+02 -0.57115667984E+02  0.23175690522E+02  0.10424317874E+03  0.80011400209E+02 0.  0.
         11    1    4    4    0    0 -0.37458492827E+02 -0.72829269083E+02  0.21053856365E+02  0.84560664542E+02  0.00000000000E+00 0. -1.
        -12    1    4    4    0    0  0.11661128821E+02  0.15713601099E+02  0.21218341570E+01  0.19682514196E+02  0.00000000000E+00 0.  1.
        -13    1    3    3    0    0 -0.15017649383E+02  0.74704961937E+02 -0.40952543064E+03  0.41655424553E+03  0.00000000000E+00 0.  1.
         13    1    3    3    0    0  0.56367510486E+02  0.78465992556E+02 -0.25242616944E+03  0.27028351641E+03  0.00000000000E+00 0. -1.
         21    1    1    2  502  501 -0.15552497098E+02 -0.96055286509E+02 -0.10233123703E+02  0.97842807876E+02  0.00000000000E+00 0. -1.
<scales pt_clust_5="13000.00000" pt_clust_6="13000.00000" pt_clust_7="13000.00000" pt_clust_8="13000.00000" pt_clust_9="97.30621"></scales>
<clustering>
<clus scale="   80.011">  5  6 -1 -1</clus>
<clus scale="   91.624">  7  8 -1 -1</clus>
<clus scale="   97.306">  1  9  2 -1</clus>
<clus scale="  163.730">  1  5  2 -1</clus>
<clus scale="   97.306">  1  5  2 -1</clus>
</clustering>
</event>
<event>
 9    1  0.6106093E-005  0.1738735E+03  0.7546771E-02  0.1175451E+00
          1   -1    0    0  502    0  0.00000000000E+00  0.00000000000E+00  0.61362440184E+03  0.61362440184E+03  0.00000000000E+00 0. -1.
         -2   -1    0    0    0  501 -0.00000000000E+00 -0.00000000000E+00 -0.12734512852E+03  0.12734512852E+03  0.00000000000E+00 0.  1.
        -24    2    1    2    0    0 -0.97640518692E+02 -0.11689928270E+03  0.20720974678E+03  0.26959885698E+03  0.80923119928E+02 0.  0.
         23    2    1    2    0    0  0.76281333838E+02  0.12222432942E+03  0.35396272696E+03  0.39330940021E+03  0.92978726729E+02 0.  0.
         13    1    3    3    0    0 -0.87850950693E+01 -0.53440884258E+02  0.11330730450E+03  0.12558523503E+03  0.00000000000E+00 0. -1.
        -14    1    3    3    0    0 -0.88855423622E+02 -0.63458398445E+02  0.93902442277E+02  0.14401362195E+03  0.00000000000E+00 0.  1.
        -13    1    4    4    0    0  0.65952912624E+02  0.61696848364E+02  0.11304982476E+03  0.14469468083E+03  0.00000000000E+00 0.  1.
         13    1    4    4    0    0  0.10328421214E+02  0.60527481052E+02  0.24091290220E+03  0.24861471939E+03  0.00000000000E+00 0. -1.
         21    1    1    2  502  501  0.21359184854E+02 -0.53250467128E+01 -0.74893200421E+02  0.78061273173E+02  0.00000000000E+00 0.  1.
<scales pt_clust_5="13000.00000" pt_clust_6="13000.00000" pt_clust_7="13000.00000" pt_clust_8="13000.00000" pt_clust_9="22.01297"></scales>
<clustering>
<clus scale="   22.013">  2  9  1 -1</clus>
<clus scale="   80.923">  5  6 -1 -1</clus>
<clus scale="   92.979">  7  8 -1 -1</clus>
<clus scale="  167.736">  2  5  1 -1</clus>
<clus scale="  173.874">  1  5  2 -1</clus>
</clustering>
</event>
<event>
 9    1  0.6106093E-005  0.1583194E+03  0.7546771E-02  0.1193960E+00
          3   -1    0    0  502    0  0.00000000000E+00  0.00000000000E+00  0.13896234449E+03  0.13896234449E+03  0.00000000000E+00 0. -1.
         -4   -1    0    0    0  501 -0.00000000000E+00 -0.00000000000E+00 -0.28580437993E+03  0.28580437993E+03  0.00000000000E+00 0.  1.
        -24    2    1    2    0    0 -0.10800887169E+03  0.77758181101E+02 -0.15915039231E+03  0.22327796169E+03  0.82534536489E+02 0.  0.
         23    2    1    2    0    0  0.76293860952E+02 -0.91316995743E+02  0.35117769397E+02  0.16013718887E+03  0.10124778813E+03 0.  0.
         11    1    3    3    0    0 -0.31580466710E+02  0.56773359372E+02 -0.29565271501E+02  0.71376785379E+02  0.00000000000E+00 0. -1.
        -12    1    3    3    0    0 -0.76428404980E+02  0.20984821729E+02 -0.12958512081E+03  0.15190117631E+03  0.00000000000E+00 0.  1.
        -13    1    4    4    0    0  0.66061639769E+01 -0.72598020684E+02 -0.12111087157E+02  0.73897174789E+02  0.00000000000E+00 0.  1.
         13    1    4    4    0    0  0.69687696975E+02 -0.18718975059E+02  0.47228856554E+02  0.86240014079E+02  0.00000000000E+00 0. -1.
         21    1    1    2  502  501  0.31715010738E+02  0.13558814642E+02 -0.22809412527E+02  0.41351573857E+02  0.00000000000E+00 0.  1.
<scales pt_clust_5="13000.00000" pt_clust_6="13000.00000" pt_clust_7="13000.00000" pt_clust_8="13000.00000" pt_clust_9="34.49179"></scales>
<clustering>
<clus scale="   34.492">  2  9  1 -1</clus>
<clus scale="   82.535">  5  6 -1 -1</clus>
<clus scale="  101.248">  7  8 -1 -1</clus>
<clus scale="  147.057">  2  5  1 -1</clus>
<clus scale="  158.319">  1  5  2 -1</clus>
</clustering>
</event>
<event>
 9    1  0.6106093E-005  0.1013822E+03  0.7546771E-02  0.1283480E+00
          1   -1    0    0  502    0  0.00000000000E+00  0.00000000000E+00  0.37636622836E+03  0.37636622836E+03  0.00000000000E+00 0. -1.
         -2   -1    0    0    0  501 -0.00000000000E+00 -0.00000000000E+00 -0.32543040370E+02  0.32543040370E+02  0.00000000000E+00 0.  1.
        -24    2    1    2    0    0 -0.21767814835E+02  0.34148612927E+02  0.94578382045E+02  0.12935705869E+03  0.78410539824E+02 0.  0.
         23    2    1    2    0    0  0.41902539362E+02 -0.35793849977E+02  0.21300274110E+03  0.23806002763E+03  0.90914171271E+02 0.  0.
         11    1    3    3    0    0 -0.33123074204E+02 -0.12108691108E+02  0.63030585747E+02  0.72226125361E+02  0.00000000000E+00 0. -1.
        -12    1    3    3    0    0  0.11355259369E+02  0.46257304035E+02  0.31547796298E+02  0.57130933330E+02  0.00000000000E+00 0.  1.
        -13    1    4    4    0    0 -0.26676550957E+02 -0.25437041812E+02  0.78786039806E+02  0.86982305875E+02  0.00000000000E+00 0. -1.
         13    1    4    4    0    0  0.68579090318E+02 -0.10356808165E+02  0.13421670130E+03  0.15107772176E+03  0.00000000000E+00 0.  1.
         21    1    1    2  502  501 -0.20134724527E+02  0.16452370502E+01  0.36242064838E+02  0.41492182401E+02  0.00000000000E+00 0.  1.
<scales pt_clust_5="13000.00000" pt_clust_6="13000.00000" pt_clust_7="13000.00000" pt_clust_8="13000.00000" pt_clust_9="20.20183"></scales>
<clustering>
<clus scale="   20.202">  1  9  2 -1</clus>
<clus scale="   78.411">  5  6 -1 -1</clus>
<clus scale="   90.339">  2  5  1 -1</clus>
<clus scale="   90.914">  7  8 -1 -1</clus>
<clus scale="   20.202">  1  5  2 -1</clus>
</clustering>
</event>
<event>
 9    1  0.6106093E-005  0.1128889E+03  0.7546771E-02  0.1260050E+00
         -2   -1    0    0    0  501 -0.00000000000E+00  0.00000000000E+00  0.79180121335E+03  0.79180121335E+03  0.00000000000E+00 0.  1.
          1   -1    0    0  502    0  0.00000000000E+00 -0.00000000000E+00 -0.30594185681E+02  0.30594185681E+02  0.00000000000E+00 0. -1.
        -24    2    1    2    0    0 -0.51498533509E+02  0.42210706960E+01  0.35202205879E+03  0.36424598967E+03  0.78010862863E+02 0.  0.
         23    2    1    2    0    0  0.10989098923E+03  0.17712943994E+02  0.28696142812E+03  0.32092924392E+03  0.90878713018E+02 0.  0.
         11    1    3    3    0    0 -0.37490685549E+02 -0.33043282495E+02  0.24534137202E+03  0.25037930994E+03  0.00000000000E+00 0. -1.
        -12    1    3    3    0    0 -0.14007847960E+02  0.37264353191E+02  0.10668068677E+03  0.11386667973E+03  0.00000000000E+00 0.  1.
        -13    1    4    4    0    0  0.12313543859E+03  0.20771473463E+01  0.24898141150E+03  0.27777399815E+03  0.00000000000E+00 0.  1.
         13    1    4    4    0    0 -0.13244449353E+02  0.15635796648E+02  0.37980016615E+02  0.43155245771E+02  0.00000000000E+00 0. -1.
         21    1    1    2  502  501 -0.58392455725E+02 -0.21934014690E+02  0.12222354077E+03  0.13722016544E+03  0.00000000000E+00 0. -1.
<scales pt_clust_5="13000.00000" pt_clust_6="13000.00000" pt_clust_7="13000.00000" pt_clust_8="13000.00000" pt_clust_9="62.37612"></scales>
<clustering>
<clus scale="   62.376">  2  9  1 -1</clus>
<clus scale="   78.011">  5  6 -1 -1</clus>
<clus scale="   90.879">  7  8 -1 -1</clus>
<clus scale="  102.814">  1  5  2 -1</clus>
<clus scale="   62.376">  2  5  1 -1</clus>
</clustering>
</event>
<event>
 9    1  0.6106093E-005  0.9104674E+02  0.7546771E-02  0.1306113E+00
          1   -1    0    0  502    0  0.00000000000E+00  0.00000000000E+00  0.31652682469E+02  0.31652682469E+02  0.00000000000E+00 0. -1.
         -2   -1    0    0    0  501 -0.00000000000E+00 -0.00000000000E+00 -0.49709999102E+03  0.49709999102E+03  0.00000000000E+00 0.  1.
        -24    2    1    2    0    0  0.20748850827E+02  0.19243218581E+02 -0.28656489406E+03  0.29906015097E+03  0.80726198493E+02 0.  0.
         23    2    1    2    0    0  0.37750136674E+01 -0.12019177447E+02 -0.61914050448E+02  0.10996280654E+03  0.89998654570E+02 0.  0.
         11    1    3    3    0    0  0.45205746122E+02 -0.10874505194E+02 -0.16751983837E+03  0.17385255418E+03  0.00000000000E+00 0. -1.
        -12    1    3    3    0    0 -0.24456895295E+02  0.30117723776E+02 -0.11904505569E+03  0.12520759680E+03  0.00000000000E+00 0.  1.
        -11    1    4    4    0    0 -0.11760997791E+02 -0.48235781709E+02 -0.45251485741E+02  0.67176697358E+02  0.00000000000E+00 0.  1.
         11    1    4    4    0    0  0.15536011459E+02  0.36216604261E+02 -0.16662564707E+02  0.42786109181E+02  0.00000000000E+00 0. -1.
         21    1    1    2  502  501 -0.24523864494E+02 -0.72240411341E+01 -0.11696836404E+03  0.11972971597E+03  0.00000000000E+00 0.  1.
<scales pt_clust_5="13000.00000" pt_clust_6="13000.00000" pt_clust_7="13000.00000" pt_clust_8="13000.00000" pt_clust_9="25.56573"></scales>
<clustering>
<clus scale="   25.566">  2  9  1 -1</clus>
<clus scale="   80.726">  5  6 -1 -1</clus>
<clus scale="   81.893">  2  5  1 -1</clus>
<clus scale="   89.999">  7  8 -1 -1</clus>
<clus scale="   91.047">  1  5  2 -1</clus>
</clustering>
</event>
<event>
 9    1  0.6106093E-005  0.1790159E+03  0.7546771E-02  0.1169714E+00
          3   -1    0    0  502    0  0.00000000000E+00  0.00000000000E+00  0.17993000687E+03  0.17993000687E+03  0.00000000000E+00 0. -1.
         -4   -1    0    0    0  501 -0.00000000000E+00 -0.00000000000E+00 -0.28032280733E+03  0.28032280733E+03  0.00000000000E+00 0.  1.
        -24    2    1    2    0    0 -0.29650939656E+02  0.17021939122E+03 -0.73613334222E+02  0.20396960620E+03  0.79566688439E+02 0.  0.
         23    2    1    2    0    0  0.20283888745E+02 -0.14671926980E+03  0.46852641846E+02  0.17842638626E+03  0.87765739291E+02 0.  0.
         11    1    3    3    0    0 -0.41201739733E+02  0.34194815216E+02 -0.24592928771E+02  0.58920971566E+02  0.00000000000E+00 0. -1.
        -12    1    3    3    0    0  0.11550800077E+02  0.13602457600E+03 -0.49020405450E+02  0.14504863463E+03  0.00000000000E+00 0.  1.
        -11    1    4    4    0    0  0.45061425635E+02 -0.39373968993E+02  0.30127318754E+02  0.66996245043E+02  0.00000000000E+00 0. -1.
         11    1    4    4    0    0 -0.24777536890E+02 -0.10734530081E+03  0.16725323092E+02  0.11143014122E+03  0.00000000000E+00 0.  1.
         21    1    1    2  502  501  0.93670509103E+01 -0.23500121417E+02 -0.73632108089E+02  0.77856821737E+02  0.00000000000E+00 0. -1.
<scales pt_clust_5="13000.00000" pt_clust_6="13000.00000" pt_clust_7="13000.00000" pt_clust_8="13000.00000" pt_clust_9="25.29817"></scales>
<clustering>
<clus scale="   25.298">  2  9  1 -1</clus>
<clus scale="   79.567">  5  6 -1 -1</clus>
<clus scale="   87.766">  7  8 -1 -1</clus>
<clus scale="  175.142">  2  5  1 -1</clus>
<clus scale="  179.016">  1  5  2 -1</clus>
</clustering>
</event>
<event>
 9    1  0.6106093E-005  0.1571577E+03  0.7546771E-02  0.1193343E+00
          1   -1    0    0  502    0  0.00000000000E+00  0.00000000000E+00  0.74414446197E+03  0.74414446197E+03  0.00000000000E+00 0. -1.
         -2   -1    0    0    0  501 -0.00000000000E+00 -0.00000000000E+00 -0.51354773078E+02  0.51354773078E+02  0.00000000000E+00 0.  1.
        -24    2    1    2    0    0 -0.66644389368E+02  0.79121175468E+02  0.21956596319E+03  0.25680488377E+03  0.83892199259E+02 0.  0.
         23    2    1    2    0    0  0.10651627405E+03 -0.10278214696E+03  0.45768814717E+03  0.48979687731E+03  0.92264048188E+02 0.  0.
         13    1    3    3    0    0 -0.60068024578E+02  0.92851009481E+02  0.21345471789E+03  0.24040048695E+03  0.00000000000E+00 0. -1.
        -14    1    3    3    0    0 -0.65763647899E+01 -0.13729834013E+02  0.61112453001E+01  0.16404396819E+02  0.00000000000E+00 0.  1.
        -11    1    4    4    0    0  0.61031135447E+02 -0.29267370919E+02  0.93126604587E+02  0.11512577025E+03  0.00000000000E+00 0.  1.
         11    1    4    4    0    0  0.45485138605E+02 -0.73514776038E+02  0.36456154259E+03  0.37467110706E+03  0.00000000000E+00 0. -1.
         21    1    1    2  502  501 -0.39871884684E+02  0.23660971489E+02  0.15535578530E+02  0.48897473966E+02  0.00000000000E+00 0. -1.
<scales pt_clust_5="13000.00000" pt_clust_6="13000.00000" pt_clust_7="13000.00000" pt_clust_8="13000.00000" pt_clust_9="46.36387"></scales>
<clustering>
<clus scale="   46.364">  2  9  1 -1</clus>
<clus scale="   83.892">  5  6 -1 -1</clus>
<clus scale="   92.264">  7  8 -1 -1</clus>
<clus scale="  152.394">  2  5  1 -1</clus>
<clus scale="  157.158">  1  5  2 -1</clus>
</clustering>
</event>
<event>
 9    1  0.6106093E-005  0.1315677E+03  0.7546771E-02  0.1230158E+00
          1   -1    0    0  502    0  0.00000000000E+00  0.00000000000E+00  0.13013762049E+03  0.13013762049E+03  0.00000000000E+00 0. -1.
         -2   -1    0    0    0  501 -0.00000000000E+00 -0.00000000000E+00 -0.57450194127E+03  0.57450194127E+03  0.00000000000E+00 0.  1.
        -24    2    1    2    0    0 -0.50652577759E+02 -0.73155513053E+02 -0.38283264396E+03  0.40128049598E+03  0.80918418471E+02 0.  0.
         23    2    1    2    0    0  0.91846247421E+01  0.86936573943E+02  0.80571313509E+02  0.15468906671E+03  0.98967901754E+02 0.  0.
         13    1    3    3    0    0 -0.10498010964E+02 -0.20968601479E+02 -0.15538717374E+02  0.28130805531E+02  0.00000000000E+00 0. -1.
        -14    1    3    3    0    0 -0.40154566795E+02 -0.52186911574E+02 -0.36729392658E+03  0.37314969045E+03  0.00000000000E+00 0.  1.
        -11    1    4    4    0    0 -0.16936554580E+01  0.10771019794E+03  0.72673150512E+02  0.12994515002E+03  0.00000000000E+00 0. -1.
         11    1    4    4    0    0  0.10878280200E+02 -0.20773623998E+02  0.78981629974E+01  0.24743916684E+02  0.00000000000E+00 0.  1.
         21    1    1    2  502  501  0.41467953017E+02 -0.13781060889E+02 -0.14210299033E+03  0.14866999908E+03  0.00000000000E+00 0. -1.
<scales pt_clust_5="13000.00000" pt_clust_6="13000.00000" pt_clust_7="13000.00000" pt_clust_8="13000.00000" pt_clust_9="43.69793"></scales>
<clustering>
<clus scale="   43.698">  2  9  1 -1</clus>
<clus scale="   80.918">  5  6 -1 -1</clus>
<clus scale="   98.968">  7  8 -1 -1</clus>
<clus scale="  118.588">  2  5  1 -1</clus>
<clus scale="  131.568">  1  5  2 -1</clus>
</clustering>
</event>
<event>
 9    1  0.6106093E-005  0.2000611E+03  0.7546771E-02  0.1150794E+00
         -2   -1    0    0    0  501 -0.00000000000E+00  0.00000000000E+00  0.19963333841E+03  0.19963333841E+03  0.00000000000E+00 0.  1.
          1   -1    0    0  502    0  0.00000000000E+00 -0.00000000000E+00 -0.98167137030E+03  0.98167137030E+03  0.00000000000E+00 0. -1.
         23    2    1    2    0    0 -0.11201102969E+02  0.18681139211E+03  0.12126851964E+03  0.24140860820E+03  0.92455942632E+02 0.  0.
        -24    2    1    2    0    0  0.33122757477E+02 -0.17380866370E+03 -0.89028770578E+03  0.91127582401E+03  0.80652710548E+02 0.  0.
         13    1    4    4    0    0  0.40793217313E+02 -0.13684478003E+03 -0.81080680555E+03  0.82328503954E+03  0.00000000000E+00 0. -1.
        -14    1    4    4    0    0 -0.76704598365E+01 -0.36963883678E+02 -0.79480900231E+02  0.87990784473E+02  0.00000000000E+00 0.  1.
        -11    1    3    3    0    0  0.77560723743E+01  0.10335506282E+03  0.11615443144E+03  0.15567362529E+03  0.00000000000E+00 0.  1.
         11    1    3    3    0    0 -0.18957175343E+02  0.83456329297E+02  0.51140881991E+01  0.85734982912E+02  0.00000000000E+00 0. -1.
         21    1    1    2  502  501 -0.21921654508E+02 -0.13002728410E+02 -0.13018845737E+02  0.28620276498E+02  0.00000000000E+00 0. -1.
<scales pt_clust_5="13000.00000" pt_clust_6="13000.00000" pt_clust_7="13000.00000" pt_clust_8="13000.00000" pt_clust_9="25.48784"></scales>
<clustering>
<clus scale="   25.488">  1  9  2 -1</clus>
<clus scale="   80.653">  5  6 -1 -1</clus>
<clus scale="   92.456">  7  8 -1 -1</clus>
<clus scale="  194.888">  2  5  1 -1</clus>
<clus scale="  194.888">  2  5  1 -1</clus>
</clustering>
</event>
<event>
 9    1  0.6106093E-005  0.9578621E+02  0.7546771E-02  0.1298077E+00
          1   -1    0    0  502    0  0.00000000000E+00  0.00000000000E+00  0.53189238719E+03  0.53189238719E+03  0.00000000000E+00 0. -1.
         -2   -1    0    0    0  501 -0.00000000000E+00 -0.00000000000E+00 -0.15653345748E+03  0.15653345748E+03  0.00000000000E+00 0.  1.
        -24    2    1    2    0    0 -0.10922092095E+02 -0.43826524398E+02  0.80333152286E+02  0.12123848548E+03  0.78773718139E+02 0.  0.
         23    2    1    2    0    0 -0.55826997440E+01  0.14981072907E+02  0.42375704434E+03  0.43423546071E+03  0.93460171333E+02 0.  0.
         11    1    3    3    0    0 -0.43742839711E+02 -0.12913003292E+02  0.37443991089E+02  0.59010457960E+02  0.00000000000E+00 0. -1.
        -12    1    3    3    0    0  0.32820747616E+02 -0.30913521106E+02  0.42889161197E+02  0.62228027523E+02  0.00000000000E+00 0.  1.
        -11    1    4    4    0    0  0.33992997764E+02 -0.21690415288E+02  0.15869375082E+03  0.16373669277E+03  0.00000000000E+00 0.  1.
         11    1    4    4    0    0 -0.39575697508E+02  0.36671488195E+02  0.26506329353E+03  0.27049876794E+03  0.00000000000E+00 0. -1.
         21    1    1    2  502  501  0.16504791839E+02  0.28845451491E+02 -0.12873126692E+03  0.13295189847E+03  0.00000000000E+00 0.  1.
<scales pt_clust_5="13000.00000" pt_clust_6="13000.00000" pt_clust_7="13000.00000" pt_clust_8="13000.00000" pt_clust_9="33.23354"></scales>
<clustering>
<clus scale="   33.234">  2  9  1 -1</clus>
<clus scale="   78.774">  5  6 -1 -1</clus>
<clus scale="   81.520">  2  5  1 -1</clus>
<clus scale="   93.460">  7  8 -1 -1</clus>
<clus scale="   95.786">  1  5  2 -1</clus>
</clustering>
</event>
<event>
 9    1  0.6106093E-005  0.1438551E+03  0.7546771E-02  0.1209935E+00
          1   -1    0    0  502    0  0.00000000000E+00  0.00000000000E+00  0.73073365110E+03  0.73073365110E+03  0.00000000000E+00 0. -1.
         -2   -1    0    0    0  501 -0.00000000000E+00 -0.00000000000E+00 -0.74836028937E+02  0.74836028937E+02  0.00000000000E+00 0.  1.
         23    2    1    2    0    0  0.22854340322E+02  0.12159779432E+03  0.36074482843E+02  0.15729496633E+03  0.90177567421E+02 0.  0.
        -24    2    1    2    0    0 -0.54970803738E+01 -0.11059964918E+03  0.61030071788E+03  0.62562719333E+03  0.81730768327E+02 0.  0.
         11    1    4    4    0    0  0.69542183628E+01 -0.12002596735E+03  0.50142313496E+03  0.51563529191E+03  0.00000000000E+00 0. -1.
        -12    1    4    4    0    0 -0.12451298737E+02  0.94263181637E+01  0.10887758292E+03  0.10999190141E+03  0.00000000000E+00 0.  1.
        -11    1    3    3    0    0 -0.57156027246E+01  0.99661078044E+02 -0.82672581003E+01  0.10016659197E+03  0.00000000000E+00 0.  1.
         11    1    3    3    0    0  0.28569943046E+02  0.21936716273E+02  0.44341740943E+02  0.57128374354E+02  0.00000000000E+00 0. -1.
         21    1    1    2  502  501 -0.17357259948E+02 -0.10998145133E+02  0.95224214359E+01  0.22647520378E+02  0.00000000000E+00 0. -1.
<scales pt_clust_5="13000.00000" pt_clust_6="13000.00000" pt_clust_7="13000.00000" pt_clust_8="13000.00000" pt_clust_9="20.54833"></scales>
<clustering>
<clus scale="   20.548">  2  9  1 -1</clus>
<clus scale="   81.731">  5  6 -1 -1</clus>
<clus scale="   90.178">  7  8 -1 -1</clus>
<clus scale="  138.716">  1  5  2 -1</clus>
<clus scale="  138.716">  1  5  2 -1</clus>
</clustering>
</event>
<event>
 9    1  0.6106093E-005  0.1287065E+03  0.7546771E-02  0.1232646E+00
          1   -1    0    0  502    0  0.00000000000E+00  0.00000000000E+00  0.78926487668E+02  0.78926487668E+02  0.00000000000E+00 0. -1.
         -2   -1    0    0    0  501 -0.00000000000E+00 -0.00000000000E+00 -0.50261068361E+03  0.50261068361E+03  0.00000000000E+00 0.  1.
        -24    2    1    2    0    0  0.20224832505E+02 -0.10211820494E+03 -0.25843336805E+03  0.29014698906E+03  0.80995665985E+02 0.  0.
         23    2    1    2    0    0 -0.77814552448E+02  0.49049468593E+02 -0.28571066750E+02  0.13386487084E+03  0.92965277646E+02 0.  0.
         13    1    3    3    0    0 -0.11776448339E+02 -0.51658845584E+02 -0.48340572047E+02  0.71722604306E+02  0.00000000000E+00 0. -1.
        -14    1    3    3    0    0  0.32001280844E+02 -0.50459359351E+02 -0.21009279600E+03  0.21842438475E+03  0.00000000000E+00 0.  1.
        -13    1    4    4    0    0 -0.88718805232E+02  0.22938843313E+02  0.27206811582E+01  0.91676709367E+02  0.00000000000E+00 0. -1.
         13    1    4    4    0    0  0.10904252784E+02  0.26110625279E+02 -0.31291747909E+02  0.42188161473E+02  0.00000000000E+00 0.  1.
         21    1    1    2  502  501  0.57589719943E+02  0.53068736343E+02 -0.13667976114E+03  0.15752531138E+03  0.00000000000E+00 0.  1.
<scales pt_clust_5="13000.00000" pt_clust_6="13000.00000" pt_clust_7="13000.00000" pt_clust_8="13000.00000" pt_clust_9="78.31262"></scales>
<clustering>
<clus scale="   78.313">  2  9  1 -1</clus>
<clus scale="   80.996">  5  6 -1 -1</clus>
<clus scale="   92.965">  7  8 -1 -1</clus>
<clus scale="  120.346">  2  5  1 -1</clus>
<clus scale="  128.706">  1  5  2 -1</clus>
</clustering>
</event>
<event>
 9    1  0.6106093E-005  0.1104524E+03  0.7546771E-02  0.1274331E+00
          1   -1    0    0  502    0  0.00000000000E+00  0.00000000000E+00  0.17709990401E+03  0.17709990401E+03  0.00000000000E+00 0. -1.
         -2   -1    0    0    0  501 -0.00000000000E+00 -0.00000000000E+00 -0.14013351009E+03  0.14013351009E+03  0.00000000000E+00 0.  1.
        -24    2    1    2    0    0  0.49231956383E+02 -0.86634009271E+01 -0.61988498151E+02  0.11337800246E+03  0.80704135541E+02 0.  0.
         23    2    1    2    0    0 -0.12324529160E+02 -0.75172004343E+01  0.11648141196E+03  0.15991057186E+03  0.10860510733E+03 0.  0.
         11    1    3    3    0    0  0.13009811744E+02  0.16542691902E+02 -0.65800738331E+02  0.69084390580E+02  0.00000000000E+00 0. -1.
        -12    1    3    3    0    0  0.36222144639E+02 -0.25206092829E+02  0.38122401800E+01  0.44293611878E+02  0.00000000000E+00 0.  1.
        -13    1    4    4    0    0 -0.40968272259E+02  0.21834962191E+02  0.12416300078E+02  0.48055482657E+02  0.00000000000E+00 0.  1.
         13    1    4    4    0    0  0.28643743099E+02 -0.29352162625E+02  0.10406511188E+03  0.11185508920E+03  0.00000000000E+00 0. -1.
         21    1    1    2  502  501 -0.36907427223E+02  0.16180601361E+02 -0.17526519885E+02  0.43944839787E+02  0.00000000000E+00 0. -1.
<scales pt_clust_5="13000.00000" pt_clust_6="13000.00000" pt_clust_7="13000.00000" pt_clust_8="13000.00000" pt_clust_9="40.29851"></scales>
<clustering>
<clus scale="   40.299">  2  9  1 -1</clus>
<clus scale="   80.704">  5  6 -1 -1</clus>
<clus scale="   83.173">  2  5  1 -1</clus>
<clus scale="  108.605">  7  8 -1 -1</clus>
<clus scale="  110.452">  1  5  2 -1</clus>
</clustering>
</event>
<event>
 9    1  0.6106093E-005  0.9992446E+02  0.7546771E-02  0.1286530E+00
         -2   -1    0    0    0  501 -0.00000000000E+00  0.00000000000E+00  0.17591927666E+03  0.17591927666E+03  0.00000000000E+00 0.  1.
          1   -1    0    0  502    0  0.00000000000E+00 -0.00000000000E+00 -0.11361634900E+03  0.11361634900E+03  0.00000000000E+00 0. -1.
        -24    2    1    2    0    0  0.62889864514E+01 -0.54554581601E+02 -0.41710773363E+00  0.96960523308E+02  0.79908794116E+02 0.  0.
         23    2    1    2    0    0 -0.24705235472E+01  0.27449087094E+02 -0.26303101080E+02  0.99438604027E+02  0.91851113089E+02 0.  0.
         11    1    3    3    0    0  0.24253892023E+01 -0.27578163208E+02 -0.40156431596E+02  0.48774753687E+02  0.00000000000E+00 0. -1.
        -12    1    3    3    0    0  0.38635972490E+01 -0.26976418393E+02  0.39739323862E+02  0.48185769622E+02  0.00000000000E+00 0.  1.
        -13    1    4    4    0    0  0.59135515061E+01  0.51941248794E+02 -0.43793625033E+02  0.68196370954E+02  0.00000000000E+00 0. -1.
         13    1    4    4    0    0 -0.83840750533E+01 -0.24492161700E+02  0.17490523954E+02  0.31242233073E+02  0.00000000000E+00 0.  1.
         21    1    1    2  502  501 -0.38184629041E+01  0.27105494507E+02  0.89023136474E+02  0.93136498319E+02  0.00000000000E+00 0. -1.
<scales pt_clust_5="13000.00000" pt_clust_6="13000.00000" pt_clust_7="13000.00000" pt_clust_8="13000.00000" pt_clust_9="27.37313"></scales>
<clustering>
<clus scale="   27.373">  1  9  2 -1</clus>
<clus scale="   79.909">  5  6 -1 -1</clus>
<clus scale="   89.071">  1  5  2 -1</clus>
<clus scale="   91.851">  7  8 -1 -1</clus>
<clus scale="   99.924">  2  5  1 -1</clus>
</clustering>
</event>
<event>
 9    1  0.6106093E-005  0.1611545E+03  0.7546771E-02  0.1190696E+00
         -2   -1    0    0    0  501 -0.00000000000E+00  0.00000000000E+00  0.51751976644E+03  0.51751976644E+03  0.00000000000E+00 0.  1.
          1   -1    0    0  502    0  0.00000000000E+00 -0.00000000000E+00 -0.15434762817E+03  0.15434762817E+03  0.00000000000E+00 0. -1.
        -24    2    1    2    0    0  0.88905627205E+02 -0.10496292443E+03  0.39116010312E+03  0.42248897709E+03  0.81051116157E+02 0.  0.
         23    2    1    2    0    0 -0.55528356551E+02  0.11205417683E+03 -0.86043263940E+02  0.18203789622E+03  0.10047295887E+03 0.  0.
         13    1    3    3    0    0  0.19937901380E+02  0.65938461016E+01  0.20656024461E+02  0.29456239821E+02  0.00000000000E+00 0. -1.
        -14    1    3    3    0    0  0.68967725825E+02 -0.11155677053E+03  0.37050407866E+03  0.39303273727E+03  0.00000000000E+00 0.  1.
        -13    1    4    4    0    0  0.17013980102E+02  0.74691160318E+02 -0.26631930507E+02  0.81101816694E+02  0.00000000000E+00 0.  1.
         13    1    4    4    0    0 -0.72542336653E+02  0.37363016513E+02 -0.59411333433E+02  0.10093607953E+03  0.00000000000E+00 0. -1.
         21    1    1    2  502  501 -0.33377270654E+02 -0.70912523972E+01  0.58055299085E+02  0.67340521299E+02  0.00000000000E+00 0. -1.
<scales pt_clust_5="13000.00000" pt_clust_6="13000.00000" pt_clust_7="13000.00000" pt_clust_8="13000.00000" pt_clust_9="34.12225"></scales>
<clustering>
<clus scale="   34.122">  1  9  2 -1</clus>
<clus scale="   81.051">  5  6 -1 -1</clus>
<clus scale="  100.473">  7  8 -1 -1</clus>
<clus scale="  149.817">  1  5  2 -1</clus>
<clus scale="  161.155">  2  5  1 -1</clus>
</clustering>
</event>
<event>
 9    1  0.6106093E-005  0.1179659E+03  0.7546771E-02  0.1251822E+00
         -2   -1    0    0    0  501 -0.00000000000E+00  0.00000000000E+00  0.42429142165E+02  0.42429142165E+02  0.00000000000E+00 0.  1.
          1   -1    0    0  502    0  0.00000000000E+00 -0.00000000000E+00 -0.60439750126E+03  0.60439750126E+03  0.00000000000E+00 0. -1.
         23    2    1    2    0    0 -0.15089596712E+02 -0.21564737141E+02 -0.11054166757E+03  0.15595892025E+03  0.10682223889E+03 0.  0.
        -24    2    1    2    0    0  0.60122237420E+02  0.52936844885E+01 -0.41778716657E+03  0.43235017432E+03  0.93476468497E+02 0.  0.
         13    1    4    4    0    0  0.34377675175E+02 -0.41482346942E+02 -0.26720487479E+03  0.27258219819E+03  0.00000000000E+00 0. -1.
        -14    1    4    4    0    0  0.25744562244E+02  0.46776031431E+02 -0.15058229178E+03  0.15976797614E+03  0.00000000000E+00 0.  1.
        -11    1    3    3    0    0 -0.16067235811E+02  0.40425140516E+02 -0.68163169526E+02  0.80861398282E+02  0.00000000000E+00 0.  1.
         11    1    3    3    0    0  0.97763909888E+00 -0.61989877657E+02 -0.42378498042E+02  0.75097521973E+02  0.00000000000E+00 0. -1.
         21    1    1    2  502  501 -0.45032640708E+02  0.16271052652E+02 -0.33639524961E+02  0.58517548848E+02  0.00000000000E+00 0.  1.
<scales pt_clust_5="13000.00000" pt_clust_6="13000.00000" pt_clust_7="13000.00000" pt_clust_8="13000.00000" pt_clust_9="47.88200"></scales>
<clustering>
<clus scale="   47.882">  1  9  2 -1</clus>
<clus scale="   93.476">  5  6 -1 -1</clus>
<clus scale="  106.032">  2  5  1 -1</clus>
<clus scale="  106.822">  7  8 -1 -1</clus>
<clus scale="  106.032">  2  5  1 -1</clus>
</clustering>
</event>
<event>
 9    1  0.6106093E-005  0.1154093E+03  0.7546771E-02  0.1252650E+00
          1   -1    0    0  502    0  0.00000000000E+00  0.00000000000E+00  0.64030802285E+03  0.64030802285E+03  0.00000000000E+00 0. -1.
         -2   -1    0    0    0  501 -0.00000000000E+00 -0.00000000000E+00 -0.65796844834E+02  0.65796844834E+02  0.00000000000E+00 0.  1.
        -24    2    1    2    0    0 -0.32856895683E+02  0.51381174989E+02  0.21694510974E+03  0.24066402962E+03  0.84465340690E+02 0.  0.
         23    2    1    2    0    0  0.17111177029E+02 -0.81949626387E+02  0.39558556087E+03  0.41417837915E+03  0.89706522284E+02 0.  0.
         13    1    3    3    0    0 -0.30059027091E+02  0.54037836741E+02  0.22413283171E+03  0.23250625618E+03  0.00000000000E+00 0. -1.
        -14    1    3    3    0    0 -0.27978685918E+01 -0.26566617522E+01 -0.71877219784E+01  0.81577734438E+01  0.00000000000E+00 0.  1.
        -13    1    4    4    0    0 -0.23894489708E+02 -0.79603606154E+01  0.31170633314E+02  0.40073961131E+02  0.00000000000E+00 0. -1.
         13    1    4    4    0    0  0.41005666737E+02 -0.73989265772E+02  0.36441492756E+03  0.37410441802E+03  0.00000000000E+00 0.  1.
         21    1    1    2  502  501  0.15745718654E+02  0.30568451398E+02 -0.38019492593E+02  0.51262458913E+02  0.00000000000E+00 0.  1.
<scales pt_clust_5="13000.00000" pt_clust_6="13000.00000" pt_clust_7="13000.00000" pt_clust_8="13000.00000" pt_clust_9="34.38543"></scales>
<clustering>
<clus scale="   34.385">  2  9  1 -1</clus>
<clus scale="   84.465">  5  6 -1 -1</clus>
<clus scale="   89.707">  7  8 -1 -1</clus>
<clus scale="  111.384">  2  5  1 -1</clus>
<clus scale="  115.409">  1  5  2 -1</clus>
</clustering>
</event>
<event>
 9    1  0.6106093E-005  0.1050441E+03  0.7546771E-02  0.1273631E+00
         -2   -1    0    0    0  501 -0.00000000000E+00  0.00000000000E+00  0.58380305103E+03  0.58380305103E+03  0.00000000000E+00 0.  1.
          1   -1    0    0  502    0  0.00000000000E+00 -0.00000000000E+00 -0.68733583859E+02  0.68733583859E+02  0.00000000000E+00 0. -1.
        -24    2    1    2    0    0 -0.41631692513E+02 -0.84098678892E+01  0.42783537303E+03  0.43741151711E+03  0.80509658940E+02 0.  0.
         23    2    1    2    0    0  0.46589390508E+02  0.33965588464E+02 -0.17298310205E+02  0.10740001773E+03  0.88945487599E+02 0.  0.
         13    1    3    3    0    0 -0.11329894032E+02  0.33690520121E+02  0.11707781558E+03  0.12235453627E+03  0.00000000000E+00 0. -1.
        -14    1    3    3    0    0 -0.30301798481E+02 -0.42100388010E+02  0.31075755746E+03  0.31505698084E+03  0.00000000000E+00 0.  1.
        -11    1    4    4    0    0  0.66154787329E+02  0.20899844243E+01 -0.21899681679E+02  0.69716712337E+02  0.00000000000E+00 0.  1.
         11    1    4    4    0    0 -0.19565396821E+02  0.31875604039E+02  0.46013714746E+01  0.37683305390E+02  0.00000000000E+00 0. -1.
         21    1    1    2  502  501 -0.49576979949E+01 -0.25555720574E+02  0.10453240435E+03  0.10772510005E+03  0.00000000000E+00 0.  1.
<scales pt_clust_5="13000.00000" pt_clust_6="13000.00000" pt_clust_7="13000.00000" pt_clust_8="13000.00000" pt_clust_9="26.03217"></scales>
<clustering>
<clus scale="   26.032">  1  9  2 -1</clus>
<clus scale="   80.510">  5  6 -1 -1</clus>
<clus scale="   88.945">  7  8 -1 -1</clus>
<clus scale="   98.004">  1  5  2 -1</clus>
<clus scale="  105.044">  2  5  1 -1</clus>
</clustering>
</event>
<event>
 9    1  0.6106093E-005  0.1108773E+03  0.7546771E-02  0.1263635E+00
          1   -1    0    0  502    0  0.00000000000E+00  0.00000000000E+00  0.26246198635E+03  0.26246198635E+03  0.00000000000E+00 0. -1.
         -2   -1    0    0    0  501 -0.00000000000E+00 -0.00000000000E+00 -0.72760867761E+02  0.72760867761E+02  0.00000000000E+00 0.  1.
         23    2    1    2    0    0  0.57080404105E+02  0.56357029760E+02  0.99377404320E+02  0.15848605648E+03  0.93849210303E+02 0.  0.
        -24    2    1    2    0    0 -0.21279556823E+02 -0.41621613510E+02  0.99210490363E+02  0.13701516691E+03  0.82129509399E+02 0.  0.
         13    1    4    4    0    0  0.17308193265E+02 -0.25568468870E+02  0.88699751840E+02  0.93919998568E+02  0.00000000000E+00 0. -1.
        -14    1    4    4    0    0 -0.38587750088E+02 -0.16053144640E+02  0.10510738523E+02  0.43095168337E+02  0.00000000000E+00 0.  1.
        -11    1    3    3    0    0  0.43267016235E+02  0.36605456776E+02  0.46186398982E+00  0.56676339667E+02  0.00000000000E+00 0.  1.
         11    1    3    3    0    0  0.13813387870E+02  0.19751572984E+02  0.98915540330E+02  0.10180971682E+03  0.00000000000E+00 0. -1.
         21    1    1    2  502  501 -0.35800847282E+02 -0.14735416251E+02 -0.88867760907E+01  0.39721630725E+02  0.00000000000E+00 0.  1.
<scales pt_clust_5="13000.00000" pt_clust_6="13000.00000" pt_clust_7="13000.00000" pt_clust_8="13000.00000" pt_clust_9="38.71477"></scales>
<clustering>
<clus scale="   38.715">  2  9  1 -1</clus>
<clus scale="   82.130">  5  6 -1 -1</clus>
<clus scale="   93.849">  7  8 -1 -1</clus>
<clus scale="  101.150">  1  5  2 -1</clus>
<clus scale="  101.150">  1  5  2 -1</clus>
</clustering>
</event>
<event>
 9    1  0.6106093E-005  0.1134942E+03  0.7546771E-02  0.1259513E+00
          1   -1    0    0  502    0  0.00000000000E+00  0.00000000000E+00  0.35947926215E+03  0.35947926215E+03  0.00000000000E+00 0. -1.
         -2   -1    0    0    0  501 -0.00000000000E+00 -0.00000000000E+00 -0.17805771710E+03  0.17805771710E+03  0.00000000000E+00 0.  1.
        -24    2    1    2    0    0 -0.45698525014E+02 -0.58845941705E+02 -0.13106268760E+03  0.16948493927E+03  0.77437177850E+02 0.  0.
         23    2    1    2    0    0  0.57489214410E+02  0.33618169398E+02  0.31976058535E+03  0.33926999418E+03  0.91772032345E+02 0.  0.
         11    1    3    3    0    0 -0.40858767170E+02  0.53657112868E+00 -0.25199580123E+02  0.48007766056E+02  0.00000000000E+00 0. -1.
        -12    1    3    3    0    0 -0.48397578435E+01 -0.59382512833E+02 -0.10586310748E+03  0.12147717321E+03  0.00000000000E+00 0.  1.
        -13    1    4    4    0    0  0.21708914912E+00  0.47031122498E+02  0.83878349842E+02  0.96164188674E+02  0.00000000000E+00 0.  1.
         13    1    4    4    0    0  0.57272125261E+02 -0.13412953100E+02  0.23588223551E+03  0.24310580550E+03  0.00000000000E+00 0. -1.
         21    1    1    2  502  501 -0.11790689396E+02  0.25227772307E+02 -0.72763526890E+01  0.28782045800E+02  0.00000000000E+00 0. -1.
<scales pt_clust_5="13000.00000" pt_clust_6="13000.00000" pt_clust_7="13000.00000" pt_clust_8="13000.00000" pt_clust_9="27.84710"></scales>
<clustering>
<clus scale="   27.847">  2  9  1 -1</clus>
<clus scale="   77.437">  5  6 -1 -1</clus>
<clus scale="   91.772">  7  8 -1 -1</clus>
<clus scale="  102.251">  2  5  1 -1</clus>
<clus scale="  113.494">  1  5  2 -1</clus>
</clustering>
</event>
<event>
 9    1  0.6106093E-005  0.3291814E+03  0.7546771E-02  0.1072013E+00
          1   -1    0    0  502    0  0.00000000000E+00  0.00000000000E+00  0.70072627744E+03  0.70072627744E+03  0.00000000000E+00 0. -1.
         -2   -1    0    0    0  501 -0.00000000000E+00 -0.00000000000E+00 -0.18770348076E+03  0.18770348076E+03  0.00000000000E+00 0.  1.
        -24    2    1    2    0    0 -0.10465032490E+03 -0.30442777368E+03  0.26687275167E+03  0.43077038608E+03  0.10350893705E+03 0.  0.
         23    2    1    2    0    0  0.11638355306E+03  0.28130940780E+03  0.27452032899E+03  0.41922760795E+03  0.87808097010E+02 0.  0.
         13    1    3    3    0    0  0.80789921426E+01 -0.10014898792E+03  0.11336324287E+03  0.15148041038E+03  0.00000000000E+00 0. -1.
        -14    1    3    3    0    0 -0.11272931705E+03 -0.20427878575E+03  0.15350950880E+03  0.27928997569E+03  0.00000000000E+00 0.  1.
        -11    1    4    4    0    0  0.51516591586E+02  0.14280273909E+03  0.79438397725E+02  0.17133896385E+03  0.00000000000E+00 0.  1.
         11    1    4    4    0    0  0.64866961475E+02  0.13850666871E+03  0.19508193126E+03  0.24788864410E+03  0.00000000000E+00 0. -1.
         21    1    1    2  502  501 -0.11733228157E+02  0.23118365872E+02 -0.28370283978E+02  0.38431764161E+02  0.00000000000E+00 0. -1.
<scales pt_clust_5="13000.00000" pt_clust_6="13000.00000" pt_clust_7="13000.00000" pt_clust_8="13000.00000" pt_clust_9="25.92542"></scales>
<clustering>
<clus scale="   25.925">  2  9  1 -1</clus>
<clus scale="   87.808">  7  8 -1 -1</clus>
<clus scale="  103.509">  5  6 -1 -1</clus>
<clus scale="  324.587">  1  7  2 -1</clus>
<clus scale="  324.587">  1  5  2 -1</clus>
</clustering>
</event>
<event>
 9    1  0.6106093E-005  0.1185802E+03  0.7546771E-02  0.1249520E+00
          1   -1    0    0  502    0  0.00000000000E+00  0.00000000000E+00  0.12680117960E+04  0.12680117960E+04  0.00000000000E+00 0. -1.
         -2   -1    0    0    0  501 -0.00000000000E+00 -0.00000000000E+00 -0.21772814978E+02  0.21772814978E+02  0.00000000000E+00 0.  1.
         23    2    1    2    0    0 -0.28097743546E+02  0.63870886197E+02  0.45719294967E+03  0.47149108806E+03  0.91703214771E+02 0.  0.
        -24    2    1    2    0    0  0.99319566410E+01 -0.78641403211E+02  0.78682270046E+03  0.79477529201E+03  0.79339074660E+02 0.  0.
         11    1    4    4    0    0  0.26720689874E+02 -0.69080162265E+01  0.91803310537E+02  0.95862212477E+02  0.00000000000E+00 0. -1.
        -12    1    4    4    0    0 -0.16788733233E+02 -0.71733386984E+02  0.69501938992E+03  0.69891307953E+03  0.00000000000E+00 0.  1.
        -13    1    3    3    0    0  0.14906475994E+02  0.66660476379E+02  0.33576902709E+03  0.34264655505E+03  0.00000000000E+00 0. -1.
         13    1    3    3    0    0 -0.43004219540E+02 -0.27895901823E+01  0.12142392258E+03  0.12884453301E+03  0.00000000000E+00 0.  1.
         21    1    1    2  502  501  0.18165786905E+02  0.14770517014E+02  0.22233309399E+01  0.23518230954E+02  0.00000000000E+00 0. -1.
<scales pt_clust_5="13000.00000" pt_clust_6="13000.00000" pt_clust_7="13000.00000" pt_clust_8="13000.00000" pt_clust_9="23.41290"></scales>
<clustering>
<clus scale="   23.413">  2  9  1 -1</clus>
<clus scale="   79.339">  5  6 -1 -1</clus>
<clus scale="   91.703">  7  8 -1 -1</clus>
<clus scale="  109.300">  1  5  2 -1</clus>
<clus scale="  109.300">  1  5  2 -1</clus>
</clustering>
</event>
<event>
 9    1  0.6106093E-005  0.1400026E+03  0.7546771E-02  0.1238769E+00
          1   -1    0    0  502    0  0.00000000000E+00  0.00000000000E+00  0.30461845573E+03  0.30461845573E+03  0.00000000000E+00 0. -1.
         -2   -1    0    0    0  501 -0.00000000000E+00 -0.00000000000E+00 -0.65876366172E+03  0.65876366172E+03  0.00000000000E+00 0.  1.
        -24    2    1    2    0    0 -0.24543453236E+02  0.39839154236E+02 -0.23887639324E+03  0.25272012830E+03  0.67941097231E+02 0.  0.
         23    2    1    2    0    0 -0.98274135041E+02 -0.40645621396E+02  0.27122922596E+03  0.30511847200E+03  0.90675888648E+02 0.  0.
         11    1    3    3    0    0 -0.10985993910E+02 -0.18916232201E+02 -0.54163390082E+02  0.58413942925E+02  0.00000000000E+00 0. -1.
        -12    1    3    3    0    0 -0.13557459326E+02  0.58755386437E+02 -0.18471300316E+03  0.19430618537E+03  0.00000000000E+00 0.  1.
        -13    1    4    4    0    0 -0.70743456713E+02  0.12766035098E+02  0.19644047120E+03  0.20918046526E+03  0.00000000000E+00 0. -1.
         13    1    4    4    0    0 -0.27530678328E+02 -0.53411656494E+02  0.74788754759E+02  0.95938006739E+02  0.00000000000E+00 0.  1.
         21    1    1    2  502  501  0.12281758828E+03  0.80646715953E+00 -0.38649803871E+03  0.40554351716E+03  0.00000000000E+00 0.  1.
<scales pt_clust_5="13000.00000" pt_clust_6="13000.00000" pt_clust_7="13000.00000" pt_clust_8="13000.00000" pt_clust_9="106.67057"></scales>
<clustering>
<clus scale="   67.941">  5  6 -1 -1</clus>
<clus scale="   82.496">  2  5  1 -1</clus>
<clus scale="   90.676">  7  8 -1 -1</clus>
<clus scale="  106.671">  2  9  1 -1</clus>
<clus scale="  140.003">  1  5  2 -1</clus>
</clustering>
</event>
<event>
 9    1  0.6106093E-005  0.1635155E+03  0.7546771E-02  0.1186404E+00
          1   -1    0    0  502    0  0.00000000000E+00  0.00000000000E+00  0.22689947804E+03  0.22689947804E+03  0.00000000000E+00 0. -1.
         -2   -1    0    0    0  501 -0.00000000000E+00 -0.00000000000E+00 -0.31102897516E+03  0.31102897516E+03  0.00000000000E+00 0.  1.
         23    2    1    2    0    0 -0.11843895095E+03  0.17043761037E+02 -0.16581812605E+03  0.22389805842E+03  0.91194378903E+02 0.  0.
        -24    2    1    2    0    0  0.13816273520E+03  0.15731817206E+02  0.16011081305E+03  0.22677613897E+03  0.80346208877E+02 0.  0.
         13    1    4    4    0    0  0.42175632857E+02  0.20151019705E+02  0.10751112446E+03  0.11723262978E+03  0.00000000000E+00 0. -1.
        -14    1    4    4    0    0  0.95987102338E+02 -0.44192024986E+01  0.52599688590E+02  0.10954350919E+03  0.00000000000E+00 0.  1.
        -11    1    3    3    0    0 -0.12240251853E+01 -0.22762460523E+02 -0.47365366170E+02  0.52565252393E+02  0.00000000000E+00 0. -1.
         11    1    3    3    0    0 -0.11721492576E+03  0.39806221560E+02 -0.11845275988E+03  0.17133280602E+03  0.00000000000E+00 0.  1.
         21    1    1    2  502  501 -0.19723784249E+02 -0.32775578244E+02 -0.78422184118E+02  0.87254255806E+02  0.00000000000E+00 0. -1.
<scales pt_clust_5="13000.00000" pt_clust_6="13000.00000" pt_clust_7="13000.00000" pt_clust_8="13000.00000" pt_clust_9="38.25266"></scales>
<clustering>
<clus scale="   38.253">  2  9  1 -1</clus>
<clus scale="   80.346">  5  6 -1 -1</clus>
<clus scale="   91.194">  7  8 -1 -1</clus>
<clus scale="  157.723">  1  5  2 -1</clus>
<clus scale="  157.723">  1  5  2 -1</clus>
</clustering>
</event>
<event>
 9    1  0.6106093E-005  0.1015385E+03  0.7546771E-02  0.1283902E+00
          1   -1    0    0  502    0  0.00000000000E+00  0.00000000000E+00  0.13154944171E+03  0.13154944171E+03  0.00000000000E+00 0. -1.
         -2   -1    0    0    0  501 -0.00000000000E+00 -0.00000000000E+00 -0.19494862972E+03  0.19494862972E+03  0.00000000000E+00 0.  1.
        -24    2    1    2    0    0  0.19186338715E+01  0.63695685931E+02 -0.34346824139E+02  0.10495173475E+03  0.75989083010E+02 0.  0.
         23    2    1    2    0    0 -0.31432737296E+02 -0.31505617417E+02  0.63708176144E+02  0.11901926418E+03  0.90145619063E+02 0.  0.
         11    1    3    3    0    0  0.18205167635E+02  0.66027990437E+02 -0.18377370977E+01  0.68516428157E+02  0.00000000000E+00 0. -1.
        -12    1    3    3    0    0 -0.16286533763E+02 -0.23323045065E+01 -0.32509087042E+02  0.36435306594E+02  0.00000000000E+00 0.  1.
        -11    1    4    4    0    0  0.29246635400E+02  0.46025838829E+01  0.14597133449E+02  0.33009479935E+02  0.00000000000E+00 0.  1.
         11    1    4    4    0    0 -0.60679372696E+02 -0.36108201300E+02  0.49111042694E+02  0.86009784248E+02  0.00000000000E+00 0. -1.
         21    1    1    2  502  501  0.29514103424E+02 -0.32190068514E+02 -0.92760540013E+02  0.10252707250E+03  0.00000000000E+00 0.  1.
<scales pt_clust_5="13000.00000" pt_clust_6="13000.00000" pt_clust_7="13000.00000" pt_clust_8="13000.00000" pt_clust_9="43.67245"></scales>
<clustering>
<clus scale="   43.672">  2  9  1 -1</clus>
<clus scale="   75.989">  5  6 -1 -1</clus>
<clus scale="   89.209">  2  5  1 -1</clus>
<clus scale="   90.146">  7  8 -1 -1</clus>
<clus scale="  101.538">  1  5  2 -1</clus>
</clustering>
</event>
<event>
 9    1  0.6106093E-005  0.8973307E+02  0.7546771E-02  0.1308365E+00
          1   -1    0    0  502    0  0.00000000000E+00  0.00000000000E+00  0.35594001699E+03  0.35594001699E+03  0.00000000000E+00 0. -1.
         -2   -1    0    0    0  501 -0.00000000000E+00 -0.00000000000E+00 -0.89822983576E+02  0.89822983576E+02  0.00000000000E+00 0.  1.
        -24    2    1    2    0    0 -0.25342311303E+02  0.65482380215E+01  0.31110229727E+02  0.90661967898E+02  0.81034769488E+02 0.  0.
         23    2    1    2    0    0  0.10124179347E+01  0.16285635984E+02  0.28277906227E+03  0.29682995749E+03  0.88756851445E+02 0.  0.
         11    1    3    3    0    0 -0.54711221043E+02  0.98925208423E+01  0.20245427528E+02  0.59169730542E+02  0.00000000000E+00 0. -1.
        -12    1    3    3    0    0  0.29368909739E+02 -0.33442828209E+01  0.10864802198E+02  0.31492237356E+02  0.00000000000E+00 0.  1.
        -13    1    4    4    0    0  0.11013964120E+02 -0.25885125386E+02  0.33198493787E+02  0.43514217350E+02  0.00000000000E+00 0.  1.
         13    1    4    4    0    0 -0.10001546185E+02  0.42170761369E+02  0.24958056848E+03  0.25331574014E+03  0.00000000000E+00 0. -1.
         21    1    1    2  502  501  0.24329893369E+02 -0.22833874005E+02 -0.47772258575E+02  0.58271075181E+02  0.00000000000E+00 0.  1.
<scales pt_clust_5="13000.00000" pt_clust_6="13000.00000" pt_clust_7="13000.00000" pt_clust_8="13000.00000" pt_clust_9="33.36659"></scales>
<clustering>
<clus scale="   33.367">  2  9  1 -1</clus>
<clus scale="   81.035">  5  6 -1 -1</clus>
<clus scale="   82.103">  2  5  1 -1</clus>
<clus scale="   88.757">  7  8 -1 -1</clus>
<clus scale="   89.733">  1  5  2 -1</clus>
</clustering>
</event>
<event>
 9    1  0.6106093E-005  0.2467606E+03  0.7546771E-02  0.1116209E+00
          1   -1    0    0  502    0  0.00000000000E+00  0.00000000000E+00  0.64574635088E+03  0.64574635088E+03  0.00000000000E+00 0. -1.
         -2   -1    0    0    0  501 -0.00000000000E+00 -0.00000000000E+00 -0.16649052017E+03  0.16649052017E+03  0.00000000000E+00 0.  1.
        -24    2    1    2    0    0  0.23655595757E+03 -0.75375502126E+02  0.68143534127E+02  0.27073088567E+03  0.83734603550E+02 0.  0.
         23    2    1    2    0    0 -0.18882717016E+03  0.11542450734E+03  0.41360919496E+03  0.47915059695E+03  0.97643286044E+02 0.  0.
         11    1    3    3    0    0  0.18081154538E+03 -0.20432668044E+02  0.32988033792E+02  0.18492841653E+03  0.00000000000E+00 0. -1.
        -12    1    3    3    0    0  0.55744412183E+02 -0.54942834082E+02  0.35155500335E+02  0.85802469139E+02  0.00000000000E+00 0.  1.
        -11    1    4    4    0    0 -0.15902349338E+03  0.56735693247E+02  0.23964707206E+03  0.29315205863E+03  0.00000000000E+00 0.  1.
         11    1    4    4    0    0 -0.29803676786E+02  0.58688814090E+02  0.17396212290E+03  0.18599853831E+03  0.00000000000E+00 0. -1.
         21    1    1    2  502  501 -0.47728787405E+02 -0.40049005210E+02 -0.24968983725E+01  0.62355388436E+02  0.00000000000E+00 0.  1.
<scales pt_clust_5="13000.00000" pt_clust_6="13000.00000" pt_clust_7="13000.00000" pt_clust_8="13000.00000" pt_clust_9="62.30538"></scales>
<clustering>
<clus scale="   62.305">  2  9  1 -1</clus>
<clus scale="   83.735">  5  6 -1 -1</clus>
<clus scale="   97.643">  7  8 -1 -1</clus>
<clus scale="  241.595">  2  5  1 -1</clus>
<clus scale="  246.761">  1  5  2 -1</clus>
</clustering>
</event>
<event>
 9    1  0.6106093E-005  0.1222471E+03  0.7546771E-02  0.1243168E+00
         -2   -1    0    0    0  501 -0.00000000000E+00  0.00000000000E+00  0.55071435099E+03  0.55071435099E+03  0.00000000000E+00 0.  1.
          1   -1    0    0  502    0  0.00000000000E+00 -0.00000000000E+00 -0.14251244041E+03  0.14251244041E+03  0.00000000000E+00 0. -1.
        -24    2    1    2    0    0 -0.46081558174E+02  0.16410817454E+02  0.30372629538E+03  0.31802118351E+03  0.80591474268E+02 0.  0.
         23    2    1    2    0    0  0.76579728181E+02 -0.30802155874E+02 -0.10527859833E+03  0.16275778113E+03  0.92699970213E+02 0.  0.
         11    1    3    3    0    0 -0.40009959277E+02  0.49990026996E+01  0.51230480108E+02  0.65194700409E+02  0.00000000000E+00 0. -1.
        -12    1    3    3    0    0 -0.60715988972E+01  0.11411814755E+02  0.25249581527E+03  0.25282648310E+03  0.00000000000E+00 0.  1.
        -11    1    4    4    0    0  0.41902995920E+02 -0.16526978671E+02  0.58962783453E+01  0.45428715471E+02  0.00000000000E+00 0.  1.
         11    1    4    4    0    0  0.34676732261E+02 -0.14275177203E+02 -0.11117487668E+03  0.11732906566E+03  0.00000000000E+00 0. -1.
         21    1    1    2  502  501 -0.30498170007E+02  0.14391338420E+02  0.20975421354E+03  0.21244782675E+03  0.00000000000E+00 0.  1.
<scales pt_clust_5="13000.00000" pt_clust_6="13000.00000" pt_clust_7="13000.00000" pt_clust_8="13000.00000" pt_clust_9="33.72312"></scales>
<clustering>
<clus scale="   33.723">  1  9  2 -1</clus>
<clus scale="   80.591">  5  6 -1 -1</clus>
<clus scale="   92.700">  7  8 -1 -1</clus>
<clus scale="  113.340">  1  5  2 -1</clus>
<clus scale="  122.247">  2  5  1 -1</clus>
</clustering>
</event>
<event>
 9    1  0.6106093E-005  0.1162924E+03  0.7546771E-02  0.1258896E+00
         -2   -1    0    0    0  501 -0.00000000000E+00  0.00000000000E+00  0.12427609377E+03  0.12427609377E+03  0.00000000000E+00 0.  1.
          1   -1    0    0  502    0  0.00000000000E+00 -0.00000000000E+00 -0.56380369546E+03  0.56380369546E+03  0.00000000000E+00 0. -1.
         23    2    1    2    0    0  0.25751049503E+02  0.50557435541E+02  0.36919873322E+02  0.11222766470E+03  0.89514249365E+02 0.  0.
        -24    2    1    2    0    0 -0.22913942669E+02 -0.71765868738E+02 -0.51912011612E+03  0.52811533460E+03  0.61194141810E+02 0.  0.
         11    1    4    4    0    0 -0.19396937878E+02 -0.75154992149E+02 -0.33280753244E+03  0.34173874187E+03  0.00000000000E+00 0. -1.
        -12    1    4    4    0    0 -0.35170047907E+01  0.33891234112E+01 -0.18631258368E+03  0.18637659273E+03  0.00000000000E+00 0.  1.
        -13    1    3    3    0    0  0.23463776753E+02  0.11618753308E+02 -0.26831845793E+02  0.37489894593E+02  0.00000000000E+00 0. -1.
         13    1    3    3    0    0  0.22872727497E+01  0.38938682233E+02  0.63751719115E+02  0.74737770109E+02  0.00000000000E+00 0.  1.
         21    1    1    2  502  501 -0.28371068344E+01  0.21208433197E+02  0.42672641107E+02  0.47736789931E+02  0.00000000000E+00 0. -1.
<scales pt_clust_5="13000.00000" pt_clust_6="13000.00000" pt_clust_7="13000.00000" pt_clust_8="13000.00000" pt_clust_9="21.39736"></scales>
<clustering>
<clus scale="   21.397">  1  9  2 -1</clus>
<clus scale="   61.194">  5  6 -1 -1</clus>
<clus scale="   89.514">  7  8 -1 -1</clus>
<clus scale="   96.207">  2  5  1 -1</clus>
<clus scale="   96.207">  2  5  1 -1</clus>
</clustering>
</event>
