<event>
 9    2  0.5615294E-005  0.9170904E+02  0.7546771E-02  0.1305177E+00
          2   -1    0    0  502    0 -0.00000000000E+00  0.00000000000E+00  0.51018730653E+03  0.51018730653E+03  0.00000000000E+00 0. -1.
         21   -1    0    0  501  502  0.00000000000E+00 -0.00000000000E+00 -0.27717234198E+02  0.27717234198E+02  0.00000000000E+00 0. -1.
         23    2    1    2    0    0 -0.88732136940E+00  0.17932333127E+02  0.14624557781E+03  0.17272585911E+03  0.90133775387E+02 0.  0.
         24    2    1    2    0    0  0.31255270522E+02  0.15101890084E+02  0.14782459433E+03  0.17150887336E+03  0.79738472096E+02 0.  0.
        -13    1    4    4    0    0 -0.48808790765E+01 -0.26040692748E+02  0.22558135909E+02  0.34796697473E+02  0.00000000000E+00 0.  1.
         14    1    4    4    0    0  0.36136149599E+02  0.41142582832E+02  0.12526645842E+03  0.13671217589E+03  0.00000000000E+00 0. -1.
        -13    1    3    3    0    0  0.24146394084E+02  0.23464534425E+02  0.11524729833E+02  0.35587246603E+02  0.00000000000E+00 0. -1.
         13    1    3    3    0    0 -0.25033715454E+02 -0.55322012983E+01  0.13472084798E+03  0.13713861250E+03  0.00000000000E+00 0.  1.
          1    1    1    2  501    0 -0.30367949153E+02 -0.33034223211E+02  0.18839990019E+03  0.19366980826E+03  0.00000000000E+00 0. -1.
<scales pt_clust_5="13000.00000" pt_clust_6="13000.00000" pt_clust_7="13000.00000" pt_clust_8="13000.00000" pt_clust_9="44.87175"></scales>
<clustering>
<clus scale="   44.872">  2  9  1 -1</clus>
<clus scale="   79.738">  5  6 -1 -1</clus>
<clus scale="   81.515">  2  5  1 -1</clus>
<clus scale="   90.134">  7  8 -1 -1</clus>
<clus scale="   44.872">  2  5  1 -1</clus>
</clustering>
</event>
<event>
 9    2  0.5615294E-005  0.1594888E+03  0.7546771E-02  0.1191055E+00
         21   -1    0    0  501  502  0.00000000000E+00  0.00000000000E+00  0.82302416401E+02  0.82302416401E+02  0.00000000000E+00 0.  1.
          2   -1    0    0  502    0 -0.00000000000E+00 -0.00000000000E+00 -0.90044237541E+03  0.90044237541E+03  0.00000000000E+00 0. -1.
         24    2    1    2    0    0 -0.41233308685E+02 -0.10061616048E+03 -0.29367476497E+03  0.32311102432E+03  0.79574298395E+02 0.  0.
         23    2    1    2    0    0  0.85141388399E+02  0.20308568317E+03 -0.18289353836E+03  0.30033010969E+03  0.90858558668E+02 0.  0.
        -11    1    3    3    0    0 -0.51734654280E+02 -0.93202806221E+02 -0.18370827228E+03  0.21239577878E+03  0.00000000000E+00 0.  1.
         12    1    3    3    0    0  0.10501345596E+02 -0.74133542614E+01 -0.10996649269E+03  0.11071524554E+03  0.00000000000E+00 0. -1.
        -13    1    4    4    0    0  0.61711046802E+02  0.19478664230E+03 -0.13079453255E+03  0.24260523296E+03  0.00000000000E+00 0.  1.
         13    1    4    4    0    0  0.23430341597E+02  0.82990408736E+01 -0.52099005808E+02  0.57724876726E+02  0.00000000000E+00 0. -1.
          1    1    1    2  501    0 -0.43908079715E+02 -0.10246952269E+03 -0.34157165567E+03  0.35930365779E+03  0.00000000000E+00 0. -1.
<scales pt_clust_5="13000.00000" pt_clust_6="13000.00000" pt_clust_7="13000.00000" pt_clust_8="13000.00000" pt_clust_9="111.48065"></scales>
<clustering>
<clus scale="   79.574">  5  6 -1 -1</clus>
<clus scale="   90.859">  7  8 -1 -1</clus>
<clus scale="  111.481">  1  9  2 -1</clus>
<clus scale="  153.341">  2  5  1 -1</clus>
<clus scale="  111.481">  1  5  2 -1</clus>
</clustering>
</event>
<event>
 9    2  0.5615294E-005  0.1825296E+03  0.7546771E-02  0.1195166E+00
          2   -1    0    0  502    0 -0.00000000000E+00  0.00000000000E+00  0.11492869746E+04  0.11492869746E+04  0.00000000000E+00 0. -1.
         21   -1    0    0  501  502  0.00000000000E+00 -0.00000000000E+00 -0.69623759867E+02  0.69623759867E+02  0.00000000000E+00 0. -1.
         23    2    1    2    0    0  0.10780956599E-01 -0.18633943063E+02  0.28971545279E+02  0.97844147130E+02  0.91580034623E+02 0.  0.
         24    2    1    2    0    0  0.60750455916E+02  0.16826838053E+03  0.79672248992E+03  0.82009692619E+03  0.76074809370E+02 0.  0.
        -13    1    4    4    0    0  0.72682571825E+01  0.12115974869E+03  0.55320669676E+03  0.56636574897E+03  0.00000000000E+00 0.  1.
         14    1    4    4    0    0  0.53482198734E+02  0.47108631836E+02  0.24351579316E+03  0.25373117722E+03  0.00000000000E+00 0. -1.
        -13    1    3    3    0    0  0.30153543250E+02 -0.37487597059E+02 -0.53760848869E+01  0.48409280025E+02  0.00000000000E+00 0. -1.
         13    1    3    3    0    0 -0.30142762294E+02  0.18853653996E+02  0.34347630166E+02  0.49434867105E+02  0.00000000000E+00 0.  1.
          1    1    1    2  501    0 -0.60761236873E+02 -0.14963443747E+03  0.25396917957E+03  0.30096966119E+03  0.00000000000E+00 0. -1.
<scales pt_clust_5="13000.00000" pt_clust_6="13000.00000" pt_clust_7="13000.00000" pt_clust_8="13000.00000" pt_clust_9="165.92071"></scales>
<clustering>
<clus scale="   76.075">  5  6 -1 -1</clus>
<clus scale="   91.580">  7  8 -1 -1</clus>
<clus scale="   93.457">  1  7  2 -1</clus>
<clus scale="  165.921">  2  9  1 -1</clus>
<clus scale="  165.921">  2  5  1 -1</clus>
</clustering>
</event>
<event>
 9    2  0.5615294E-005  0.9993089E+02  0.7546771E-02  0.1285957E+00
          2   -1    0    0  502    0 -0.00000000000E+00  0.00000000000E+00  0.86342411497E+03  0.86342411497E+03  0.00000000000E+00 0. -1.
         21   -1    0    0  501  502  0.00000000000E+00 -0.00000000000E+00 -0.10541017774E+03  0.10541017774E+03  0.00000000000E+00 0.  1.
         24    2    1    2    0    0  0.33102495112E+02 -0.22831537560E+02  0.79819039858E+03  0.80319444998E+03  0.79977232992E+02 0.  0.
         23    2    1    2    0    0 -0.58484374629E+02  0.52592184857E+02 -0.39253271001E+02  0.12651455403E+03  0.90987653636E+02 0.  0.
        -11    1    3    3    0    0 -0.20220261884E+02 -0.17754427767E+02  0.12433224638E+03  0.12721079430E+03  0.00000000000E+00 0.  1.
         12    1    3    3    0    0  0.53322756997E+02 -0.50771097926E+01  0.67385815220E+03  0.67598365568E+03  0.00000000000E+00 0. -1.
        -11    1    4    4    0    0  0.20656191546E+02  0.11716043291E+02 -0.28029267555E+02  0.36736681385E+02  0.00000000000E+00 0. -1.
         11    1    4    4    0    0 -0.79140566175E+02  0.40876141565E+02 -0.11224003447E+02  0.89777872648E+02  0.00000000000E+00 0.  1.
          1    1    1    2  501    0  0.25381879517E+02 -0.29760647297E+02 -0.92319035868E+00  0.39125288699E+02  0.00000000000E+00 0. -1.
<scales pt_clust_5="13000.00000" pt_clust_6="13000.00000" pt_clust_7="13000.00000" pt_clust_8="13000.00000" pt_clust_9="39.11440"></scales>
<clustering>
<clus scale="   39.114">  2  9  1 -1</clus>
<clus scale="   79.977">  5  6 -1 -1</clus>
<clus scale="   90.021">  1  5  2 -1</clus>
<clus scale="   90.988">  7  8 -1 -1</clus>
<clus scale="   39.114">  2  5  1 -1</clus>
</clustering>
</event>
<event>
 9    2  0.5615294E-005  0.1866096E+03  0.7546771E-02  0.1186887E+00
         -3   -1    0    0    0  501 -0.00000000000E+00  0.00000000000E+00  0.22614221576E+03  0.22614221576E+03  0.00000000000E+00 0.  1.
         21   -1    0    0  501  502  0.00000000000E+00 -0.00000000000E+00 -0.44340552435E+03  0.44340552435E+03  0.00000000000E+00 0.  1.
         24    2    1    2    0    0 -0.62781688985E+02  0.18182302700E+02  0.93129395279E+02  0.14033520071E+03  0.82150761964E+02 0.  0.
         23    2    1    2    0    0  0.20863282906E+03  0.10474393380E+02 -0.59809261165E+02  0.23786082231E+03  0.96763902315E+02 0.  0.
        -13    1    3    3    0    0 -0.78742467794E+02  0.20889483856E+01  0.85890342074E+02  0.11654136948E+03  0.00000000000E+00 0.  1.
         14    1    3    3    0    0  0.15960778810E+02  0.16093354315E+02  0.72390532048E+01  0.23793831230E+02  0.00000000000E+00 0. -1.
        -13    1    4    4    0    0  0.13680804947E+03 -0.16967585380E+02  0.40437003338E+01  0.13791552801E+03  0.00000000000E+00 0.  1.
         13    1    4    4    0    0  0.71824779595E+02  0.27441978760E+02 -0.63852961499E+02  0.99945294308E+02  0.00000000000E+00 0. -1.
         -4    1    1    2    0  502 -0.14585114008E+03 -0.28656696080E+02 -0.25058344270E+03  0.29135171708E+03  0.00000000000E+00 0.  1.
<scales pt_clust_5="13000.00000" pt_clust_6="13000.00000" pt_clust_7="13000.00000" pt_clust_8="13000.00000" pt_clust_9="159.56158"></scales>
<clustering>
<clus scale="   82.151">  5  6 -1 -1</clus>
<clus scale="   96.764">  7  8 -1 -1</clus>
<clus scale="  104.980">  1  5  2 -1</clus>
<clus scale="  159.562">  2  9  1 -1</clus>
<clus scale="  159.562">  2  5  1 -1</clus>
</clustering>
</event>
<event>
 9    2  0.5615294E-005  0.1350026E+03  0.7546771E-02  0.1243143E+00
         21   -1    0    0  501  502  0.00000000000E+00  0.00000000000E+00  0.49583746366E+02  0.49583746366E+02  0.00000000000E+00 0. -1.
          2   -1    0    0  502    0 -0.00000000000E+00 -0.00000000000E+00 -0.65257736214E+03  0.65257736214E+03  0.00000000000E+00 0. -1.
         24    2    1    2    0    0 -0.55034841846E+01  0.32291093648E+02 -0.31726398758E+03  0.32824600430E+03  0.77562867740E+02 0.  0.
         23    2    1    2    0    0 -0.67612709457E+02 -0.90336377404E+02 -0.19875251265E+03  0.24632101592E+03  0.91865891582E+02 0.  0.
        -11    1    3    3    0    0 -0.24757007265E+02  0.40201100402E+02 -0.10698637664E+03  0.11694068013E+03  0.00000000000E+00 0.  1.
         12    1    3    3    0    0  0.19253523080E+02 -0.79100067535E+01 -0.21027761095E+03  0.21130532417E+03  0.00000000000E+00 0. -1.
        -13    1    4    4    0    0 -0.43592006078E+02 -0.89310293868E+01 -0.12900660795E+03  0.13646512805E+03  0.00000000000E+00 0.  1.
         13    1    4    4    0    0 -0.24020703379E+02 -0.81405348017E+02 -0.69745904705E+02  0.10985588787E+03  0.00000000000E+00 0. -1.
          1    1    1    2  501    0  0.73116193642E+02  0.58045283756E+02 -0.86977115539E+02  0.12759408829E+03  0.00000000000E+00 0. -1.
<scales pt_clust_5="13000.00000" pt_clust_6="13000.00000" pt_clust_7="13000.00000" pt_clust_8="13000.00000" pt_clust_9="98.92607"></scales>
<clustering>
<clus scale="   77.563">  5  6 -1 -1</clus>
<clus scale="   84.196">  2  5  1 -1</clus>
<clus scale="   91.866">  7  8 -1 -1</clus>
<clus scale="   98.926">  1  9  2 -1</clus>
<clus scale="   98.926">  1  5  2 -1</clus>
</clustering>
</event>
<event>
 9    2  0.5615294E-005  0.1093159E+03  0.7546771E-02  0.1265190E+00
          2   -1    0    0  502    0 -0.00000000000E+00  0.00000000000E+00  0.47505630184E+03  0.47505630184E+03  0.00000000000E+00 0. -1.
         21   -1    0    0  501  502  0.00000000000E+00 -0.00000000000E+00 -0.76094848297E+02  0.76094848297E+02  0.00000000000E+00 0.  1.
         24    2    1    2    0    0 -0.56357680712E+02  0.28202850773E+02  0.15466153335E+03  0.18713674822E+03  0.84429755813E+02 0.  0.
         23    2    1    2    0    0  0.20617931495E+02 -0.43609536292E+02 -0.11623972931E+02  0.10514815325E+03  0.92704512455E+02 0.  0.
        -13    1    3    3    0    0 -0.34456151916E+02 -0.16449540535E+02  0.19003066240E+02  0.42648919274E+02  0.00000000000E+00 0.  1.
         14    1    3    3    0    0 -0.21901528796E+02  0.44652391307E+02  0.13565846711E+03  0.14448782894E+03  0.00000000000E+00 0. -1.
        -11    1    4    4    0    0  0.40173988883E+02 -0.48706118339E+02  0.21200727682E+02  0.66601097594E+02  0.00000000000E+00 0. -1.
         11    1    4    4    0    0 -0.19556057388E+02  0.50965820468E+01 -0.32824700613E+02  0.38547055652E+02  0.00000000000E+00 0.  1.
          1    1    1    2  501    0  0.35739749217E+02  0.15406685520E+02  0.25592389312E+03  0.25886624867E+03  0.00000000000E+00 0. -1.
<scales pt_clust_5="13000.00000" pt_clust_6="13000.00000" pt_clust_7="13000.00000" pt_clust_8="13000.00000" pt_clust_9="38.91911"></scales>
<clustering>
<clus scale="   38.919">  2  9  1 -1</clus>
<clus scale="   84.430">  5  6 -1 -1</clus>
<clus scale="   92.705">  7  8 -1 -1</clus>
<clus scale="  102.393">  1  5  2 -1</clus>
<clus scale="   38.919">  2  5  1 -1</clus>
</clustering>
</event>
<event>
 9    2  0.5615294E-005  0.1350586E+03  0.7546771E-02  0.1223214E+00
          2   -1    0    0  502    0 -0.00000000000E+00  0.00000000000E+00  0.77616809768E+02  0.77616809768E+02  0.00000000000E+00 0. -1.
         21   -1    0    0  501  502  0.00000000000E+00 -0.00000000000E+00 -0.57801651217E+03  0.57801651217E+03  0.00000000000E+00 0.  1.
         24    2    1    2    0    0 -0.37763721585E+02 -0.10277203325E+03 -0.11057813531E+02  0.13706898286E+03  0.81715612552E+02 0.  0.
         23    2    1    2    0    0  0.36724088166E+01  0.44930257113E+02 -0.29984742286E+03  0.31752692633E+03  0.94247850707E+02 0.  0.
        -13    1    3    3    0    0 -0.25849318960E+02  0.81875422063E+00  0.14581076007E+02  0.29689483436E+02  0.00000000000E+00 0.  1.
         14    1    3    3    0    0 -0.11914402624E+02 -0.10359078747E+03 -0.25638889538E+02  0.10737949942E+03  0.00000000000E+00 0. -1.
        -11    1    4    4    0    0 -0.38756705856E+02 -0.47935873758E+01 -0.10713431040E+03  0.11402991359E+03  0.00000000000E+00 0.  1.
         11    1    4    4    0    0  0.42429114673E+02  0.49723844489E+02 -0.19271311245E+03  0.20349701274E+03  0.00000000000E+00 0. -1.
          1    1    1    2  501    0  0.34091312768E+02  0.57841776140E+02 -0.18949446601E+03  0.20103741274E+03  0.00000000000E+00 0. -1.
<scales pt_clust_5="13000.00000" pt_clust_6="13000.00000" pt_clust_7="13000.00000" pt_clust_8="13000.00000" pt_clust_9="67.14081"></scales>
<clustering>
<clus scale="   67.141">  2  9  1 -1</clus>
<clus scale="   81.716">  5  6 -1 -1</clus>
<clus scale="   94.248">  7  8 -1 -1</clus>
<clus scale="  126.632">  1  5  2 -1</clus>
<clus scale="   67.141">  2  5  1 -1</clus>
</clustering>
</event>
<event>
 9    2  0.5615294E-005  0.1603182E+03  0.7546771E-02  0.1191129E+00
         21   -1    0    0  501  502  0.00000000000E+00  0.00000000000E+00  0.23178730698E+03  0.23178730698E+03  0.00000000000E+00 0.  1.
          2   -1    0    0  502    0 -0.00000000000E+00 -0.00000000000E+00 -0.60812328422E+03  0.60812328422E+03  0.00000000000E+00 0. -1.
         24    2    1    2    0    0  0.90385488425E+02 -0.67801695749E+02 -0.11526483393E+03  0.18031218648E+03  0.80373479381E+02 0.  0.
         23    2    1    2    0    0 -0.21619094468E+03  0.58122973380E+02  0.10997655197E+03  0.26768376777E+03  0.97174857606E+02 0.  0.
        -13    1    3    3    0    0  0.85369127492E+02 -0.84648236626E+02 -0.93287667160E+02  0.15217030176E+03  0.00000000000E+00 0.  1.
         14    1    3    3    0    0  0.50163609336E+01  0.16846540877E+02 -0.21977166767E+02  0.28141884721E+02  0.00000000000E+00 0. -1.
        -11    1    4    4    0    0 -0.10810314309E+03 -0.10386772148E+02  0.17985730453E+02  0.11008024837E+03  0.00000000000E+00 0. -1.
         11    1    4    4    0    0 -0.10808780159E+03  0.68509745528E+02  0.91990821516E+02  0.15760351940E+03  0.00000000000E+00 0.  1.
          1    1    1    2  501    0  0.12580545625E+03  0.96787223683E+01 -0.37104769527E+03  0.39191463695E+03  0.00000000000E+00 0. -1.
<scales pt_clust_5="13000.00000" pt_clust_6="13000.00000" pt_clust_7="13000.00000" pt_clust_8="13000.00000" pt_clust_9="126.17728"></scales>
<clustering>
<clus scale="   80.373">  5  6 -1 -1</clus>
<clus scale="   97.175">  7  8 -1 -1</clus>
<clus scale="  126.177">  1  9  2 -1</clus>
<clus scale="  150.728">  2  5  1 -1</clus>
<clus scale="  126.177">  1  5  2 -1</clus>
</clustering>
</event>
<event>
 9    2  0.5615294E-005  0.1258174E+03  0.7546771E-02  0.1256647E+00
         -3   -1    0    0    0  501 -0.00000000000E+00  0.00000000000E+00  0.78087513605E+03  0.78087513605E+03  0.00000000000E+00 0.  1.
         21   -1    0    0  501  502  0.00000000000E+00 -0.00000000000E+00 -0.29151176779E+02  0.29151176779E+02  0.00000000000E+00 0.  1.
         24    2    1    2    0    0 -0.21761614489E+01  0.45316108401E+01  0.13894875565E+03  0.16004244766E+03  0.79256275329E+02 0.  0.
         23    2    1    2    0    0  0.86306959105E+02 -0.85518173351E+01  0.43668251992E+03  0.45478451470E+03  0.92818677188E+02 0.  0.
        -11    1    3    3    0    0  0.36526343002E+02  0.47706270111E+01  0.43234543719E+02  0.56799281560E+02  0.00000000000E+00 0.  1.
         12    1    3    3    0    0 -0.38702504451E+02 -0.23901617093E+00  0.95714211933E+02  0.10324316610E+03  0.00000000000E+00 0. -1.
        -11    1    4    4    0    0  0.68622333374E+02 -0.38818149278E+02  0.38035384085E+03  0.38843907836E+03  0.00000000000E+00 0.  1.
         11    1    4    4    0    0  0.17684625730E+02  0.30266331943E+02  0.56328679074E+02  0.66345436337E+02  0.00000000000E+00 0. -1.
         -4    1    1    2    0  502 -0.84130797656E+02  0.40202064949E+01  0.17609268370E+03  0.19519935048E+03  0.00000000000E+00 0.  1.
<scales pt_clust_5="13000.00000" pt_clust_6="13000.00000" pt_clust_7="13000.00000" pt_clust_8="13000.00000" pt_clust_9="84.93948"></scales>
<clustering>
<clus scale="   79.256">  5  6 -1 -1</clus>
<clus scale="   79.416">  1  5  2 -1</clus>
<clus scale="   84.939">  2  9  1 -1</clus>
<clus scale="   92.819">  7  8 -1 -1</clus>
<clus scale="   84.939">  2  5  1 -1</clus>
</clustering>
</event>
<event>
 9    2  0.5615294E-005  0.1157693E+03  0.7546771E-02  0.1252384E+00
          2   -1    0    0  502    0 -0.00000000000E+00  0.00000000000E+00  0.10561088572E+04  0.10561088572E+04  0.00000000000E+00 0. -1.
         21   -1    0    0  501  502  0.00000000000E+00 -0.00000000000E+00 -0.54927867243E+02  0.54927867243E+02  0.00000000000E+00 0.  1.
         24    2    1    2    0    0  0.70736241913E+02  0.33733751600E+02  0.82547501135E+03  0.83300005385E+03  0.79614781474E+02 0.  0.
         23    2    1    2    0    0 -0.50009812376E+02 -0.39586058945E+02  0.64808213272E+01  0.10744655295E+03  0.86224841540E+02 0.  0.
        -11    1    3    3    0    0  0.12862493443E+02 -0.17953262765E+02  0.66557150598E+02  0.70125727641E+02  0.00000000000E+00 0.  1.
         12    1    3    3    0    0  0.57873748470E+02  0.51687014365E+02  0.75891786075E+03  0.76287432620E+03  0.00000000000E+00 0. -1.
        -13    1    4    4    0    0 -0.19776161453E+02 -0.12779520682E+02 -0.39654651345E+02  0.46118370352E+02  0.00000000000E+00 0.  1.
         13    1    4    4    0    0 -0.30233650923E+02 -0.26806538264E+02  0.46135472672E+02  0.61328182596E+02  0.00000000000E+00 0. -1.
          1    1    1    2  501    0 -0.20726429537E+02  0.58523073451E+01  0.16922515731E+03  0.17059011767E+03  0.00000000000E+00 0. -1.
<scales pt_clust_5="13000.00000" pt_clust_6="13000.00000" pt_clust_7="13000.00000" pt_clust_8="13000.00000" pt_clust_9="21.53683"></scales>
<clustering>
<clus scale="   21.537">  2  9  1 -1</clus>
<clus scale="   79.615">  5  6 -1 -1</clus>
<clus scale="   86.225">  7  8 -1 -1</clus>
<clus scale="  110.934">  1  5  2 -1</clus>
<clus scale="   21.537">  2  5  1 -1</clus>
</clustering>
</event>
<event>
 9    2  0.5615294E-005  0.1201734E+03  0.7546771E-02  0.1248183E+00
         21   -1    0    0  501  502  0.00000000000E+00  0.00000000000E+00  0.31225714652E+03  0.31225714652E+03  0.00000000000E+00 0. -1.
          4   -1    0    0  502    0 -0.00000000000E+00 -0.00000000000E+00 -0.80159471153E+02  0.80159471153E+02  0.00000000000E+00 0. -1.
         23    2    1    2    0    0 -0.28752619202E+02 -0.61182298090E+02  0.45474163397E+02  0.12275392202E+03  0.91818511878E+02 0.  0.
         24    2    1    2    0    0  0.64805297951E+02  0.81234623319E+02  0.18899249667E+03  0.22834074652E+03  0.74983611911E+02 0.  0.
        -11    1    4    4    0    0  0.29689377598E+02 -0.17854987657E+00  0.15470034572E+02  0.33478545248E+02  0.00000000000E+00 0.  1.
         12    1    4    4    0    0  0.35115920353E+02  0.81413173196E+02  0.17352246210E+03  0.19486220127E+03  0.00000000000E+00 0. -1.
        -11    1    3    3    0    0 -0.46857011263E+02  0.31456272047E+01  0.14940421477E+02  0.49281747827E+02  0.00000000000E+00 0.  1.
         11    1    3    3    0    0  0.18104392061E+02 -0.64327925295E+02  0.30533741921E+02  0.73472174191E+02  0.00000000000E+00 0. -1.
          3    1    1    2  501    0 -0.36052678749E+02 -0.20052325229E+02 -0.23689846968E+01  0.41321949138E+02  0.00000000000E+00 0. -1.
<scales pt_clust_5="13000.00000" pt_clust_6="13000.00000" pt_clust_7="13000.00000" pt_clust_8="13000.00000" pt_clust_9="41.25401"></scales>
<clustering>
<clus scale="   41.254">  1  9  2 -1</clus>
<clus scale="   74.984">  5  6 -1 -1</clus>
<clus scale="   91.819">  7  8 -1 -1</clus>
<clus scale="  107.859">  1  5  2 -1</clus>
<clus scale="   41.254">  1  5  2 -1</clus>
</clustering>
</event>
<event>
 9    2  0.5615294E-005  0.2547196E+03  0.7546771E-02  0.1110358E+00
         21   -1    0    0  501  502  0.00000000000E+00  0.00000000000E+00  0.39712055413E+02  0.39712055413E+02  0.00000000000E+00 0. -1.
          2   -1    0    0  502    0 -0.00000000000E+00 -0.00000000000E+00 -0.12109627468E+04  0.12109627468E+04  0.00000000000E+00 0. -1.
         24    2    1    2    0    0 -0.23812963527E+02  0.82918653353E+02 -0.34959390356E+03  0.36916048086E+03  0.81369545389E+02 0.  0.
         23    2    1    2    0    0 -0.40523068786E+02  0.86720884014E+02 -0.26842179620E+03  0.29928957639E+03  0.91440467130E+02 0.  0.
        -11    1    3    3    0    0  0.15979370223E+02  0.56803114576E+02 -0.27040256205E+03  0.27676611003E+03  0.00000000000E+00 0.  1.
         12    1    3    3    0    0 -0.39792333750E+02  0.26115538777E+02 -0.79191341512E+02  0.92394370831E+02  0.00000000000E+00 0. -1.
        -11    1    4    4    0    0 -0.48335047048E+02  0.57447683933E+01 -0.12887807243E+03  0.13776369874E+03  0.00000000000E+00 0.  1.
         11    1    4    4    0    0  0.78119782617E+01  0.80976115621E+02 -0.13954372377E+03  0.16152587765E+03  0.00000000000E+00 0. -1.
          1    1    1    2  501    0  0.64336032313E+02 -0.16963953737E+03 -0.55323499162E+03  0.58222474496E+03  0.00000000000E+00 0. -1.
<scales pt_clust_5="13000.00000" pt_clust_6="13000.00000" pt_clust_7="13000.00000" pt_clust_8="13000.00000" pt_clust_9="181.42969"></scales>
<clustering>
<clus scale="   81.370">  5  6 -1 -1</clus>
<clus scale="   91.440">  7  8 -1 -1</clus>
<clus scale="  101.245">  5  7 -1 -1</clus>
<clus scale="  181.430">  1  9  2 -1</clus>
<clus scale="  181.430">  1  5  2 -1</clus>
</clustering>
</event>
<event>
 9    2  0.5615294E-005  0.1046642E+03  0.7546771E-02  0.1275210E+00
          2   -1    0    0  502    0 -0.00000000000E+00  0.00000000000E+00  0.15891824192E+04  0.15891824192E+04  0.00000000000E+00 0. -1.
         21   -1    0    0  501  502  0.00000000000E+00 -0.00000000000E+00 -0.29179090160E+02  0.29179090160E+02  0.00000000000E+00 0.  1.
         24    2    1    2    0    0  0.42706135114E+02 -0.36412153275E+02  0.14262356887E+04  0.14295665624E+04  0.79766268129E+02 0.  0.
         23    2    1    2    0    0 -0.20728386481E+02  0.67349104129E+01  0.73603358517E+02  0.11820103096E+03  0.89883281592E+02 0.  0.
        -13    1    3    3    0    0 -0.23736369809E+01 -0.23015427556E+02  0.10610227220E+03  0.10859574681E+03  0.00000000000E+00 0.  1.
         14    1    3    3    0    0  0.45079772095E+02 -0.13396725718E+02  0.13201334165E+04  0.13209708156E+04  0.00000000000E+00 0. -1.
        -13    1    4    4    0    0 -0.10340659117E+02 -0.18879780556E+02 -0.14439953231E+02  0.25920794628E+02  0.00000000000E+00 0.  1.
         13    1    4    4    0    0 -0.10387727364E+02  0.25614690969E+02  0.88043311748E+02  0.92280236328E+02  0.00000000000E+00 0. -1.
          1    1    1    2  501    0 -0.21977748633E+02  0.29677242862E+02  0.60164281803E+02  0.70593916053E+02  0.00000000000E+00 0. -1.
<scales pt_clust_5="13000.00000" pt_clust_6="13000.00000" pt_clust_7="13000.00000" pt_clust_8="13000.00000" pt_clust_9="36.92912"></scales>
<clustering>
<clus scale="   36.929">  2  9  1 -1</clus>
<clus scale="   79.766">  5  6 -1 -1</clus>
<clus scale="   89.883">  7  8 -1 -1</clus>
<clus scale="   96.116">  1  5  2 -1</clus>
<clus scale="   36.929">  2  5  1 -1</clus>
</clustering>
</event>
<event>
 9    2  0.5615294E-005  0.9301891E+02  0.7546771E-02  0.1300362E+00
         -1   -1    0    0    0  501 -0.00000000000E+00  0.00000000000E+00  0.42978902941E+02  0.42978902941E+02  0.00000000000E+00 0.  1.
         21   -1    0    0  501  502  0.00000000000E+00 -0.00000000000E+00 -0.32485219670E+03  0.32485219670E+03  0.00000000000E+00 0.  1.
         24    2    1    2    0    0 -0.16739030876E+02 -0.24821086248E+02 -0.86431108188E+02  0.12176827889E+03  0.80379697714E+02 0.  0.
         23    2    1    2    0    0 -0.14909001981E+02  0.34262722502E+02 -0.18957080407E+03  0.21251858727E+03  0.88492076964E+02 0.  0.
        -11    1    3    3    0    0 -0.14433133177E+02 -0.44530980070E+02 -0.90149289557E+02  0.10157862928E+03  0.00000000000E+00 0.  1.
         12    1    3    3    0    0 -0.23058976990E+01  0.19709893822E+02  0.37181813695E+01  0.20189649610E+02  0.00000000000E+00 0. -1.
        -11    1    4    4    0    0 -0.38973357240E+02 -0.34612899104E+01 -0.38236396091E+02  0.54707632817E+02  0.00000000000E+00 0. -1.
         11    1    4    4    0    0  0.24064355259E+02  0.37724012412E+02 -0.15133440798E+03  0.15781095445E+03  0.00000000000E+00 0.  1.
         -2    1    1    2    0  502  0.31648032857E+02 -0.94416362539E+01 -0.58713814985E+01  0.33544233478E+02  0.00000000000E+00 0.  1.
<scales pt_clust_5="13000.00000" pt_clust_6="13000.00000" pt_clust_7="13000.00000" pt_clust_8="13000.00000" pt_clust_9="33.02641"></scales>
<clustering>
<clus scale="   33.026">  2  9  1 -1</clus>
<clus scale="   80.380">  5  6 -1 -1</clus>
<clus scale="   85.338">  1  5  2 -1</clus>
<clus scale="   88.492">  7  8 -1 -1</clus>
<clus scale="   33.026">  2  5  1 -1</clus>
</clustering>
</event>
<event>
 9    2  0.5615294E-005  0.9374648E+02  0.7546771E-02  0.1298859E+00
          2   -1    0    0  502    0 -0.00000000000E+00  0.00000000000E+00  0.55428525460E+03  0.55428525460E+03  0.00000000000E+00 0. -1.
         21   -1    0    0  501  502  0.00000000000E+00 -0.00000000000E+00 -0.30235147521E+02  0.30235147521E+02  0.00000000000E+00 0. -1.
         24    2    1    2    0    0 -0.33304666499E+02 -0.12645234462E+02  0.26188977615E+03  0.27669772199E+03  0.81891829470E+02 0.  0.
         23    2    1    2    0    0  0.37690683896E+01 -0.24802729676E+02  0.92780441394E+02  0.13185606810E+03  0.90268660748E+02 0.  0.
        -13    1    3    3    0    0 -0.43437338649E+02  0.15249091742E+02  0.79156264810E+02  0.91569926540E+02  0.00000000000E+00 0.  1.
         14    1    3    3    0    0  0.10132672151E+02 -0.27894326203E+02  0.18273351134E+03  0.18512779545E+03  0.00000000000E+00 0. -1.
        -13    1    4    4    0    0  0.61364791262E+01  0.30743061737E+02  0.11524571768E+02  0.33400718188E+02  0.00000000000E+00 0. -1.
         13    1    4    4    0    0 -0.23674107366E+01 -0.55545791413E+02  0.81255869626E+02  0.98455349910E+02  0.00000000000E+00 0.  1.
          1    1    1    2  501    0  0.29535598109E+02  0.37447964138E+02  0.16937988953E+03  0.17596661204E+03  0.00000000000E+00 0. -1.
<scales pt_clust_5="13000.00000" pt_clust_6="13000.00000" pt_clust_7="13000.00000" pt_clust_8="13000.00000" pt_clust_9="47.69386"></scales>
<clustering>
<clus scale="   47.694">  2  9  1 -1</clus>
<clus scale="   81.892">  5  6 -1 -1</clus>
<clus scale="   85.710">  1  5  2 -1</clus>
<clus scale="   90.269">  7  8 -1 -1</clus>
<clus scale="   47.694">  2  5  1 -1</clus>
</clustering>
</event>
<event>
 9    2  0.5615294E-005  0.9357225E+02  0.7546771E-02  0.1299500E+00
          2   -1    0    0  502    0 -0.00000000000E+00  0.00000000000E+00  0.35986697893E+03  0.35986697893E+03  0.00000000000E+00 0. -1.
         21   -1    0    0  501  502  0.00000000000E+00 -0.00000000000E+00 -0.12604438772E+03  0.12604438772E+03  0.00000000000E+00 0. -1.
         24    2    1    2    0    0 -0.22490428096E+02 -0.89999281695E+01  0.29932077109E+03  0.31125863974E+03  0.81866957559E+02 0.  0.
         23    2    1    2    0    0  0.18287963364E+02 -0.21012578025E+02 -0.93695086942E+02  0.13325856300E+03  0.90570951505E+02 0.  0.
        -13    1    3    3    0    0  0.16618197615E+02  0.23953071279E+02  0.16451783225E+03  0.16708091227E+03  0.00000000000E+00 0.  1.
         14    1    3    3    0    0 -0.39108625711E+02 -0.32952999449E+02  0.13480293884E+03  0.14417772747E+03  0.00000000000E+00 0. -1.
        -11    1    4    4    0    0  0.40516174592E+02 -0.17829289087E+01 -0.62852748249E+01  0.41039540917E+02  0.00000000000E+00 0.  1.
         11    1    4    4    0    0 -0.22228211229E+02 -0.19229649117E+02 -0.87409812117E+02  0.92219022083E+02  0.00000000000E+00 0. -1.
          1    1    1    2  501    0  0.42024647324E+01  0.30012506195E+02  0.28196907068E+02  0.41394163914E+02  0.00000000000E+00 0. -1.
<scales pt_clust_5="13000.00000" pt_clust_6="13000.00000" pt_clust_7="13000.00000" pt_clust_8="13000.00000" pt_clust_9="30.30532"></scales>
<clustering>
<clus scale="   30.305">  2  9  1 -1</clus>
<clus scale="   81.867">  5  6 -1 -1</clus>
<clus scale="   85.176">  1  5  2 -1</clus>
<clus scale="   90.571">  7  8 -1 -1</clus>
<clus scale="   30.305">  2  5  1 -1</clus>
</clustering>
</event>
<event>
 9    2  0.5615294E-005  0.9512988E+02  0.7546771E-02  0.1298650E+00
         21   -1    0    0  501  502  0.00000000000E+00  0.00000000000E+00  0.13079368675E+03  0.13079368675E+03  0.00000000000E+00 0. -1.
         -3   -1    0    0    0  501 -0.00000000000E+00 -0.00000000000E+00 -0.24291657014E+03  0.24291657014E+03  0.00000000000E+00 0.  1.
         23    2    1    2    0    0  0.18429730114E+02  0.79967322126E+01 -0.20297151474E+03  0.22416088634E+03  0.92989593448E+02 0.  0.
         24    2    1    2    0    0 -0.63910689392E+01 -0.30073093778E+02  0.43633933806E+02  0.96056167550E+02  0.79860067703E+02 0.  0.
        -13    1    4    4    0    0 -0.67349919464E+01 -0.37798878211E+02 -0.11736735991E+02  0.40148054526E+02  0.00000000000E+00 0.  1.
         14    1    4    4    0    0  0.34392300725E+00  0.77257844328E+01  0.55370669797E+02  0.55908113024E+02  0.00000000000E+00 0. -1.
        -11    1    3    3    0    0 -0.25628925765E+02  0.21582486976E+02 -0.15105769724E+03  0.15472903242E+03  0.00000000000E+00 0.  1.
         11    1    3    3    0    0  0.44058655879E+02 -0.13585754764E+02 -0.51913817506E+02  0.69431853918E+02  0.00000000000E+00 0. -1.
         -4    1    1    2    0  502 -0.12038661175E+02  0.22076361565E+02  0.47214697551E+02  0.53493203004E+02  0.00000000000E+00 0.  1.
<scales pt_clust_5="13000.00000" pt_clust_6="13000.00000" pt_clust_7="13000.00000" pt_clust_8="13000.00000" pt_clust_9="25.14548"></scales>
<clustering>
<clus scale="   25.145">  1  9  2 -1</clus>
<clus scale="   79.860">  5  6 -1 -1</clus>
<clus scale="   82.342">  1  5  2 -1</clus>
<clus scale="   92.990">  7  8 -1 -1</clus>
<clus scale="   25.145">  1  5  2 -1</clus>
</clustering>
</event>
<event>
 9    2  0.5615294E-005  0.9499017E+02  0.7546771E-02  0.1297516E+00
          2   -1    0    0  502    0 -0.00000000000E+00  0.00000000000E+00  0.69758575750E+03  0.69758575750E+03  0.00000000000E+00 0. -1.
         21   -1    0    0  501  502  0.00000000000E+00 -0.00000000000E+00 -0.42890280598E+02  0.42890280598E+02  0.00000000000E+00 0. -1.
         24    2    1    2    0    0  0.65681354668E+01 -0.12849338796E+02  0.42482465838E+03  0.43272108468E+03  0.81014201526E+02 0.  0.
         23    2    1    2    0    0 -0.76935663980E+02  0.16917461329E+02  0.19396794923E+03  0.22865277447E+03  0.91941443621E+02 0.  0.
        -11    1    3    3    0    0 -0.25617443679E+02 -0.34713480702E+02  0.20690890374E+03  0.21135887398E+03  0.00000000000E+00 0.  1.
         12    1    3    3    0    0  0.32185579146E+02  0.21864141906E+02  0.21791575464E+03  0.22136221070E+03  0.00000000000E+00 0. -1.
        -11    1    4    4    0    0 -0.24183276679E+02 -0.37130405861E+02  0.87981438860E+02  0.98510057832E+02  0.00000000000E+00 0.  1.
         11    1    4    4    0    0 -0.52752387301E+02  0.54047867190E+02  0.10598651037E+03  0.13014271664E+03  0.00000000000E+00 0. -1.
          1    1    1    2  501    0  0.70367528513E+02 -0.40681225326E+01  0.35902869286E+02  0.79102178939E+02  0.00000000000E+00 0. -1.
<scales pt_clust_5="13000.00000" pt_clust_6="13000.00000" pt_clust_7="13000.00000" pt_clust_8="13000.00000" pt_clust_9="70.48502"></scales>
<clustering>
<clus scale="   70.485">  2  9  1 -1</clus>
<clus scale="   81.014">  5  6 -1 -1</clus>
<clus scale="   84.458">  1  5  2 -1</clus>
<clus scale="   91.941">  7  8 -1 -1</clus>
<clus scale="   70.485">  2  5  1 -1</clus>
</clustering>
</event>
<event>
 9    2  0.5615294E-005  0.1063229E+03  0.7546771E-02  0.1274246E+00
         21   -1    0    0  501  502  0.00000000000E+00  0.00000000000E+00  0.54820191432E+02  0.54820191432E+02  0.00000000000E+00 0.  1.
         -3   -1    0    0    0  501 -0.00000000000E+00 -0.00000000000E+00 -0.46357577723E+03  0.46357577723E+03  0.00000000000E+00 0.  1.
         23    2    1    2    0    0  0.37016711226E+02 -0.10564748475E+02 -0.71190743005E+02  0.12371760022E+03  0.93573884686E+02 0.  0.
         24    2    1    2    0    0 -0.64456030471E+02 -0.13603386565E+02 -0.68903120978E+02  0.12353977701E+03  0.78579923858E+02 0.  0.
        -13    1    4    4    0    0 -0.57623879626E+02  0.14966796753E+02 -0.72647421392E+02  0.93926377249E+02  0.00000000000E+00 0.  1.
         14    1    4    4    0    0 -0.68321508455E+01 -0.28570183317E+02  0.37443004139E+01  0.29613399764E+02  0.00000000000E+00 0. -1.
        -11    1    3    3    0    0  0.58344996017E+02 -0.23749869282E+02 -0.18968676554E+02  0.65787578929E+02  0.00000000000E+00 0.  1.
         11    1    3    3    0    0 -0.21328284791E+02  0.13185120807E+02 -0.52222066451E+02  0.57930021295E+02  0.00000000000E+00 0. -1.
         -4    1    1    2    0  502  0.27439319246E+02  0.24168135040E+02 -0.26866172182E+03  0.27113859143E+03  0.00000000000E+00 0.  1.
<scales pt_clust_5="13000.00000" pt_clust_6="13000.00000" pt_clust_7="13000.00000" pt_clust_8="13000.00000" pt_clust_9="36.56523"></scales>
<clustering>
<clus scale="   36.565">  1  9  2 -1</clus>
<clus scale="   78.580">  5  6 -1 -1</clus>
<clus scale="   93.399">  1  5  2 -1</clus>
<clus scale="   93.574">  7  8 -1 -1</clus>
<clus scale="   36.565">  1  5  2 -1</clus>
</clustering>
</event>
<event>
 9    2  0.5615294E-005  0.1352073E+03  0.7546771E-02  0.1222307E+00
         21   -1    0    0  501  502  0.00000000000E+00  0.00000000000E+00  0.21878501660E+03  0.21878501660E+03  0.00000000000E+00 0.  1.
          4   -1    0    0  502    0 -0.00000000000E+00 -0.00000000000E+00 -0.14924034577E+03  0.14924034577E+03  0.00000000000E+00 0. -1.
         24    2    1    2    0    0 -0.46400034098E+02  0.94257573171E+02 -0.76929503156E+02  0.15321916799E+03  0.80749685565E+02 0.  0.
         23    2    1    2    0    0  0.26194552384E+02 -0.80880393007E+02  0.90654609548E+02  0.15395363310E+03  0.90860719598E+02 0.  0.
        -11    1    3    3    0    0 -0.21543711654E+02  0.70811054546E+02 -0.57208043180E+01  0.74236544638E+02  0.00000000000E+00 0.  1.
         12    1    3    3    0    0 -0.24856322444E+02  0.23446518625E+02 -0.71208698838E+02  0.78982623350E+02  0.00000000000E+00 0. -1.
        -11    1    4    4    0    0  0.55311405423E+02 -0.36488071678E+02  0.71579342253E+02  0.97541443408E+02  0.00000000000E+00 0. -1.
         11    1    4    4    0    0 -0.29116853039E+02 -0.44392321329E+02  0.19075267294E+02  0.56412189695E+02  0.00000000000E+00 0.  1.
          3    1    1    2  501    0  0.20205481714E+02 -0.13377180164E+02  0.55819564439E+02  0.60852561282E+02  0.00000000000E+00 0. -1.
<scales pt_clust_5="13000.00000" pt_clust_6="13000.00000" pt_clust_7="13000.00000" pt_clust_8="13000.00000" pt_clust_9="24.23243"></scales>
<clustering>
<clus scale="   24.232">  1  9  2 -1</clus>
<clus scale="   80.750">  5  6 -1 -1</clus>
<clus scale="   90.861">  7  8 -1 -1</clus>
<clus scale="  128.631">  2  5  1 -1</clus>
<clus scale="   24.232">  1  5  2 -1</clus>
</clustering>
</event>
<event>
 9    2  0.5615294E-005  0.2530113E+03  0.7546771E-02  0.1145906E+00
         -3   -1    0    0    0  501 -0.00000000000E+00  0.00000000000E+00  0.14691023136E+04  0.14691023136E+04  0.00000000000E+00 0.  1.
         21   -1    0    0  501  502  0.00000000000E+00 -0.00000000000E+00 -0.19086777412E+03  0.19086777412E+03  0.00000000000E+00 0.  1.
         23    2    1    2    0    0 -0.22336808564E+02 -0.45826177335E+02 -0.22092573626E+02  0.11044931203E+03  0.95456781703E+02 0.  0.
         24    2    1    2    0    0 -0.21957692302E+03  0.54810057370E+02  0.12847481960E+04  0.13069395186E+04  0.79339842013E+02 0.  0.
        -11    1    4    4    0    0 -0.17955820440E+03  0.73928270647E+02  0.10943257186E+04  0.11114204048E+04  0.00000000000E+00 0.  1.
         12    1    4    4    0    0 -0.40018718623E+02 -0.19118213277E+02  0.19042247745E+03  0.19551911374E+03  0.00000000000E+00 0. -1.
        -11    1    3    3    0    0 -0.51131240924E+02 -0.27422817561E+02  0.15087318117E+02  0.59950328518E+02  0.00000000000E+00 0.  1.
         11    1    3    3    0    0  0.28794432360E+02 -0.18403359775E+02 -0.37179891744E+02  0.50498983515E+02  0.00000000000E+00 0. -1.
         -4    1    1    2    0  502  0.24191373159E+03 -0.89838800352E+01  0.15578917066E+02  0.24258125708E+03  0.00000000000E+00 0.  1.
<scales pt_clust_5="13000.00000" pt_clust_6="13000.00000" pt_clust_7="13000.00000" pt_clust_8="13000.00000" pt_clust_9="240.24964"></scales>
<clustering>
<clus scale="   79.340">  5  6 -1 -1</clus>
<clus scale="   95.457">  7  8 -1 -1</clus>
<clus scale="  108.217">  1  7  2 -1</clus>
<clus scale="  240.250">  2  9  1 -1</clus>
<clus scale="  240.250">  2  5  1 -1</clus>
</clustering>
</event>
<event>
 9    2  0.5615294E-005  0.1051669E+03  0.7546771E-02  0.1274731E+00
          4   -1    0    0  502    0 -0.00000000000E+00  0.00000000000E+00  0.39859489387E+02  0.39859489387E+02  0.00000000000E+00 0. -1.
         21   -1    0    0  501  502  0.00000000000E+00 -0.00000000000E+00 -0.37956698330E+03  0.37956698330E+03  0.00000000000E+00 0.  1.
         24    2    1    2    0    0 -0.25953814629E+02 -0.48327140033E+02 -0.63172303443E+02  0.11678362810E+03  0.81477376695E+02 0.  0.
         23    2    1    2    0    0  0.59284986381E+01  0.38301297635E+02 -0.23359341579E+03  0.25421220543E+03  0.92497702629E+02 0.  0.
        -13    1    3    3    0    0  0.12489420307E+02 -0.15679914298E+02 -0.63247469404E+02  0.66348230707E+02  0.00000000000E+00 0.  1.
         14    1    3    3    0    0 -0.38443234937E+02 -0.32647225735E+02  0.75165960718E-01  0.50435397396E+02  0.00000000000E+00 0. -1.
        -13    1    4    4    0    0  0.10526351946E+02  0.68436087858E+02 -0.14925334722E+03  0.16453225782E+03  0.00000000000E+00 0.  1.
         13    1    4    4    0    0 -0.45978533078E+01 -0.30134790223E+02 -0.84340068574E+02  0.89679947613E+02  0.00000000000E+00 0. -1.
          3    1    1    2  501    0  0.20025315991E+02  0.10025842398E+02 -0.42941774677E+02  0.48430639153E+02  0.00000000000E+00 0. -1.
<scales pt_clust_5="13000.00000" pt_clust_6="13000.00000" pt_clust_7="13000.00000" pt_clust_8="13000.00000" pt_clust_9="22.39488"></scales>
<clustering>
<clus scale="   22.395">  2  9  1 -1</clus>
<clus scale="   81.477">  5  6 -1 -1</clus>
<clus scale="   92.498">  7  8 -1 -1</clus>
<clus scale="   95.618">  1  5  2 -1</clus>
<clus scale="   22.395">  2  5  1 -1</clus>
</clustering>
</event>
<event>
 9    2  0.5615294E-005  0.1228965E+03  0.7546771E-02  0.1246171E+00
          2   -1    0    0  502    0 -0.00000000000E+00  0.00000000000E+00  0.24197546008E+03  0.24197546008E+03  0.00000000000E+00 0. -1.
         21   -1    0    0  501  502  0.00000000000E+00 -0.00000000000E+00 -0.53110277975E+03  0.53110277975E+03  0.00000000000E+00 0. -1.
         24    2    1    2    0    0 -0.13279344431E+02  0.82086871106E+02  0.15206299447E+03  0.19448716534E+03  0.88246857167E+02 0.  0.
         23    2    1    2    0    0  0.18640581121E+02  0.59203139989E+01  0.17022317911E+02  0.11197257542E+03  0.10892922912E+03 0.  0.
        -11    1    3    3    0    0 -0.46749709122E+02  0.30225236459E+02  0.48050084957E+02  0.73538499348E+02  0.00000000000E+00 0.  1.
         12    1    3    3    0    0  0.33470364691E+02  0.51861634646E+02  0.10401290951E+03  0.12094866600E+03  0.00000000000E+00 0. -1.
        -11    1    4    4    0    0 -0.44704814099E+02  0.20729783806E+01  0.18665056202E+02  0.48489194323E+02  0.00000000000E+00 0. -1.
         11    1    4    4    0    0  0.63345395220E+02  0.38473356183E+01 -0.16427382906E+01  0.63483381101E+02  0.00000000000E+00 0.  1.
          1    1    1    2  501    0 -0.53612366900E+01 -0.88007185105E+02 -0.45821263206E+03  0.46661849906E+03  0.00000000000E+00 0. -1.
<scales pt_clust_5="13000.00000" pt_clust_6="13000.00000" pt_clust_7="13000.00000" pt_clust_8="13000.00000" pt_clust_9="88.17033"></scales>
<clustering>
<clus scale="   88.170">  2  9  1 -1</clus>
<clus scale="   88.247">  5  6 -1 -1</clus>
<clus scale="  105.002">  1  5  2 -1</clus>
<clus scale="  108.929">  7  8 -1 -1</clus>
<clus scale="   88.170">  2  5  1 -1</clus>
</clustering>
</event>
<event>
 9    2  0.5615294E-005  0.1373603E+03  0.7546771E-02  0.1219135E+00
         21   -1    0    0  501  502  0.00000000000E+00  0.00000000000E+00  0.27382818359E+02  0.27382818359E+02  0.00000000000E+00 0. -1.
          2   -1    0    0  502    0 -0.00000000000E+00 -0.00000000000E+00 -0.10996966609E+04  0.10996966609E+04  0.00000000000E+00 0. -1.
         24    2    1    2    0    0 -0.33080765338E+02  0.11946428771E+03 -0.62535857107E+03  0.64258664009E+03  0.80487232144E+02 0.  0.
         23    2    1    2    0    0  0.54150071558E+02 -0.63427703109E+02 -0.34518828448E+03  0.36642280013E+03  0.90307324952E+02 0.  0.
        -13    1    3    3    0    0  0.13963435362E+02  0.87067678027E+02 -0.43478399785E+03  0.44363598013E+03  0.00000000000E+00 0.  1.
         14    1    3    3    0    0 -0.47044200700E+02  0.32396609680E+02 -0.19057457322E+03  0.19895065995E+03  0.00000000000E+00 0. -1.
        -13    1    4    4    0    0  0.69393276487E+02 -0.37085577462E+02 -0.31032440653E+03  0.32014372423E+03  0.00000000000E+00 0. -1.
         13    1    4    4    0    0 -0.15243204929E+02 -0.26342125647E+02 -0.34863877953E+02  0.46279075899E+02  0.00000000000E+00 0.  1.
          1    1    1    2  501    0 -0.21069306220E+02 -0.56036584598E+02 -0.10176698699E+03  0.11807003904E+03  0.00000000000E+00 0. -1.
<scales pt_clust_5="13000.00000" pt_clust_6="13000.00000" pt_clust_7="13000.00000" pt_clust_8="13000.00000" pt_clust_9="59.86664"></scales>
<clustering>
<clus scale="   59.867">  1  9  2 -1</clus>
<clus scale="   80.487">  5  6 -1 -1</clus>
<clus scale="   90.307">  7  8 -1 -1</clus>
<clus scale="  131.113">  2  5  1 -1</clus>
<clus scale="   59.867">  1  5  2 -1</clus>
</clustering>
</event>
<event>
 9    2  0.5615294E-005  0.9742722E+02  0.7546771E-02  0.1293724E+00
         -1   -1    0    0    0  501 -0.00000000000E+00  0.00000000000E+00  0.18266734082E+03  0.18266734082E+03  0.00000000000E+00 0.  1.
         21   -1    0    0  501  502  0.00000000000E+00 -0.00000000000E+00 -0.12234414312E+03  0.12234414312E+03  0.00000000000E+00 0. -1.
         24    2    1    2    0    0  0.28490682204E+02 -0.19185686532E+02  0.11957766271E+03  0.14708871427E+03  0.78463130869E+02 0.  0.
         23    2    1    2    0    0  0.38720675853E+01  0.25995150189E+02 -0.76951221002E+01  0.96668527292E+02  0.92708405897E+02 0.  0.
        -13    1    3    3    0    0 -0.11570931474E+01 -0.30805726448E+02  0.10939658961E+03  0.11365713996E+03  0.00000000000E+00 0.  1.
         14    1    3    3    0    0  0.29647775351E+02  0.11620039916E+02  0.10181073099E+02  0.33431574303E+02  0.00000000000E+00 0. -1.
        -13    1    4    4    0    0 -0.20295343103E+02  0.11151747339E+02  0.37050153908E+02  0.43691833619E+02  0.00000000000E+00 0.  1.
         13    1    4    4    0    0  0.24167410688E+02  0.14843402850E+02 -0.44745276008E+02  0.52976693673E+02  0.00000000000E+00 0. -1.
         -2    1    1    2    0  502 -0.32362749789E+02 -0.68094636571E+01 -0.51559342903E+02  0.61254242382E+02  0.00000000000E+00 0.  1.
<scales pt_clust_5="13000.00000" pt_clust_6="13000.00000" pt_clust_7="13000.00000" pt_clust_8="13000.00000" pt_clust_9="33.07138"></scales>
<clustering>
<clus scale="   33.071">  2  9  1 -1</clus>
<clus scale="   78.463">  5  6 -1 -1</clus>
<clus scale="   83.986">  1  5  2 -1</clus>
<clus scale="   92.708">  7  8 -1 -1</clus>
<clus scale="   33.071">  2  5  1 -1</clus>
</clustering>
</event>
<event>
 9    2  0.5615294E-005  0.9824395E+02  0.7546771E-02  0.1291637E+00
          2   -1    0    0  502    0 -0.00000000000E+00  0.00000000000E+00  0.60278680561E+03  0.60278680561E+03  0.00000000000E+00 0. -1.
         21   -1    0    0  501  502  0.00000000000E+00 -0.00000000000E+00 -0.32688635810E+02  0.32688635810E+02  0.00000000000E+00 0. -1.
         24    2    1    2    0    0 -0.56396635563E+02 -0.13590084253E+02  0.30979466120E+03  0.32473186808E+03  0.78184289661E+02 0.  0.
         23    2    1    2    0    0 -0.17101623984E+02  0.10077085650E+00  0.12672053409E+03  0.15768029619E+03  0.92263244837E+02 0.  0.
        -11    1    3    3    0    0 -0.17131178787E+02 -0.23816828259E+02  0.29820466644E+02  0.41832748246E+02  0.00000000000E+00 0.  1.
         12    1    3    3    0    0 -0.39265456776E+02  0.10226744006E+02  0.27997419455E+03  0.28289911984E+03  0.00000000000E+00 0. -1.
        -11    1    4    4    0    0 -0.24942616166E+02  0.43094077490E+02  0.74153285361E+02  0.89319333550E+02  0.00000000000E+00 0.  1.
         11    1    4    4    0    0  0.78409921822E+01 -0.42993306634E+02  0.52567248730E+02  0.68360962638E+02  0.00000000000E+00 0. -1.
          1    1    1    2  501    0  0.73498259547E+02  0.13489313397E+02  0.13358297451E+03  0.15306327715E+03  0.00000000000E+00 0. -1.
<scales pt_clust_5="13000.00000" pt_clust_6="13000.00000" pt_clust_7="13000.00000" pt_clust_8="13000.00000" pt_clust_9="74.72587"></scales>
<clustering>
<clus scale="   74.726">  2  9  1 -1</clus>
<clus scale="   78.184">  5  6 -1 -1</clus>
<clus scale="   85.160">  1  5  2 -1</clus>
<clus scale="   92.263">  7  8 -1 -1</clus>
<clus scale="   74.726">  2  5  1 -1</clus>
</clustering>
</event>
<event>
 9    2  0.5615294E-005  0.9884831E+02  0.7546771E-02  0.1287785E+00
          2   -1    0    0  502    0 -0.00000000000E+00  0.00000000000E+00  0.58239457797E+03  0.58239457797E+03  0.00000000000E+00 0. -1.
         21   -1    0    0  501  502  0.00000000000E+00 -0.00000000000E+00 -0.19981140426E+03  0.19981140426E+03  0.00000000000E+00 0. -1.
         24    2    1    2    0    0 -0.39689707849E+02  0.92172818248E+01  0.53273667826E+03  0.54042877504E+03  0.81207520185E+02 0.  0.
         23    2    1    2    0    0  0.11538006663E+02  0.31838602239E+02 -0.15698398080E+02  0.98402594538E+02  0.91048386692E+02 0.  0.
        -11    1    3    3    0    0  0.18933894803E+02  0.21048809141E+02  0.11505101162E+03  0.11848324782E+03  0.00000000000E+00 0.  1.
         12    1    3    3    0    0 -0.58623602651E+02 -0.11831527316E+02  0.41768566664E+03  0.42194552722E+03  0.00000000000E+00 0. -1.
        -13    1    4    4    0    0  0.50216200954E+02  0.16127960201E+02  0.26324579863E+01  0.52808216914E+02  0.00000000000E+00 0.  1.
         13    1    4    4    0    0 -0.38678194291E+02  0.15710642038E+02 -0.18330856066E+02  0.45594377624E+02  0.00000000000E+00 0. -1.
          1    1    1    2  501    0  0.28151701185E+02 -0.41055884064E+02 -0.13445510647E+03  0.14337461265E+03  0.00000000000E+00 0. -1.
<scales pt_clust_5="13000.00000" pt_clust_6="13000.00000" pt_clust_7="13000.00000" pt_clust_8="13000.00000" pt_clust_9="49.78056"></scales>
<clustering>
<clus scale="   49.781">  2  9  1 -1</clus>
<clus scale="   81.208">  5  6 -1 -1</clus>
<clus scale="   89.866">  1  5  2 -1</clus>
<clus scale="   91.048">  7  8 -1 -1</clus>
<clus scale="   49.781">  2  5  1 -1</clus>
</clustering>
</event>
<event>
 9    2  0.5615294E-005  0.9630938E+02  0.7546771E-02  0.1292620E+00
         21   -1    0    0  501  502  0.00000000000E+00  0.00000000000E+00  0.42726356171E+02  0.42726356171E+02  0.00000000000E+00 0.  1.
          2   -1    0    0  502    0 -0.00000000000E+00 -0.00000000000E+00 -0.30396501554E+03  0.30396501554E+03  0.00000000000E+00 0. -1.
         24    2    1    2    0    0  0.14455292475E+02 -0.43048184036E+02 -0.16208420326E+03  0.18632923324E+03  0.79907400060E+02 0.  0.
         23    2    1    2    0    0 -0.23071023136E+02  0.20781858221E+02 -0.99400779434E+02  0.13648577452E+03  0.88225245559E+02 0.  0.
        -13    1    3    3    0    0 -0.18315451722E+02  0.12492868458E+02 -0.73411884815E+02  0.76686585308E+02  0.00000000000E+00 0.  1.
         14    1    3    3    0    0  0.32770744197E+02 -0.55541052494E+02 -0.88672318447E+02  0.10964264793E+03  0.00000000000E+00 0. -1.
        -13    1    4    4    0    0  0.21030519548E+02 -0.91392115768E+01  0.85377202196E+00  0.22946391163E+02  0.00000000000E+00 0.  1.
         13    1    4    4    0    0 -0.44101542685E+02  0.29921069798E+02 -0.10025455146E+03  0.11353938335E+03  0.00000000000E+00 0. -1.
          1    1    1    2  501    0  0.86157306612E+01  0.22266325815E+02  0.24632333131E+00  0.23876363947E+02  0.00000000000E+00 0. -1.
<scales pt_clust_5="13000.00000" pt_clust_6="13000.00000" pt_clust_7="13000.00000" pt_clust_8="13000.00000" pt_clust_9="23.87509"></scales>
<clustering>
<clus scale="   23.875">  1  9  2 -1</clus>
<clus scale="   79.907">  5  6 -1 -1</clus>
<clus scale="   88.225">  7  8 -1 -1</clus>
<clus scale="   88.752">  2  5  1 -1</clus>
<clus scale="   23.875">  1  5  2 -1</clus>
</clustering>
</event>
<event>
 9    2  0.5615294E-005  0.1232676E+03  0.7546771E-02  0.1248706E+00
         21   -1    0    0  501  502  0.00000000000E+00  0.00000000000E+00  0.15021008625E+03  0.15021008625E+03  0.00000000000E+00 0. -1.
          2   -1    0    0  502    0 -0.00000000000E+00 -0.00000000000E+00 -0.75080003065E+03  0.75080003065E+03  0.00000000000E+00 0. -1.
         24    2    1    2    0    0 -0.32751396557E+02  0.48608862755E+02 -0.57764591909E+03  0.58605070869E+03  0.79656448597E+02 0.  0.
         23    2    1    2    0    0 -0.38478543524E+00  0.70090029888E+02  0.89567770773E+02  0.14808718784E+03  0.94840230348E+02 0.  0.
        -11    1    3    3    0    0 -0.24868094153E+02  0.74613822601E+01 -0.46518777174E+02  0.53273736135E+02  0.00000000000E+00 0.  1.
         12    1    3    3    0    0 -0.78833024045E+01  0.41147480495E+02 -0.53112714192E+03  0.53277697256E+03  0.00000000000E+00 0. -1.
        -11    1    4    4    0    0  0.41100190781E+02  0.40919565128E+02  0.75977787451E+02  0.95583788785E+02  0.00000000000E+00 0.  1.
         11    1    4    4    0    0 -0.41484976216E+02  0.29170464760E+02  0.13589983321E+02  0.52503399058E+02  0.00000000000E+00 0. -1.
          1    1    1    2  501    0  0.33136181992E+02 -0.11869889264E+03 -0.11251179609E+03  0.16687222037E+03  0.00000000000E+00 0. -1.
<scales pt_clust_5="13000.00000" pt_clust_6="13000.00000" pt_clust_7="13000.00000" pt_clust_8="13000.00000" pt_clust_9="78.74163"></scales>
<clustering>
<clus scale="   79.656">  5  6 -1 -1</clus>
<clus scale="   94.840">  7  8 -1 -1</clus>
<clus scale="   98.897">  2  5  1 -1</clus>
<clus scale="   78.742">  1  9  2 -1</clus>
<clus scale="   78.742">  1  5  2 -1</clus>
</clustering>
</event>
<event>
 9    2  0.5615294E-005  0.9288200E+02  0.7546771E-02  0.1302235E+00
         21   -1    0    0  501  502  0.00000000000E+00  0.00000000000E+00  0.20518633108E+02  0.20518633108E+02  0.00000000000E+00 0.  1.
          2   -1    0    0  502    0 -0.00000000000E+00 -0.00000000000E+00 -0.52834904330E+03  0.52834904330E+03  0.00000000000E+00 0. -1.
         24    2    1    2    0    0 -0.69526286940E+01  0.12771582038E+02 -0.17217180448E+03  0.19062805283E+03  0.80526218802E+02 0.  0.
         23    2    1    2    0    0 -0.89242434425E+01 -0.26712305772E+02 -0.20635172038E+03  0.22721790995E+03  0.90850188216E+02 0.  0.
        -11    1    3    3    0    0 -0.40973885497E+02  0.10592726434E+01 -0.12333885241E+03  0.12997097317E+03  0.00000000000E+00 0.  1.
         12    1    3    3    0    0  0.34021256803E+02  0.11712309395E+02 -0.48832952067E+02  0.60657079665E+02  0.00000000000E+00 0. -1.
        -11    1    4    4    0    0 -0.23253086425E+02  0.16587261923E+02 -0.18787043580E+02  0.34187662875E+02  0.00000000000E+00 0.  1.
         11    1    4    4    0    0  0.14328842982E+02 -0.43299567695E+02 -0.18756467680E+03  0.19303024708E+03  0.00000000000E+00 0. -1.
          1    1    1    2  501    0  0.15876872137E+02  0.13940723734E+02 -0.12930688533E+03  0.13102171362E+03  0.00000000000E+00 0. -1.
<scales pt_clust_5="13000.00000" pt_clust_6="13000.00000" pt_clust_7="13000.00000" pt_clust_8="13000.00000" pt_clust_9="21.12864"></scales>
<clustering>
<clus scale="   21.129">  1  9  2 -1</clus>
<clus scale="   80.526">  5  6 -1 -1</clus>
<clus scale="   82.812">  2  5  1 -1</clus>
<clus scale="   90.850">  7  8 -1 -1</clus>
<clus scale="   21.129">  1  5  2 -1</clus>
</clustering>
</event>
<event>
 9    2  0.5615294E-005  0.1046779E+03  0.7546771E-02  0.1276636E+00
         21   -1    0    0  501  502  0.00000000000E+00  0.00000000000E+00  0.24030555758E+02  0.24030555758E+02  0.00000000000E+00 0.  1.
          2   -1    0    0  502    0 -0.00000000000E+00 -0.00000000000E+00 -0.81802882039E+03  0.81802882039E+03  0.00000000000E+00 0. -1.
         24    2    1    2    0    0  0.54851659678E+02  0.18125504650E-01 -0.52195286399E+03  0.53068875925E+03  0.78657879862E+02 0.  0.
         23    2    1    2    0    0 -0.31746672415E+02 -0.28779310108E+02 -0.13073632121E+03  0.16532506885E+03  0.91674930088E+02 0.  0.
        -11    1    3    3    0    0 -0.61367238741E+01 -0.27213822348E+02 -0.11811912352E+03  0.12136877213E+03  0.00000000000E+00 0.  1.
         12    1    3    3    0    0  0.60988383552E+02  0.27231947852E+02 -0.40383374047E+03  0.40931998712E+03  0.00000000000E+00 0. -1.
        -11    1    4    4    0    0 -0.26122082157E+02 -0.48105947374E+02 -0.13416863445E+03  0.14490606550E+03  0.00000000000E+00 0. -1.
         11    1    4    4    0    0 -0.56245902585E+01  0.19326637266E+02  0.34323132387E+01  0.20419003349E+02  0.00000000000E+00 0.  1.
          1    1    1    2  501    0 -0.23104987263E+02  0.28761184603E+02 -0.14130907943E+03  0.14604554805E+03  0.00000000000E+00 0. -1.
<scales pt_clust_5="13000.00000" pt_clust_6="13000.00000" pt_clust_7="13000.00000" pt_clust_8="13000.00000" pt_clust_9="36.89238"></scales>
<clustering>
<clus scale="   36.892">  1  9  2 -1</clus>
<clus scale="   78.658">  5  6 -1 -1</clus>
<clus scale="   91.675">  7  8 -1 -1</clus>
<clus scale="   93.489">  2  5  1 -1</clus>
<clus scale="   36.892">  1  5  2 -1</clus>
</clustering>
</event>
<event>
 9    2  0.5615294E-005  0.1956585E+03  0.7546771E-02  0.1181126E+00
         21   -1    0    0  501  502  0.00000000000E+00  0.00000000000E+00  0.75182669027E+02  0.75182669027E+02  0.00000000000E+00 0. -1.
          2   -1    0    0  502    0 -0.00000000000E+00 -0.00000000000E+00 -0.12345980258E+04  0.12345980258E+04  0.00000000000E+00 0. -1.
         24    2    1    2    0    0  0.14082418212E+02 -0.62252467612E+02 -0.26082736610E+03  0.28064106400E+03  0.81577004531E+02 0.  0.
         23    2    1    2    0    0  0.92148545881E+02 -0.13468743718E+03 -0.12582342998E+03  0.22463020882E+03  0.89415518458E+02 0.  0.
        -11    1    3    3    0    0 -0.12852223862E+02 -0.70316547135E+02 -0.14792614918E+03  0.16429163725E+03  0.00000000000E+00 0.  1.
         12    1    3    3    0    0  0.26934642074E+02  0.80640795230E+01 -0.11290121693E+03  0.11634942675E+03  0.00000000000E+00 0. -1.
        -11    1    4    4    0    0  0.37660982366E+02  0.31381979144E+01 -0.28365529219E+02  0.47252525084E+02  0.00000000000E+00 0.  1.
         11    1    4    4    0    0  0.54487563515E+02 -0.13782563510E+03 -0.97457900762E+02  0.17737768374E+03  0.00000000000E+00 0. -1.
          1    1    1    2  501    0 -0.10623096409E+03  0.19693990480E+03 -0.77276456070E+03  0.80450942201E+03  0.00000000000E+00 0. -1.
<scales pt_clust_5="13000.00000" pt_clust_6="13000.00000" pt_clust_7="13000.00000" pt_clust_8="13000.00000" pt_clust_9="174.03200"></scales>
<clustering>
<clus scale="   81.577">  5  6 -1 -1</clus>
<clus scale="   89.416">  7  8 -1 -1</clus>
<clus scale="  103.578">  2  5  1 -1</clus>
<clus scale="  174.032">  1  9  2 -1</clus>
<clus scale="  174.032">  1  5  2 -1</clus>
</clustering>
</event>
<event>
 9    2  0.5615294E-005  0.1014114E+03  0.7546771E-02  0.1283192E+00
         21   -1    0    0  501  502  0.00000000000E+00  0.00000000000E+00  0.65512395000E+02  0.65512395000E+02  0.00000000000E+00 0. -1.
          2   -1    0    0  502    0 -0.00000000000E+00 -0.00000000000E+00 -0.45822899861E+03  0.45822899861E+03  0.00000000000E+00 0. -1.
         24    2    1    2    0    0  0.13421963583E+02  0.36789323644E+02 -0.35106225351E+03  0.36221760860E+03  0.80145409702E+02 0.  0.
         23    2    1    2    0    0  0.91797083814E+00 -0.71998933458E+02 -0.39841682876E+02  0.12346283252E+03  0.92038156378E+02 0.  0.
        -13    1    3    3    0    0 -0.31054367338E+02  0.25135341793E+02 -0.11561985556E+03  0.12232787965E+03  0.00000000000E+00 0.  1.
         14    1    3    3    0    0  0.44476330922E+02  0.11653981851E+02 -0.23544239795E+03  0.23988972895E+03  0.00000000000E+00 0. -1.
        -11    1    4    4    0    0  0.40106603281E+01 -0.25237488989E+02 -0.65306072286E+02  0.70127735770E+02  0.00000000000E+00 0.  1.
         11    1    4    4    0    0 -0.30926894899E+01 -0.46761444469E+02  0.25464389411E+02  0.53335096748E+02  0.00000000000E+00 0. -1.
          1    1    1    2  501    0 -0.14339934422E+02  0.35209609814E+02 -0.18126672245E+01  0.38060952497E+02  0.00000000000E+00 0. -1.
<scales pt_clust_5="13000.00000" pt_clust_6="13000.00000" pt_clust_7="13000.00000" pt_clust_8="13000.00000" pt_clust_9="38.01776"></scales>
<clustering>
<clus scale="   38.018">  1  9  2 -1</clus>
<clus scale="   80.145">  5  6 -1 -1</clus>
<clus scale="   90.755">  2  5  1 -1</clus>
<clus scale="   92.038">  7  8 -1 -1</clus>
<clus scale="   38.018">  1  5  2 -1</clus>
</clustering>
</event>
<event>
 9    2  0.5615294E-005  0.9773173E+02  0.7546771E-02  0.1290339E+00
         21   -1    0    0  501  502  0.00000000000E+00  0.00000000000E+00  0.33706624809E+02  0.33706624809E+02  0.00000000000E+00 0. -1.
          2   -1    0    0  502    0 -0.00000000000E+00 -0.00000000000E+00 -0.39038671795E+03  0.39038671795E+03  0.00000000000E+00 0. -1.
         24    2    1    2    0    0  0.19158517297E+02 -0.43919256528E+01 -0.15512597428E+03  0.17673719945E+03  0.82374947501E+02 0.  0.
         23    2    1    2    0    0 -0.54516007155E+02  0.59478928808E+01 -0.13956934149E+03  0.17597907592E+03  0.92095937008E+02 0.  0.
        -11    1    3    3    0    0  0.15159669603E+02  0.22589239964E+02 -0.14517631719E+03  0.14770325798E+03  0.00000000000E+00 0.  1.
         12    1    3    3    0    0  0.39988476937E+01 -0.26981165617E+02 -0.99496570907E+01  0.29033941468E+02  0.00000000000E+00 0. -1.
        -13    1    4    4    0    0  0.85317493262E+01 -0.28788698010E+02 -0.68646552905E+02  0.74926157685E+02  0.00000000000E+00 0.  1.
         13    1    4    4    0    0 -0.63047756481E+02  0.34736590891E+02 -0.70922788582E+02  0.10105291824E+03  0.00000000000E+00 0. -1.
          1    1    1    2  501    0  0.35357489858E+02 -0.15559672280E+01 -0.61984777366E+02  0.71377067383E+02  0.00000000000E+00 0. -1.
<scales pt_clust_5="13000.00000" pt_clust_6="13000.00000" pt_clust_7="13000.00000" pt_clust_8="13000.00000" pt_clust_9="35.39173"></scales>
<clustering>
<clus scale="   35.392">  1  9  2 -1</clus>
<clus scale="   82.375">  5  6 -1 -1</clus>
<clus scale="   88.631">  2  5  1 -1</clus>
<clus scale="   92.096">  7  8 -1 -1</clus>
<clus scale="   35.392">  1  5  2 -1</clus>
</clustering>
</event>
<event>
 9    2  0.5615294E-005  0.1011040E+03  0.7546771E-02  0.1287023E+00
         21   -1    0    0  501  502  0.00000000000E+00  0.00000000000E+00  0.51852612797E+02  0.51852612797E+02  0.00000000000E+00 0.  1.
         -1   -1    0    0    0  501 -0.00000000000E+00 -0.00000000000E+00 -0.72607063493E+03  0.72607063493E+03  0.00000000000E+00 0.  1.
         24    2    1    2    0    0  0.17921160474E+02 -0.53730322904E+01 -0.50034771452E+03  0.50729768761E+03  0.81566359224E+02 0.  0.
         23    2    1    2    0    0 -0.52594325356E+02 -0.11507080556E+02 -0.19635330315E+03  0.22598643310E+03  0.98064633394E+02 0.  0.
        -11    1    3    3    0    0  0.46835646026E+02 -0.11871500794E+02 -0.21226340290E+03  0.21769304646E+03  0.00000000000E+00 0.  1.
         12    1    3    3    0    0 -0.28914485552E+02  0.64984685031E+01 -0.28808431162E+03  0.28960464114E+03  0.00000000000E+00 0. -1.
        -11    1    4    4    0    0 -0.73048478319E+02 -0.15493353999E+02 -0.19008298749E+03  0.20422454881E+03  0.00000000000E+00 0.  1.
         11    1    4    4    0    0  0.20454152963E+02  0.39862734427E+01 -0.62703156661E+01  0.21761884293E+02  0.00000000000E+00 0. -1.
         -2    1    1    2    0  502  0.34673164882E+02  0.16880112847E+02  0.22482995541E+02  0.44639127020E+02  0.00000000000E+00 0.  1.
<scales pt_clust_5="13000.00000" pt_clust_6="13000.00000" pt_clust_7="13000.00000" pt_clust_8="13000.00000" pt_clust_9="38.56380"></scales>
<clustering>
<clus scale="   38.564">  1  9  2 -1</clus>
<clus scale="   81.566">  5  6 -1 -1</clus>
<clus scale="   85.196">  2  5  1 -1</clus>
<clus scale="   98.065">  7  8 -1 -1</clus>
<clus scale="   38.564">  1  5  2 -1</clus>
</clustering>
</event>
<event>
 9    2  0.5615294E-005  0.1449265E+03  0.7546771E-02  0.1220835E+00
          2   -1    0    0  502    0 -0.00000000000E+00  0.00000000000E+00  0.70986738879E+03  0.70986738879E+03  0.00000000000E+00 0. -1.
         21   -1    0    0  501  502  0.00000000000E+00 -0.00000000000E+00 -0.13675758682E+03  0.13675758682E+03  0.00000000000E+00 0. -1.
         24    2    1    2    0    0  0.25556063955E+02 -0.33770059693E+02  0.36477981706E+03  0.38035130547E+03  0.99041765458E+02 0.  0.
         23    2    1    2    0    0  0.62820597223E+02  0.96750359671E+02 -0.73869360174E+02  0.16392714247E+03  0.90046466525E+02 0.  0.
        -11    1    3    3    0    0 -0.36625360727E+02 -0.25588629897E+02  0.16638174671E+03  0.17227617556E+03  0.00000000000E+00 0.  1.
         12    1    3    3    0    0  0.62181424682E+02 -0.81814297960E+01  0.19839807035E+03  0.20807512991E+03  0.00000000000E+00 0. -1.
        -11    1    4    4    0    0  0.25819120506E+02  0.79594975991E+02 -0.49251357463E+01  0.83822694712E+02  0.00000000000E+00 0.  1.
         11    1    4    4    0    0  0.37001476718E+02  0.17155383680E+02 -0.68944224427E+02  0.80104447757E+02  0.00000000000E+00 0. -1.
          1    1    1    2  501    0 -0.88376661178E+02 -0.62980299978E+02  0.28219934509E+03  0.30234652767E+03  0.00000000000E+00 0. -1.
<scales pt_clust_5="13000.00000" pt_clust_6="13000.00000" pt_clust_7="13000.00000" pt_clust_8="13000.00000" pt_clust_9="113.55765"></scales>
<clustering>
<clus scale="   90.046">  7  8 -1 -1</clus>
<clus scale="   99.042">  5  6 -1 -1</clus>
<clus scale="  107.716">  1  5  2 -1</clus>
<clus scale="  113.558">  2  9  1 -1</clus>
<clus scale="  113.558">  2  5  1 -1</clus>
</clustering>
</event>
<event>
 9    2  0.5615294E-005  0.1395461E+03  0.7546771E-02  0.1219821E+00
         21   -1    0    0  501  502  0.00000000000E+00  0.00000000000E+00  0.25809505631E+02  0.25809505631E+02  0.00000000000E+00 0.  1.
          2   -1    0    0  502    0 -0.00000000000E+00 -0.00000000000E+00 -0.88462838411E+03  0.88462838411E+03  0.00000000000E+00 0. -1.
         24    2    1    2    0    0  0.84854237341E+02  0.26705691610E+02 -0.40589518529E+03  0.42358367842E+03  0.82211894659E+02 0.  0.
         23    2    1    2    0    0 -0.82002425173E+02 -0.52912073767E+02 -0.42460063105E+03  0.44816179414E+03  0.10506765703E+03 0.  0.
        -11    1    3    3    0    0  0.24391422725E+02  0.40345734210E+02 -0.89331591816E+02  0.10100917319E+03  0.00000000000E+00 0.  1.
         12    1    3    3    0    0  0.60462814616E+02 -0.13640042601E+02 -0.31656359347E+03  0.32257450523E+03  0.00000000000E+00 0. -1.
        -13    1    4    4    0    0 -0.54090527090E+02 -0.83896688450E+02 -0.33023265671E+03  0.34498992306E+03  0.00000000000E+00 0.  1.
         13    1    4    4    0    0 -0.27911898083E+02  0.30984614683E+02 -0.94367974340E+02  0.10317187108E+03  0.00000000000E+00 0. -1.
          1    1    1    2  501    0 -0.28518121685E+01  0.26206382157E+02 -0.28323062142E+02  0.38692417184E+02  0.00000000000E+00 0. -1.
<scales pt_clust_5="13000.00000" pt_clust_6="13000.00000" pt_clust_7="13000.00000" pt_clust_8="13000.00000" pt_clust_9="26.36109"></scales>
<clustering>
<clus scale="   26.361">  1  9  2 -1</clus>
<clus scale="   82.212">  5  6 -1 -1</clus>
<clus scale="  105.068">  7  8 -1 -1</clus>
<clus scale="  123.259">  2  5  1 -1</clus>
<clus scale="   26.361">  1  5  2 -1</clus>
</clustering>
</event>
<event>
 9    2  0.5615294E-005  0.2025714E+03  0.7546771E-02  0.1184667E+00
          2   -1    0    0  502    0 -0.00000000000E+00  0.00000000000E+00  0.33128717940E+03  0.33128717940E+03  0.00000000000E+00 0. -1.
         21   -1    0    0  501  502  0.00000000000E+00 -0.00000000000E+00 -0.18691255035E+03  0.18691255035E+03  0.00000000000E+00 0. -1.
         24    2    1    2    0    0  0.24526587638E+02  0.20816328299E+02 -0.50618969793E+01  0.86374117376E+02  0.79999952040E+02 0.  0.
         23    2    1    2    0    0  0.99549646407E+02  0.12648149143E+03  0.15331074208E+03  0.23919495775E+03  0.88330880241E+02 0.  0.
        -13    1    3    3    0    0  0.37947692697E+02 -0.86571516022E+01  0.21520764761E+02  0.44476026922E+02  0.00000000000E+00 0.  1.
         14    1    3    3    0    0 -0.13421105059E+02  0.29473479901E+02 -0.26582661740E+02  0.41898090454E+02  0.00000000000E+00 0. -1.
        -13    1    4    4    0    0  0.68061986297E+02  0.50856835551E+02  0.12767091453E+03  0.15335812375E+03  0.00000000000E+00 0. -1.
         13    1    4    4    0    0  0.31487660110E+02  0.75624655877E+02  0.25639827543E+02  0.85836834006E+02  0.00000000000E+00 0.  1.
          1    1    1    2  501    0 -0.12407623404E+03 -0.14729781973E+03 -0.38742160444E+01  0.19263065462E+03  0.00000000000E+00 0. -1.
<scales pt_clust_5="13000.00000" pt_clust_6="13000.00000" pt_clust_7="13000.00000" pt_clust_8="13000.00000" pt_clust_9="182.29875"></scales>
<clustering>
<clus scale="   80.000">  5  6 -1 -1</clus>
<clus scale="   86.226">  1  5  2 -1</clus>
<clus scale="   88.331">  7  8 -1 -1</clus>
<clus scale="  182.299">  2  9  1 -1</clus>
<clus scale="  182.299">  2  5  1 -1</clus>
</clustering>
</event>
<event>
 9    2  0.5615294E-005  0.2253468E+03  0.7546771E-02  0.1150368E+00
         21   -1    0    0  501  502  0.00000000000E+00  0.00000000000E+00  0.82770406492E+02  0.82770406492E+02  0.00000000000E+00 0. -1.
          2   -1    0    0  502    0 -0.00000000000E+00 -0.00000000000E+00 -0.15680027045E+04  0.15680027045E+04  0.00000000000E+00 0. -1.
         23    2    1    2    0    0  0.68298556810E+02 -0.78072116235E+02 -0.16072618931E+03  0.21168021257E+03  0.90640257437E+02 0.  0.
         24    2    1    2    0    0 -0.16040424325E+03 -0.11926212808E+03 -0.11195908652E+04  0.11400702931E+04  0.79521012165E+02 0.  0.
        -11    1    4    4    0    0 -0.92631844451E+02 -0.69504366707E+02 -0.42812368627E+03  0.44351032271E+03  0.00000000000E+00 0.  1.
         12    1    4    4    0    0 -0.67772398798E+02 -0.49757761374E+02 -0.69146717893E+03  0.69655997042E+03  0.00000000000E+00 0. -1.
        -13    1    3    3    0    0  0.86454851604E+02 -0.40556393817E+02 -0.10270490086E+03  0.14024107496E+03  0.00000000000E+00 0.  1.
         13    1    3    3    0    0 -0.18156294794E+02 -0.37515722417E+02 -0.58021288449E+02  0.71439137610E+02  0.00000000000E+00 0. -1.
          1    1    1    2  501    0  0.92105686439E+02  0.19733424432E+03 -0.20491524346E+03  0.29902260526E+03  0.00000000000E+00 0. -1.
<scales pt_clust_5="13000.00000" pt_clust_6="13000.00000" pt_clust_7="13000.00000" pt_clust_8="13000.00000" pt_clust_9="210.84972"></scales>
<clustering>
<clus scale="   79.521">  5  6 -1 -1</clus>
<clus scale="   90.640">  7  8 -1 -1</clus>
<clus scale="  137.752">  2  7  1 -1</clus>
<clus scale="  210.850">  1  9  2 -1</clus>
<clus scale="  210.850">  1  5  2 -1</clus>
</clustering>
</event>
<event>
 9    2  0.5615294E-005  0.9697784E+02  0.7546771E-02  0.1288200E+00
         21   -1    0    0  501  502  0.00000000000E+00  0.00000000000E+00  0.37909408268E+02  0.37909408268E+02  0.00000000000E+00 0. -1.
          2   -1    0    0  502    0 -0.00000000000E+00 -0.00000000000E+00 -0.66269346664E+03  0.66269346664E+03  0.00000000000E+00 0. -1.
         24    2    1    2    0    0  0.27996230602E+02 -0.39369177523E+02 -0.44545448080E+03  0.45642658913E+03  0.86958701312E+02 0.  0.
         23    2    1    2    0    0 -0.13447791342E+02 -0.25299063614E+02 -0.74231438151E+02  0.11992147739E+03  0.89721617342E+02 0.  0.
        -13    1    3    3    0    0 -0.95380665350E+01  0.22785278479E+02 -0.76282892068E+02  0.80182437297E+02  0.00000000000E+00 0.  1.
         14    1    3    3    0    0  0.37534297137E+02 -0.62154456002E+02 -0.36917158873E+03  0.37624415183E+03  0.00000000000E+00 0. -1.
        -13    1    4    4    0    0  0.24118830934E+02 -0.30706466768E+02 -0.29401088944E+01  0.39156727995E+02  0.00000000000E+00 0. -1.
         13    1    4    4    0    0 -0.37566622276E+02  0.54074031541E+01 -0.71291329257E+02  0.80764749398E+02  0.00000000000E+00 0.  1.
          1    1    1    2  501    0 -0.14548439260E+02  0.64668241137E+02 -0.10509813942E+03  0.12425480838E+03  0.00000000000E+00 0. -1.
<scales pt_clust_5="13000.00000" pt_clust_6="13000.00000" pt_clust_7="13000.00000" pt_clust_8="13000.00000" pt_clust_9="66.28453"></scales>
<clustering>
<clus scale="   66.285">  1  9  2 -1</clus>
<clus scale="   86.959">  5  6 -1 -1</clus>
<clus scale="   89.722">  7  8 -1 -1</clus>
<clus scale="   94.427">  2  5  1 -1</clus>
<clus scale="   66.285">  1  5  2 -1</clus>
</clustering>
</event>
<event>
 9    2  0.5615294E-005  0.1117332E+03  0.7546771E-02  0.1262003E+00
         21   -1    0    0  501  502  0.00000000000E+00  0.00000000000E+00  0.22592159304E+03  0.22592159304E+03  0.00000000000E+00 0.  1.
          2   -1    0    0  502    0 -0.00000000000E+00 -0.00000000000E+00 -0.23580027224E+03  0.23580027224E+03  0.00000000000E+00 0. -1.
         24    2    1    2    0    0  0.66401441617E+02 -0.43301110839E+02 -0.50879871264E+02  0.12241471757E+03  0.78182249447E+02 0.  0.
         23    2    1    2    0    0  0.22726257790E+02  0.29060369475E+02  0.16150328644E+03  0.18875051296E+03  0.90456933108E+02 0.  0.
        -13    1    3    3    0    0  0.77350722390E+02 -0.51786770885E+02 -0.54799294220E+02  0.10801836205E+03  0.00000000000E+00 0.  1.
         14    1    3    3    0    0 -0.10949280773E+02  0.84856600459E+01  0.39194229562E+01  0.14396355517E+02  0.00000000000E+00 0. -1.
        -13    1    4    4    0    0  0.88801100398E+01 -0.19253389213E+02  0.12461849907E+03  0.12640933375E+03  0.00000000000E+00 0.  1.
         13    1    4    4    0    0  0.13846147750E+02  0.48313758688E+02  0.36884787372E+02  0.62341179212E+02  0.00000000000E+00 0. -1.
          1    1    1    2  501    0 -0.89127699407E+02  0.14240741365E+02 -0.12050209437E+03  0.15055663474E+03  0.00000000000E+00 0. -1.
<scales pt_clust_5="13000.00000" pt_clust_6="13000.00000" pt_clust_7="13000.00000" pt_clust_8="13000.00000" pt_clust_9="90.25826"></scales>
<clustering>
<clus scale="   78.182">  5  6 -1 -1</clus>
<clus scale="   90.258">  1  9  2 -1</clus>
<clus scale="   90.457">  7  8 -1 -1</clus>
<clus scale="  102.051">  2  5  1 -1</clus>
<clus scale="   90.258">  1  5  2 -1</clus>
</clustering>
</event>
<event>
 9    2  0.5615294E-005  0.1006363E+03  0.7546771E-02  0.1283529E+00
         21   -1    0    0  501  502  0.00000000000E+00  0.00000000000E+00  0.77271266680E+02  0.77271266680E+02  0.00000000000E+00 0.  1.
          4   -1    0    0  502    0 -0.00000000000E+00 -0.00000000000E+00 -0.27335731522E+03  0.27335731522E+03  0.00000000000E+00 0. -1.
         24    2    1    2    0    0 -0.14718877384E+02  0.46555322283E+02 -0.19821033298E+03  0.21998163628E+03  0.81978904704E+02 0.  0.
         23    2    1    2    0    0  0.75749220548E+01 -0.17993168250E+02 -0.17886152505E+02  0.95048485986E+02  0.91286180164E+02 0.  0.
        -11    1    3    3    0    0  0.18184620979E+01  0.39602409120E+02 -0.27305397971E+02  0.48137743724E+02  0.00000000000E+00 0.  1.
         12    1    3    3    0    0 -0.16537339482E+02  0.69529131636E+01 -0.17090493501E+03  0.17184389256E+03  0.00000000000E+00 0. -1.
        -13    1    4    4    0    0  0.99084980230E+01  0.21475534208E+02 -0.42384055695E+02  0.48536430439E+02  0.00000000000E+00 0. -1.
         13    1    4    4    0    0 -0.23335759682E+01 -0.39468702458E+02  0.24497903190E+02  0.46512055547E+02  0.00000000000E+00 0.  1.
          3    1    1    2  501    0  0.71439553293E+01 -0.28562154033E+02  0.20010436952E+02  0.35598459626E+02  0.00000000000E+00 0. -1.
<scales pt_clust_5="13000.00000" pt_clust_6="13000.00000" pt_clust_7="13000.00000" pt_clust_8="13000.00000" pt_clust_9="29.44202"></scales>
<clustering>
<clus scale="   29.442">  1  9  2 -1</clus>
<clus scale="   81.979">  5  6 -1 -1</clus>
<clus scale="   91.286">  7  8 -1 -1</clus>
<clus scale="   92.277">  2  5  1 -1</clus>
<clus scale="   29.442">  1  5  2 -1</clus>
</clustering>
</event>
<event>
 9    2  0.5615294E-005  0.9696631E+02  0.7546771E-02  0.1292961E+00
         21   -1    0    0  501  502  0.00000000000E+00  0.00000000000E+00  0.77945434403E+02  0.77945434403E+02  0.00000000000E+00 0.  1.
          2   -1    0    0  502    0 -0.00000000000E+00 -0.00000000000E+00 -0.90541381754E+03  0.90541381754E+03  0.00000000000E+00 0. -1.
         24    2    1    2    0    0 -0.27901469439E+02 -0.17370455417E+02 -0.82920239751E+03  0.83368744438E+03  0.79861844219E+02 0.  0.
         23    2    1    2    0    0  0.69167458085E+01  0.54901180494E+02  0.69304580899E+00  0.10666020952E+03  0.91180803852E+02 0.  0.
        -11    1    3    3    0    0 -0.18034412088E+02  0.15695731281E+02 -0.75487907707E+02  0.79183459194E+02  0.00000000000E+00 0.  1.
         12    1    3    3    0    0 -0.98670573505E+01 -0.33066186698E+02 -0.75371448980E+03  0.75450398518E+03  0.00000000000E+00 0. -1.
        -13    1    4    4    0    0  0.23753847661E+02  0.31213587682E+02  0.41148432843E+02  0.56848279306E+02  0.00000000000E+00 0.  1.
         13    1    4    4    0    0 -0.16837101853E+02  0.23687592812E+02 -0.40455387034E+02  0.49811930218E+02  0.00000000000E+00 0. -1.
          1    1    1    2  501    0  0.20984723630E+02 -0.37530725078E+02  0.10409685596E+01  0.43011598043E+02  0.00000000000E+00 0. -1.
<scales pt_clust_5="13000.00000" pt_clust_6="13000.00000" pt_clust_7="13000.00000" pt_clust_8="13000.00000" pt_clust_9="42.99900"></scales>
<clustering>
<clus scale="   42.999">  1  9  2 -1</clus>
<clus scale="   79.862">  5  6 -1 -1</clus>
<clus scale="   86.409">  2  5  1 -1</clus>
<clus scale="   91.181">  7  8 -1 -1</clus>
<clus scale="   42.999">  1  5  2 -1</clus>
</clustering>
</event>
<event>
 9    2  0.5615294E-005  0.1057108E+03  0.7546771E-02  0.1273868E+00
          2   -1    0    0  502    0 -0.00000000000E+00  0.00000000000E+00  0.50946535429E+02  0.50946535429E+02  0.00000000000E+00 0. -1.
         21   -1    0    0  501  502  0.00000000000E+00 -0.00000000000E+00 -0.27007076291E+03  0.27007076291E+03  0.00000000000E+00 0. -1.
         23    2    1    2    0    0 -0.12750013405E+02  0.62215771459E+02 -0.85910621437E+02  0.14076819055E+03  0.91660697882E+02 0.  0.
         24    2    1    2    0    0 -0.86940655149E+01 -0.43510827529E+02 -0.88459999735E+02  0.12721507413E+03  0.79935753234E+02 0.  0.
        -13    1    4    4    0    0 -0.37895301922E+02 -0.37874856561E+02 -0.29458893449E+02  0.61142334520E+02  0.00000000000E+00 0.  1.
         14    1    4    4    0    0  0.29201236407E+02 -0.56359709677E+01 -0.59001106286E+02  0.66072739609E+02  0.00000000000E+00 0. -1.
        -11    1    3    3    0    0 -0.49305404443E+02  0.30050134219E+02 -0.67213394195E+02  0.88609671216E+02  0.00000000000E+00 0.  1.
         11    1    3    3    0    0  0.36555391038E+02  0.32165637240E+02 -0.18697227241E+02  0.52158519338E+02  0.00000000000E+00 0. -1.
          1    1    1    2  501    0  0.21444078920E+02 -0.18704943930E+02 -0.44753606304E+02  0.53034033652E+02  0.00000000000E+00 0. -1.
<scales pt_clust_5="13000.00000" pt_clust_6="13000.00000" pt_clust_7="13000.00000" pt_clust_8="13000.00000" pt_clust_9="28.45564"></scales>
<clustering>
<clus scale="   28.456">  2  9  1 -1</clus>
<clus scale="   79.936">  5  6 -1 -1</clus>
<clus scale="   91.661">  7  8 -1 -1</clus>
<clus scale="   95.723">  2  5  1 -1</clus>
<clus scale="   28.456">  2  5  1 -1</clus>
</clustering>
</event>
<event>
 9    2  0.5615294E-005  0.9867887E+02  0.7546771E-02  0.1289179E+00
          2   -1    0    0  502    0 -0.00000000000E+00  0.00000000000E+00  0.22812850657E+03  0.22812850657E+03  0.00000000000E+00 0. -1.
         21   -1    0    0  501  502  0.00000000000E+00 -0.00000000000E+00 -0.11139529442E+03  0.11139529442E+03  0.00000000000E+00 0. -1.
         24    2    1    2    0    0  0.92319795894E+01  0.24460567618E+01  0.66307656021E+02  0.10542306464E+03  0.81400888634E+02 0.  0.
         23    2    1    2    0    0 -0.47422630554E+02 -0.43660094962E+02  0.10608293283E+03  0.15501302335E+03  0.92845780677E+02 0.  0.
        -13    1    3    3    0    0  0.18538296903E+02  0.35128246745E+02  0.58243420909E+02  0.70497930826E+02  0.00000000000E+00 0.  1.
         14    1    3    3    0    0 -0.93063173139E+01 -0.32682189983E+02  0.80642351117E+01  0.34925133815E+02  0.00000000000E+00 0. -1.
        -11    1    4    4    0    0 -0.31254174999E+02 -0.67152992713E+02  0.42668159441E+02  0.85480522432E+02  0.00000000000E+00 0.  1.
         11    1    4    4    0    0 -0.16168455555E+02  0.23492897751E+02  0.63414773393E+02  0.69532500920E+02  0.00000000000E+00 0. -1.
          1    1    1    2  501    0  0.38190650965E+02  0.41214038200E+02 -0.55657376708E+02  0.79087713002E+02  0.00000000000E+00 0. -1.
<scales pt_clust_5="13000.00000" pt_clust_6="13000.00000" pt_clust_7="13000.00000" pt_clust_8="13000.00000" pt_clust_9="56.18828"></scales>
<clustering>
<clus scale="   56.188">  2  9  1 -1</clus>
<clus scale="   81.401">  5  6 -1 -1</clus>
<clus scale="   87.996">  1  5  2 -1</clus>
<clus scale="   92.846">  7  8 -1 -1</clus>
<clus scale="   56.188">  2  5  1 -1</clus>
</clustering>
</event>
<event>
 9    2  0.5615294E-005  0.9899944E+02  0.7546771E-02  0.1291389E+00
          2   -1    0    0  502    0 -0.00000000000E+00  0.00000000000E+00  0.55260731341E+03  0.55260731341E+03  0.00000000000E+00 0. -1.
         21   -1    0    0  501  502  0.00000000000E+00 -0.00000000000E+00 -0.25523757923E+02  0.25523757923E+02  0.00000000000E+00 0.  1.
         24    2    1    2    0    0  0.14991169136E+02  0.13232200613E+02  0.35633894683E+03  0.36625658731E+03  0.82259445837E+02 0.  0.
         23    2    1    2    0    0 -0.74792607547E+01  0.11172919837E+02  0.14630363382E+03  0.17652763237E+03  0.97859482117E+02 0.  0.
        -11    1    3    3    0    0  0.40379206429E+01  0.28692801153E+02  0.40220728258E+02  0.49571046214E+02  0.00000000000E+00 0.  1.
         12    1    3    3    0    0  0.10953248493E+02 -0.15460600540E+02  0.31611821857E+03  0.31668554109E+03  0.00000000000E+00 0. -1.
        -11    1    4    4    0    0  0.19330199877E+02 -0.37109443283E+02  0.79615129219E+02  0.89940737203E+02  0.00000000000E+00 0.  1.
         11    1    4    4    0    0 -0.26809460632E+02  0.48282363120E+02  0.66688504605E+02  0.86586895165E+02  0.00000000000E+00 0. -1.
          1    1    1    2  501    0 -0.75119083815E+01 -0.24405120450E+02  0.24440974833E+02  0.35346851663E+02  0.00000000000E+00 0. -1.
<scales pt_clust_5="13000.00000" pt_clust_6="13000.00000" pt_clust_7="13000.00000" pt_clust_8="13000.00000" pt_clust_9="25.53505"></scales>
<clustering>
<clus scale="   25.535">  2  9  1 -1</clus>
<clus scale="   82.259">  5  6 -1 -1</clus>
<clus scale="   83.612">  1  5  2 -1</clus>
<clus scale="   97.859">  7  8 -1 -1</clus>
<clus scale="   25.535">  2  5  1 -1</clus>
</clustering>
</event>
<event>
 9    2  0.5615294E-005  0.1089885E+03  0.7546771E-02  0.1267736E+00
          2   -1    0    0  502    0 -0.00000000000E+00  0.00000000000E+00  0.62163052937E+03  0.62163052937E+03  0.00000000000E+00 0. -1.
         21   -1    0    0  501  502  0.00000000000E+00 -0.00000000000E+00 -0.25526180319E+02  0.25526180319E+02  0.00000000000E+00 0. -1.
         24    2    1    2    0    0 -0.50807494128E+02 -0.39229476337E+02  0.26760449028E+03  0.28637453996E+03  0.79232951752E+02 0.  0.
         23    2    1    2    0    0  0.27151304692E+02  0.42645192160E+02  0.16555376510E+03  0.19609242550E+03  0.92132428812E+02 0.  0.
        -13    1    3    3    0    0 -0.16127639591E+02  0.14972133335E+02  0.17473978542E+02  0.28099919243E+02  0.00000000000E+00 0.  1.
         14    1    3    3    0    0 -0.34679854537E+02 -0.54201609671E+02  0.25013051174E+03  0.25827462071E+03  0.00000000000E+00 0. -1.
        -11    1    4    4    0    0 -0.12425933476E+02 -0.24097288883E+02  0.50507212599E+02  0.57324180576E+02  0.00000000000E+00 0.  1.
         11    1    4    4    0    0  0.39577238168E+02  0.66742481043E+02  0.11504655251E+03  0.13876824493E+03  0.00000000000E+00 0. -1.
          1    1    1    2  501    0  0.23656189435E+02 -0.34157158232E+01  0.16294609367E+03  0.16468974423E+03  0.00000000000E+00 0. -1.
<scales pt_clust_5="13000.00000" pt_clust_6="13000.00000" pt_clust_7="13000.00000" pt_clust_8="13000.00000" pt_clust_9="23.90153"></scales>
<clustering>
<clus scale="   23.902">  2  9  1 -1</clus>
<clus scale="   79.233">  5  6 -1 -1</clus>
<clus scale="   92.132">  7  8 -1 -1</clus>
<clus scale="   98.326">  1  5  2 -1</clus>
<clus scale="   23.902">  2  5  1 -1</clus>
</clustering>
</event>
<event>
 9    2  0.5615294E-005  0.1872284E+03  0.7546771E-02  0.1178198E+00
          2   -1    0    0  502    0 -0.00000000000E+00  0.00000000000E+00  0.77322787762E+03  0.77322787762E+03  0.00000000000E+00 0. -1.
         21   -1    0    0  501  502  0.00000000000E+00 -0.00000000000E+00 -0.11004344341E+03  0.11004344341E+03  0.00000000000E+00 0.  1.
         23    2    1    2    0    0 -0.37920558322E+02 -0.77289378104E+02  0.12104993609E+02  0.12683372379E+03  0.92350668157E+02 0.  0.
         24    2    1    2    0    0  0.82008806503E+02 -0.10621910562E+03  0.46749865532E+03  0.49314870277E+03  0.81441436461E+02 0.  0.
        -13    1    4    4    0    0  0.54455840515E+01 -0.70784088517E+02  0.17889612448E+03  0.19246782829E+03  0.00000000000E+00 0.  1.
         14    1    4    4    0    0  0.76563222452E+02 -0.35435017104E+02  0.28860253085E+03  0.30068087449E+03  0.00000000000E+00 0. -1.
        -13    1    3    3    0    0 -0.45023083456E+02 -0.35965411652E+02  0.45345164488E+02  0.73326481040E+02  0.00000000000E+00 0.  1.
         13    1    3    3    0    0  0.71025251345E+01 -0.41323966452E+02 -0.33240170879E+02  0.53507242750E+02  0.00000000000E+00 0. -1.
          1    1    1    2  501    0 -0.44088248181E+02  0.18350848372E+03  0.18358078528E+03  0.26328889447E+03  0.00000000000E+00 0. -1.
<scales pt_clust_5="13000.00000" pt_clust_6="13000.00000" pt_clust_7="13000.00000" pt_clust_8="13000.00000" pt_clust_9="168.58759"></scales>
<clustering>
<clus scale="   81.441">  5  6 -1 -1</clus>
<clus scale="   92.351">  7  8 -1 -1</clus>
<clus scale="  126.255">  1  7  2 -1</clus>
<clus scale="  168.588">  2  9  1 -1</clus>
<clus scale="  168.588">  2  5  1 -1</clus>
</clustering>
</event>
<event>
 9    2  0.5615294E-005  0.1480902E+03  0.7546771E-02  0.1204909E+00
         21   -1    0    0  501  502  0.00000000000E+00  0.00000000000E+00  0.50201520626E+03  0.50201520626E+03  0.00000000000E+00 0.  1.
         -3   -1    0    0    0  501 -0.00000000000E+00 -0.00000000000E+00 -0.56695815416E+02  0.56695815416E+02  0.00000000000E+00 0.  1.
         24    2    1    2    0    0 -0.11564669075E+03  0.27460727740E+02  0.19214789195E+03  0.24025887147E+03  0.81702290593E+02 0.  0.
         23    2    1    2    0    0  0.11334872035E+03 -0.62548448419E+00  0.25214048895E+03  0.29149896987E+03  0.92458096619E+02 0.  0.
        -11    1    3    3    0    0 -0.18357931652E+02  0.42024386357E+02  0.60464453110E+02  0.75888159769E+02  0.00000000000E+00 0.  1.
         12    1    3    3    0    0 -0.97288759101E+02 -0.14563658617E+02  0.13168343884E+03  0.16437071170E+03  0.00000000000E+00 0. -1.
        -11    1    4    4    0    0  0.50676140048E+02 -0.40958296107E+02  0.16151950837E+03  0.17416717479E+03  0.00000000000E+00 0.  1.
         11    1    4    4    0    0  0.62672580304E+02  0.40332811623E+02  0.90620980586E+02  0.11733179508E+03  0.00000000000E+00 0. -1.
         -4    1    1    2    0  502  0.22979704002E+01 -0.26835243256E+02  0.10310099383E+01  0.26953180333E+02  0.00000000000E+00 0.  1.
<scales pt_clust_5="13000.00000" pt_clust_6="13000.00000" pt_clust_7="13000.00000" pt_clust_8="13000.00000" pt_clust_9="26.93347"></scales>
<clustering>
<clus scale="   26.933">  1  9  2 -1</clus>
<clus scale="   81.702">  5  6 -1 -1</clus>
<clus scale="   92.458">  7  8 -1 -1</clus>
<clus scale="  141.624">  2  5  1 -1</clus>
<clus scale="   26.933">  1  5  2 -1</clus>
</clustering>
</event>
<event>
 9    2  0.5615294E-005  0.9189766E+02  0.7546771E-02  0.1302836E+00
         -3   -1    0    0    0  501 -0.00000000000E+00  0.00000000000E+00  0.69950694303E+02  0.69950694303E+02  0.00000000000E+00 0.  1.
         21   -1    0    0  501  502  0.00000000000E+00 -0.00000000000E+00 -0.36400180191E+03  0.36400180191E+03  0.00000000000E+00 0. -1.
         24    2    1    2    0    0 -0.23913982789E+02 -0.21783998388E+02  0.28133842221E+02  0.90283006356E+02  0.79454936913E+02 0.  0.
         23    2    1    2    0    0  0.25716737586E+01  0.71975355358E+01 -0.19310404057E+03  0.21202549953E+03  0.87219401193E+02 0.  0.
        -13    1    3    3    0    0 -0.29001389138E+02 -0.49096271940E+02  0.25213902951E+02  0.62347938157E+02  0.00000000000E+00 0.  1.
         14    1    3    3    0    0  0.50874063487E+01  0.27312273552E+02  0.29199392700E+01  0.27935068199E+02  0.00000000000E+00 0. -1.
        -11    1    4    4    0    0 -0.36842020264E+02  0.21942851081E+02 -0.12300416331E+03  0.13026452841E+03  0.00000000000E+00 0. -1.
         11    1    4    4    0    0  0.39413694022E+02 -0.14745315545E+02 -0.70099877261E+02  0.81760971123E+02  0.00000000000E+00 0.  1.
         -4    1    1    2    0  502  0.21342309030E+02  0.14586462852E+02 -0.12908090926E+03  0.13164399032E+03  0.00000000000E+00 0.  1.
<scales pt_clust_5="13000.00000" pt_clust_6="13000.00000" pt_clust_7="13000.00000" pt_clust_8="13000.00000" pt_clust_9="25.85071"></scales>
<clustering>
<clus scale="   25.851">  2  9  1 -1</clus>
<clus scale="   79.455">  5  6 -1 -1</clus>
<clus scale="   84.564">  1  5  2 -1</clus>
<clus scale="   87.219">  7  8 -1 -1</clus>
<clus scale="   25.851">  2  5  1 -1</clus>
</clustering>
</event>
<event>
 9    2  0.5615294E-005  0.1151618E+03  0.7546771E-02  0.1253317E+00
         21   -1    0    0  501  502  0.00000000000E+00  0.00000000000E+00  0.31566142035E+03  0.31566142035E+03  0.00000000000E+00 0. -1.
          2   -1    0    0  502    0 -0.00000000000E+00 -0.00000000000E+00 -0.90546416115E+02  0.90546416115E+02  0.00000000000E+00 0. -1.
         23    2    1    2    0    0  0.62164837360E+02  0.28583467917E+02  0.29212460814E+02  0.11696204461E+03  0.90251151630E+02 0.  0.
         24    2    1    2    0    0 -0.79768789843E+02  0.83900616472E+01  0.32625262876E+02  0.12091156665E+03  0.84390439066E+02 0.  0.
        -11    1    4    4    0    0 -0.82115615397E+02 -0.44772582040E+01 -0.36822442575E+01  0.82319979688E+02  0.00000000000E+00 0.  1.
         12    1    4    4    0    0  0.23468255546E+01  0.12867319851E+02  0.36307507134E+02  0.38591586967E+02  0.00000000000E+00 0. -1.
        -11    1    3    3    0    0  0.33552008526E+02 -0.90279617206E+01 -0.26651929622E+02  0.43790029933E+02  0.00000000000E+00 0. -1.
         11    1    3    3    0    0  0.28612828834E+02  0.37611429637E+02  0.55864390435E+02  0.73172014678E+02  0.00000000000E+00 0.  1.
          1    1    1    2  501    0  0.17603952482E+02 -0.36973529564E+02  0.16327728054E+03  0.16833422520E+03  0.00000000000E+00 0. -1.
<scales pt_clust_5="13000.00000" pt_clust_6="13000.00000" pt_clust_7="13000.00000" pt_clust_8="13000.00000" pt_clust_9="40.95047"></scales>
<clustering>
<clus scale="   40.950">  1  9  2 -1</clus>
<clus scale="   84.390">  5  6 -1 -1</clus>
<clus scale="   90.251">  7  8 -1 -1</clus>
<clus scale="  110.629">  1  5  2 -1</clus>
<clus scale="   40.950">  1  5  2 -1</clus>
</clustering>
</event>
<event>
 9    2  0.5615294E-005  0.1134649E+03  0.7546771E-02  0.1257390E+00
          2   -1    0    0  502    0 -0.00000000000E+00  0.00000000000E+00  0.37532654710E+03  0.37532654710E+03  0.00000000000E+00 0. -1.
         21   -1    0    0  501  502  0.00000000000E+00 -0.00000000000E+00 -0.55711043472E+02  0.55711043472E+02  0.00000000000E+00 0. -1.
         23    2    1    2    0    0 -0.85517010143E+02  0.11653518120E+02  0.23548957268E+03  0.26672080001E+03  0.90750662852E+02 0.  0.
         24    2    1    2    0    0  0.35250480471E+02 -0.57739607394E+01  0.44359048265E+02  0.99952995161E+02  0.82139765537E+02 0.  0.
        -11    1    4    4    0    0  0.51250132219E+02 -0.16267939692E+02  0.55936154349E+02  0.77589144071E+02  0.00000000000E+00 0.  1.
         12    1    4    4    0    0 -0.15999651747E+02  0.10493978953E+02 -0.11577106084E+02  0.22363851090E+02  0.00000000000E+00 0. -1.
        -11    1    3    3    0    0 -0.39563886920E+02  0.49591225008E+02  0.96376218812E+02  0.11538182829E+03  0.00000000000E+00 0. -1.
         11    1    3    3    0    0 -0.45953123223E+02 -0.37937706888E+02  0.13911335387E+03  0.15133897173E+03  0.00000000000E+00 0.  1.
          1    1    1    2  501    0  0.50266529672E+02 -0.58795573805E+01  0.39766882680E+02  0.64363795400E+02  0.00000000000E+00 0. -1.
<scales pt_clust_5="13000.00000" pt_clust_6="13000.00000" pt_clust_7="13000.00000" pt_clust_8="13000.00000" pt_clust_9="50.60922"></scales>
<clustering>
<clus scale="   50.609">  2  9  1 -1</clus>
<clus scale="   82.140">  5  6 -1 -1</clus>
<clus scale="   90.751">  7  8 -1 -1</clus>
<clus scale="  106.703">  2  5  1 -1</clus>
<clus scale="   50.609">  2  5  1 -1</clus>
</clustering>
</event>
<event>
 9    2  0.5615294E-005  0.9563889E+02  0.7546771E-02  0.1297376E+00
         21   -1    0    0  501  502  0.00000000000E+00  0.00000000000E+00  0.46352628745E+02  0.46352628745E+02  0.00000000000E+00 0. -1.
          2   -1    0    0  502    0 -0.00000000000E+00 -0.00000000000E+00 -0.50209324662E+03  0.50209324662E+03  0.00000000000E+00 0. -1.
         24    2    1    2    0    0  0.21981638186E+02 -0.56488231288E+01 -0.24151100064E+03  0.25464644566E+03  0.77473526049E+02 0.  0.
         23    2    1    2    0    0 -0.70231620376E+02 -0.56643264025E+01 -0.55884261447E+02  0.12787987138E+03  0.90915596753E+02 0.  0.
        -11    1    3    3    0    0  0.32328261065E+02 -0.32759462923E+02 -0.98515888642E+02  0.10873674259E+03  0.00000000000E+00 0.  1.
         12    1    3    3    0    0 -0.10346622879E+02  0.27110639794E+02 -0.14299511200E+03  0.14590970307E+03  0.00000000000E+00 0. -1.
        -11    1    4    4    0    0 -0.14298486590E+02  0.16976186346E+02 -0.63305425622E+02  0.67083638354E+02  0.00000000000E+00 0.  1.
         11    1    4    4    0    0 -0.55933133786E+02 -0.22640512749E+02  0.74211641758E+01  0.60796233028E+02  0.00000000000E+00 0. -1.
          1    1    1    2  501    0  0.48249982190E+02  0.11313149531E+02 -0.15834535579E+03  0.16591955833E+03  0.00000000000E+00 0. -1.
<scales pt_clust_5="13000.00000" pt_clust_6="13000.00000" pt_clust_7="13000.00000" pt_clust_8="13000.00000" pt_clust_9="49.55856"></scales>
<clustering>
<clus scale="   49.559">  1  9  2 -1</clus>
<clus scale="   77.474">  5  6 -1 -1</clus>
<clus scale="   82.966">  2  5  1 -1</clus>
<clus scale="   90.916">  7  8 -1 -1</clus>
<clus scale="   49.559">  1  5  2 -1</clus>
</clustering>
</event>
<event>
 9    2  0.5615294E-005  0.1527501E+03  0.7546771E-02  0.1218675E+00
         21   -1    0    0  501  502  0.00000000000E+00  0.00000000000E+00  0.25128730717E+02  0.25128730717E+02  0.00000000000E+00 0.  1.
          2   -1    0    0  502    0 -0.00000000000E+00 -0.00000000000E+00 -0.15906064546E+04  0.15906064546E+04  0.00000000000E+00 0. -1.
         24    2    1    2    0    0 -0.53828560504E+02  0.61514534733E+01 -0.65982071929E+03  0.66680672186E+03  0.79576808255E+02 0.  0.
         23    2    1    2    0    0  0.14253197093E+02 -0.12507085656E+03 -0.56500420943E+03  0.58595138336E+03  0.90903213373E+02 0.  0.
        -11    1    3    3    0    0 -0.21851932965E+02 -0.21260303119E+02 -0.82524313073E+02  0.87975960985E+02  0.00000000000E+00 0.  1.
         12    1    3    3    0    0 -0.31976627539E+02  0.27411756592E+02 -0.57729640621E+03  0.57883076087E+03  0.00000000000E+00 0. -1.
        -11    1    4    4    0    0 -0.10661793772E+02 -0.11894275164E+03 -0.52511580584E+03  0.53852359424E+03  0.00000000000E+00 0.  1.
         11    1    4    4    0    0  0.24914990865E+02 -0.61281049229E+01 -0.39888403593E+02  0.47427789121E+02  0.00000000000E+00 0. -1.
          1    1    1    2  501    0  0.39575363411E+02  0.11891940309E+03 -0.34065279515E+03  0.36297708008E+03  0.00000000000E+00 0. -1.
<scales pt_clust_5="13000.00000" pt_clust_6="13000.00000" pt_clust_7="13000.00000" pt_clust_8="13000.00000" pt_clust_9="122.75661"></scales>
<clustering>
<clus scale="   79.577">  5  6 -1 -1</clus>
<clus scale="   90.903">  7  8 -1 -1</clus>
<clus scale="   96.270">  2  5  1 -1</clus>
<clus scale="  122.757">  1  9  2 -1</clus>
<clus scale="  122.757">  1  5  2 -1</clus>
</clustering>
</event>
<event>
 9    2  0.5615294E-005  0.1043243E+03  0.7546771E-02  0.1278760E+00
         21   -1    0    0  501  502  0.00000000000E+00  0.00000000000E+00  0.49973080278E+03  0.49973080278E+03  0.00000000000E+00 0. -1.
          2   -1    0    0  502    0 -0.00000000000E+00 -0.00000000000E+00 -0.17485685118E+03  0.17485685118E+03  0.00000000000E+00 0. -1.
         24    2    1    2    0    0 -0.16593581056E+00 -0.52318952123E+02 -0.14952119680E+03  0.17531119299E+03  0.75100771019E+02 0.  0.
         23    2    1    2    0    0 -0.13036991342E+02  0.46286923093E+01  0.39592714977E+03  0.40650844399E+03  0.91101148045E+02 0.  0.
        -11    1    3    3    0    0  0.33973493289E+02 -0.68777002664E+01 -0.58792507239E+02  0.68249981060E+02  0.00000000000E+00 0.  1.
         12    1    3    3    0    0 -0.34139429100E+02 -0.45441251857E+02 -0.90728689560E+02  0.10706121193E+03  0.00000000000E+00 0. -1.
        -11    1    4    4    0    0 -0.27858777718E+02 -0.37552032237E+02  0.17770895266E+03  0.18375728143E+03  0.00000000000E+00 0. -1.
         11    1    4    4    0    0  0.14821786376E+02  0.42180724546E+02  0.21821819711E+03  0.22275116257E+03  0.00000000000E+00 0.  1.
          1    1    1    2  501    0  0.13202927152E+02  0.47690259814E+02  0.78467998630E+02  0.92768016986E+02  0.00000000000E+00 0. -1.
<scales pt_clust_5="13000.00000" pt_clust_6="13000.00000" pt_clust_7="13000.00000" pt_clust_8="13000.00000" pt_clust_9="49.48412"></scales>
<clustering>
<clus scale="   49.484">  1  9  2 -1</clus>
<clus scale="   75.101">  5  6 -1 -1</clus>
<clus scale="   90.688">  2  5  1 -1</clus>
<clus scale="   91.101">  7  8 -1 -1</clus>
<clus scale="   49.484">  1  5  2 -1</clus>
</clustering>
</event>
<event>
 9    2  0.5615294E-005  0.1118744E+03  0.7546771E-02  0.1260062E+00
         21   -1    0    0  501  502  0.00000000000E+00  0.00000000000E+00  0.29248739035E+02  0.29248739035E+02  0.00000000000E+00 0.  1.
          2   -1    0    0  502    0 -0.00000000000E+00 -0.00000000000E+00 -0.70870875897E+03  0.70870875897E+03  0.00000000000E+00 0. -1.
         23    2    1    2    0    0  0.16515681716E+02  0.74762275953E+02 -0.39565210507E+03  0.41263874745E+03  0.88701645995E+02 0.  0.
         24    2    1    2    0    0 -0.22098777258E+02 -0.44855572618E+02 -0.95739624360E+02  0.13480559155E+03  0.80660358849E+02 0.  0.
        -11    1    4    4    0    0  0.23357858846E+02 -0.28236943229E+02 -0.12874689271E+02  0.38841629170E+02  0.00000000000E+00 0.  1.
         12    1    4    4    0    0 -0.45456636103E+02 -0.16618629390E+02 -0.82864935089E+02  0.95963962381E+02  0.00000000000E+00 0. -1.
        -11    1    3    3    0    0 -0.31017263537E+02  0.55350337421E+01 -0.79274774008E+02  0.85306488791E+02  0.00000000000E+00 0.  1.
         11    1    3    3    0    0  0.47532945253E+02  0.69227242211E+02 -0.31637733107E+03  0.32733225866E+03  0.00000000000E+00 0. -1.
          1    1    1    2  501    0  0.55830955417E+01 -0.29906703335E+02 -0.18806829050E+03  0.19051315900E+03  0.00000000000E+00 0. -1.
<scales pt_clust_5="13000.00000" pt_clust_6="13000.00000" pt_clust_7="13000.00000" pt_clust_8="13000.00000" pt_clust_9="30.42339"></scales>
<clustering>
<clus scale="   30.423">  1  9  2 -1</clus>
<clus scale="   80.660">  5  6 -1 -1</clus>
<clus scale="   88.702">  7  8 -1 -1</clus>
<clus scale="  105.612">  1  5  2 -1</clus>
<clus scale="   30.423">  1  5  2 -1</clus>
</clustering>
</event>
<event>
 9    2  0.5615294E-005  0.1080003E+03  0.7546771E-02  0.1268506E+00
         21   -1    0    0  501  502  0.00000000000E+00  0.00000000000E+00  0.17099411446E+02  0.17099411446E+02  0.00000000000E+00 0.  1.
          2   -1    0    0  502    0 -0.00000000000E+00 -0.00000000000E+00 -0.12269015005E+04  0.12269015005E+04  0.00000000000E+00 0. -1.
         24    2    1    2    0    0 -0.73573318233E+02 -0.16984647400E+01 -0.78668557035E+03  0.79424070492E+03  0.80797232733E+02 0.  0.
         23    2    1    2    0    0  0.19888998412E+02 -0.15182145530E+02 -0.23000775187E+03  0.24861857279E+03  0.91003071439E+02 0.  0.
        -11    1    3    3    0    0 -0.32181861893E+02 -0.94007675150E+01 -0.86191578325E+02  0.92482619118E+02  0.00000000000E+00 0.  1.
         12    1    3    3    0    0 -0.41391456340E+02  0.77023027750E+01 -0.70049399203E+03  0.70175808580E+03  0.00000000000E+00 0. -1.
        -13    1    4    4    0    0 -0.97409943066E+01 -0.37051917123E+02 -0.19165871788E+03  0.19545023836E+03  0.00000000000E+00 0. -1.
         13    1    4    4    0    0  0.29629992719E+02  0.21869771593E+02 -0.38349033989E+02  0.53168334429E+02  0.00000000000E+00 0.  1.
          1    1    1    2  501    0  0.53684319821E+02  0.16880610270E+02 -0.19310876680E+03  0.20114163421E+03  0.00000000000E+00 0. -1.
<scales pt_clust_5="13000.00000" pt_clust_6="13000.00000" pt_clust_7="13000.00000" pt_clust_8="13000.00000" pt_clust_9="56.27576"></scales>
<clustering>
<clus scale="   56.276">  1  9  2 -1</clus>
<clus scale="   80.797">  5  6 -1 -1</clus>
<clus scale="   91.003">  7  8 -1 -1</clus>
<clus scale="   99.552">  2  5  1 -1</clus>
<clus scale="   56.276">  1  5  2 -1</clus>
</clustering>
</event>
<event>
 9    2  0.5615294E-005  0.2938283E+03  0.7546771E-02  0.1088805E+00
          2   -1    0    0  502    0 -0.00000000000E+00  0.00000000000E+00  0.21843199514E+03  0.21843199514E+03  0.00000000000E+00 0. -1.
         21   -1    0    0  501  502  0.00000000000E+00 -0.00000000000E+00 -0.47369759631E+03  0.47369759631E+03  0.00000000000E+00 0. -1.
         23    2    1    2    0    0 -0.19374143028E+03 -0.20929991020E+03 -0.10521194306E+02  0.29967986319E+03  0.91406403809E+02 0.  0.
         24    2    1    2    0    0  0.16895743338E+03  0.20809842787E+03 -0.23658588371E+03  0.36632978259E+03  0.79831442832E+02 0.  0.
        -13    1    4    4    0    0  0.10876560853E+03  0.12011423052E+03 -0.90867290912E+02  0.18578011339E+03  0.00000000000E+00 0.  1.
         14    1    4    4    0    0  0.60191824854E+02  0.87984197347E+02 -0.14571859280E+03  0.18054966920E+03  0.00000000000E+00 0. -1.
        -13    1    3    3    0    0 -0.15047225601E+03 -0.20246604968E+03  0.73586126508E+01  0.25236590555E+03  0.00000000000E+00 0. -1.
         13    1    3    3    0    0 -0.43269174265E+02 -0.68338605199E+01 -0.17879806957E+02  0.47313957645E+02  0.00000000000E+00 0.  1.
          1    1    1    2  501    0  0.24783996900E+02  0.12014823260E+01 -0.81585231536E+01  0.26119945677E+02  0.00000000000E+00 0. -1.
<scales pt_clust_5="13000.00000" pt_clust_6="13000.00000" pt_clust_7="13000.00000" pt_clust_8="13000.00000" pt_clust_9="24.81312"></scales>
<clustering>
<clus scale="   24.813">  2  9  1 -1</clus>
<clus scale="   79.831">  5  6 -1 -1</clus>
<clus scale="   91.406">  7  8 -1 -1</clus>
<clus scale="  290.436">  2  5  1 -1</clus>
<clus scale="   24.813">  2  5  1 -1</clus>
</clustering>
</event>
<event>
 9    2  0.5615294E-005  0.1221198E+03  0.7546771E-02  0.1240387E+00
         21   -1    0    0  501  502  0.00000000000E+00  0.00000000000E+00  0.13952269498E+03  0.13952269498E+03  0.00000000000E+00 0. -1.
          2   -1    0    0  502    0 -0.00000000000E+00 -0.00000000000E+00 -0.93717215178E+03  0.93717215178E+03  0.00000000000E+00 0. -1.
         24    2    1    2    0    0  0.40905884795E+02  0.77599405641E+02 -0.80357013784E+03  0.81236552281E+03  0.80732998563E+02 0.  0.
         23    2    1    2    0    0 -0.26169914031E+02 -0.99329592303E+02 -0.93150305684E+02  0.16183829869E+03  0.83447127971E+02 0.  0.
        -13    1    3    3    0    0  0.24791157211E+02  0.42543719203E+02 -0.15465600996E+03  0.16230542485E+03  0.00000000000E+00 0.  1.
         14    1    3    3    0    0  0.16114727584E+02  0.35055686438E+02 -0.64891412788E+03  0.65006009796E+03  0.00000000000E+00 0. -1.
        -13    1    4    4    0    0 -0.31066578630E+02 -0.78430936831E+01 -0.12413357987E+01  0.32065360451E+02  0.00000000000E+00 0.  1.
         13    1    4    4    0    0  0.48966645992E+01 -0.91486498620E+02 -0.91908969885E+02  0.12977293824E+03  0.00000000000E+00 0. -1.
          1    1    1    2  501    0 -0.14735970765E+02  0.21730186663E+02  0.99070986723E+02  0.10249102525E+03  0.00000000000E+00 0. -1.
<scales pt_clust_5="13000.00000" pt_clust_6="13000.00000" pt_clust_7="13000.00000" pt_clust_8="13000.00000" pt_clust_9="26.25547"></scales>
<clustering>
<clus scale="   26.255">  1  9  2 -1</clus>
<clus scale="   80.733">  5  6 -1 -1</clus>
<clus scale="   83.447">  7  8 -1 -1</clus>
<clus scale="  120.281">  2  5  1 -1</clus>
<clus scale="   26.255">  1  5  2 -1</clus>
</clustering>
</event>
<event>
 9    2  0.5615294E-005  0.1327121E+03  0.7546771E-02  0.1240876E+00
         21   -1    0    0  501  502  0.00000000000E+00  0.00000000000E+00  0.62630599334E+02  0.62630599334E+02  0.00000000000E+00 0.  1.
         -1   -1    0    0    0  501 -0.00000000000E+00 -0.00000000000E+00 -0.55108595548E+03  0.55108595548E+03  0.00000000000E+00 0.  1.
         23    2    1    2    0    0  0.18246945824E+02 -0.13874037082E+02 -0.10639123634E+03  0.14117308979E+03  0.89918330580E+02 0.  0.
         24    2    1    2    0    0  0.68467158790E+02 -0.53860115975E+02 -0.33020688478E+03  0.35090291153E+03  0.80669713255E+02 0.  0.
        -11    1    4    4    0    0  0.28522323065E+02 -0.68771629645E+02 -0.18074738214E+03  0.19548062847E+03  0.00000000000E+00 0.  1.
         12    1    4    4    0    0  0.39944835725E+02  0.14911513669E+02 -0.14945950265E+03  0.15542228306E+03  0.00000000000E+00 0. -1.
        -11    1    3    3    0    0  0.36922785221E+02  0.45190224073E+01 -0.63269735858E+01  0.37732535387E+02  0.00000000000E+00 0.  1.
         11    1    3    3    0    0 -0.18675839397E+02 -0.18393059489E+02 -0.10006426276E+03  0.10344055441E+03  0.00000000000E+00 0. -1.
         -2    1    1    2    0  502 -0.86714104614E+02  0.67734153057E+02 -0.51857235018E+02  0.12164055349E+03  0.00000000000E+00 0.  1.
<scales pt_clust_5="13000.00000" pt_clust_6="13000.00000" pt_clust_7="13000.00000" pt_clust_8="13000.00000" pt_clust_9="105.37977"></scales>
<clustering>
<clus scale="   80.670">  5  6 -1 -1</clus>
<clus scale="   89.918">  7  8 -1 -1</clus>
<clus scale="   92.794">  2  7  1 -1</clus>
<clus scale="  105.380">  1  9  2 -1</clus>
<clus scale="  105.380">  1  5  2 -1</clus>
</clustering>
</event>
<event>
 9    2  0.5615294E-005  0.9226476E+02  0.7546771E-02  0.1302676E+00
         -3   -1    0    0    0  501 -0.00000000000E+00  0.00000000000E+00  0.17604539777E+03  0.17604539777E+03  0.00000000000E+00 0.  1.
         21   -1    0    0  501  502  0.00000000000E+00 -0.00000000000E+00 -0.13936893306E+03  0.13936893306E+03  0.00000000000E+00 0. -1.
         24    2    1    2    0    0  0.16382908643E+02  0.40693662095E+01  0.11266103832E+03  0.13967885257E+03  0.80825199427E+02 0.  0.
         23    2    1    2    0    0 -0.39268265334E+02 -0.16408730369E+02 -0.40516192084E+01  0.99247901566E+02  0.89568338449E+02 0.  0.
        -11    1    3    3    0    0  0.39518502106E+02  0.56787033150E+01  0.10915067171E+03  0.11622318535E+03  0.00000000000E+00 0.  1.
         12    1    3    3    0    0 -0.23135593463E+02 -0.16093371055E+01  0.35103666186E+01  0.23455667218E+02  0.00000000000E+00 0. -1.
        -13    1    4    4    0    0 -0.39094451241E+02 -0.40749601488E+02  0.24648521016E+02  0.61615385478E+02  0.00000000000E+00 0.  1.
         13    1    4    4    0    0 -0.17381409254E+00  0.24340871120E+02 -0.28700140225E+02  0.37632516088E+02  0.00000000000E+00 0. -1.
         -4    1    1    2    0  502  0.22885356691E+02  0.12339364159E+02 -0.71932954410E+02  0.76487576696E+02  0.00000000000E+00 0.  1.
<scales pt_clust_5="13000.00000" pt_clust_6="13000.00000" pt_clust_7="13000.00000" pt_clust_8="13000.00000" pt_clust_9="25.99999"></scales>
<clustering>
<clus scale="   26.000">  2  9  1 -1</clus>
<clus scale="   80.825">  5  6 -1 -1</clus>
<clus scale="   83.803">  1  5  2 -1</clus>
<clus scale="   89.568">  7  8 -1 -1</clus>
<clus scale="   26.000">  2  5  1 -1</clus>
</clustering>
</event>
<event>
 9    2  0.5615294E-005  0.1321937E+03  0.7546771E-02  0.1247059E+00
         21   -1    0    0  501  502  0.00000000000E+00  0.00000000000E+00  0.52247487954E+02  0.52247487954E+02  0.00000000000E+00 0. -1.
          2   -1    0    0  502    0 -0.00000000000E+00 -0.00000000000E+00 -0.52028054216E+03  0.52028054216E+03  0.00000000000E+00 0. -1.
         24    2    1    2    0    0 -0.10028288664E+02  0.31413197155E+01 -0.62674776845E+02  0.10390853191E+03  0.82209615542E+02 0.  0.
         23    2    1    2    0    0 -0.88236872785E+02 -0.65713110796E+00 -0.29240723041E+03  0.31888589424E+03  0.91651773653E+02 0.  0.
        -11    1    3    3    0    0 -0.26120976197E+02 -0.18090400466E+02 -0.69489733761E+02  0.76409365163E+02  0.00000000000E+00 0.  1.
         12    1    3    3    0    0  0.16092687533E+02  0.21231720181E+02  0.68149569161E+01  0.27499166744E+02  0.00000000000E+00 0. -1.
        -11    1    4    4    0    0 -0.37612506854E+02 -0.10709737488E+02 -0.24713214006E+02  0.46261669830E+02  0.00000000000E+00 0.  1.
         11    1    4    4    0    0 -0.50624365930E+02  0.10052606380E+02 -0.26769401640E+03  0.27262422441E+03  0.00000000000E+00 0. -1.
          1    1    1    2  501    0  0.98265161449E+02 -0.24841886075E+01 -0.11295104695E+03  0.14973360396E+03  0.00000000000E+00 0. -1.
<scales pt_clust_5="13000.00000" pt_clust_6="13000.00000" pt_clust_7="13000.00000" pt_clust_8="13000.00000" pt_clust_9="95.26349"></scales>
<clustering>
<clus scale="   82.210">  5  6 -1 -1</clus>
<clus scale="   82.879">  2  5  1 -1</clus>
<clus scale="   91.652">  7  8 -1 -1</clus>
<clus scale="   95.263">  1  9  2 -1</clus>
<clus scale="   95.263">  1  5  2 -1</clus>
</clustering>
</event>
<event>
 9    2  0.5615294E-005  0.9201588E+02  0.7546771E-02  0.1304539E+00
          2   -1    0    0  502    0 -0.00000000000E+00  0.00000000000E+00  0.11788696676E+03  0.11788696676E+03  0.00000000000E+00 0. -1.
         21   -1    0    0  501  502  0.00000000000E+00 -0.00000000000E+00 -0.16504217963E+03  0.16504217963E+03  0.00000000000E+00 0. -1.
         23    2    1    2    0    0  0.33795317501E+02  0.39154587906E+02  0.97498461928E+01  0.10522591557E+03  0.91116565828E+02 0.  0.
         24    2    1    2    0    0  0.22523321626E+02  0.19961814681E+02 -0.17120507483E+02  0.86877305487E+02  0.79679234245E+02 0.  0.
        -13    1    4    4    0    0 -0.28231355056E+02  0.11795788356E+02  0.48376717391E+01  0.30976654098E+02  0.00000000000E+00 0.  1.
         14    1    4    4    0    0  0.50754676682E+02  0.81660263252E+01 -0.21958179223E+02  0.55900651390E+02  0.00000000000E+00 0. -1.
        -11    1    3    3    0    0  0.13661372484E+02 -0.28390739742E+02  0.14293696334E+02  0.34597354756E+02  0.00000000000E+00 0.  1.
         11    1    3    3    0    0  0.20133945017E+02  0.67545327648E+02 -0.45438501410E+01  0.70628560817E+02  0.00000000000E+00 0. -1.
          1    1    1    2  501    0 -0.56318639127E+02 -0.59116402587E+02 -0.39784551582E+02  0.90825925332E+02  0.00000000000E+00 0. -1.
<scales pt_clust_5="13000.00000" pt_clust_6="13000.00000" pt_clust_7="13000.00000" pt_clust_8="13000.00000" pt_clust_9="81.64887"></scales>
<clustering>
<clus scale="   79.679">  5  6 -1 -1</clus>
<clus scale="   81.649">  2  9  1 -1</clus>
<clus scale="   81.649">  2  5  1 -1</clus>
<clus scale="   91.117">  7  8 -1 -1</clus>
<clus scale="   81.649">  2  5  1 -1</clus>
</clustering>
</event>
<event>
 9    2  0.5615294E-005  0.1043298E+03  0.7546771E-02  0.1275470E+00
         -3   -1    0    0    0  501 -0.00000000000E+00  0.00000000000E+00  0.18517400344E+03  0.18517400344E+03  0.00000000000E+00 0.  1.
         21   -1    0    0  501  502  0.00000000000E+00 -0.00000000000E+00 -0.56240441277E+03  0.56240441277E+03  0.00000000000E+00 0.  1.
         24    2    1    2    0    0  0.25692429421E+02 -0.29622462559E+02  0.97531670228E+02  0.13308555807E+03  0.81619531062E+02 0.  0.
         23    2    1    2    0    0 -0.50921872604E+02  0.83943525930E+02  0.23162370509E+01  0.13366958197E+03  0.90678771141E+02 0.  0.
        -11    1    3    3    0    0  0.35385661814E+01 -0.39631237729E+02  0.10097635715E+03  0.10853285750E+03  0.00000000000E+00 0.  1.
         12    1    3    3    0    0  0.22153863240E+02  0.10008775170E+02 -0.34446869241E+01  0.24552700561E+02  0.00000000000E+00 0. -1.
        -11    1    4    4    0    0 -0.67233720080E+02  0.56042280020E+02  0.28525238456E+02  0.92058674196E+02  0.00000000000E+00 0.  1.
         11    1    4    4    0    0  0.16311847476E+02  0.27901245909E+02 -0.26209001405E+02  0.41610907777E+02  0.00000000000E+00 0. -1.
         -4    1    1    2    0  502  0.25229443183E+02 -0.54321063371E+02 -0.47707831661E+03  0.48082327618E+03  0.00000000000E+00 0.  1.
<scales pt_clust_5="13000.00000" pt_clust_6="13000.00000" pt_clust_7="13000.00000" pt_clust_8="13000.00000" pt_clust_9="59.89410"></scales>
<clustering>
<clus scale="   59.894">  2  9  1 -1</clus>
<clus scale="   81.620">  5  6 -1 -1</clus>
<clus scale="   90.679">  7  8 -1 -1</clus>
<clus scale="   96.560">  1  5  2 -1</clus>
<clus scale="   59.894">  2  5  1 -1</clus>
</clustering>
</event>
<event>
 9    2  0.5615294E-005  0.1125672E+03  0.7546771E-02  0.1259935E+00
          2   -1    0    0  502    0 -0.00000000000E+00  0.00000000000E+00  0.11773925409E+03  0.11773925409E+03  0.00000000000E+00 0. -1.
         21   -1    0    0  501  502  0.00000000000E+00 -0.00000000000E+00 -0.21486277767E+03  0.21486277767E+03  0.00000000000E+00 0.  1.
         23    2    1    2    0    0  0.14037150600E+02 -0.53347705711E+02  0.37302327364E+02  0.11333268143E+03  0.91705036675E+02 0.  0.
         24    2    1    2    0    0 -0.28034728712E+02  0.95819274316E+02 -0.97946243108E+02  0.16155862238E+03  0.80873002805E+02 0.  0.
        -13    1    4    4    0    0  0.16258272262E+02  0.78803091738E+02 -0.68849346995E+02  0.10589849511E+03  0.00000000000E+00 0.  1.
         14    1    4    4    0    0 -0.44293000974E+02  0.17016182578E+02 -0.29096896113E+02  0.55660127275E+02  0.00000000000E+00 0. -1.
        -11    1    3    3    0    0  0.48260869400E+02 -0.13768701186E+02  0.34564248488E+02  0.60937475507E+02  0.00000000000E+00 0. -1.
         11    1    3    3    0    0 -0.34223718800E+02 -0.39579004526E+02  0.27380788759E+01  0.52395205923E+02  0.00000000000E+00 0.  1.
          1    1    1    2  501    0  0.13997578112E+02 -0.42471568604E+02 -0.36479607832E+02  0.57710727948E+02  0.00000000000E+00 0. -1.
<scales pt_clust_5="13000.00000" pt_clust_6="13000.00000" pt_clust_7="13000.00000" pt_clust_8="13000.00000" pt_clust_9="44.71875"></scales>
<clustering>
<clus scale="   44.719">  2  9  1 -1</clus>
<clus scale="   80.873">  5  6 -1 -1</clus>
<clus scale="   91.705">  7  8 -1 -1</clus>
<clus scale="  103.933">  2  5  1 -1</clus>
<clus scale="   44.719">  2  5  1 -1</clus>
</clustering>
</event>
<event>
 9    2  0.5615294E-005  0.1139870E+03  0.7546771E-02  0.1267830E+00
          2   -1    0    0  502    0 -0.00000000000E+00  0.00000000000E+00  0.17015405871E+03  0.17015405871E+03  0.00000000000E+00 0. -1.
         21   -1    0    0  501  502  0.00000000000E+00 -0.00000000000E+00 -0.10034708262E+03  0.10034708262E+03  0.00000000000E+00 0. -1.
         24    2    1    2    0    0 -0.14657178833E+02 -0.38377662373E+02  0.65023851710E+02  0.11101995188E+03  0.80060293306E+02 0.  0.
         23    2    1    2    0    0 -0.23744610073E+02  0.12210453628E+02  0.31433708377E+01  0.11298270564E+03  0.10973745627E+03 0.  0.
        -13    1    3    3    0    0  0.30193794626E+02 -0.20930728239E+00  0.14835354423E+02  0.33642187567E+02  0.00000000000E+00 0.  1.
         14    1    3    3    0    0 -0.44850973459E+02 -0.38168355091E+02  0.50188497287E+02  0.77377764315E+02  0.00000000000E+00 0. -1.
        -11    1    4    4    0    0 -0.48799951036E+02 -0.17346664341E+02 -0.31825916290E+02  0.60788411170E+02  0.00000000000E+00 0. -1.
         11    1    4    4    0    0  0.25055340964E+02  0.29557117970E+02  0.34969287127E+02  0.52194294474E+02  0.00000000000E+00 0.  1.
          1    1    1    2  501    0  0.38401788906E+02  0.26167208745E+02  0.16397535439E+01  0.46498483807E+02  0.00000000000E+00 0. -1.
<scales pt_clust_5="13000.00000" pt_clust_6="13000.00000" pt_clust_7="13000.00000" pt_clust_8="13000.00000" pt_clust_9="46.46956"></scales>
<clustering>
<clus scale="   46.470">  2  9  1 -1</clus>
<clus scale="   80.060">  5  6 -1 -1</clus>
<clus scale="   85.793">  1  5  2 -1</clus>
<clus scale="  109.737">  7  8 -1 -1</clus>
<clus scale="   46.470">  2  5  1 -1</clus>
</clustering>
</event>
<event>
 9    2  0.5615294E-005  0.9319712E+02  0.7546771E-02  0.1297061E+00
          2   -1    0    0  502    0 -0.00000000000E+00  0.00000000000E+00  0.77222172734E+02  0.77222172734E+02  0.00000000000E+00 0. -1.
         21   -1    0    0  501  502  0.00000000000E+00 -0.00000000000E+00 -0.33624381980E+03  0.33624381980E+03  0.00000000000E+00 0.  1.
         24    2    1    2    0    0  0.12052716634E+02  0.18275498439E+02  0.28510790067E+02  0.95516021902E+02  0.88493974192E+02 0.  0.
         23    2    1    2    0    0  0.24654373138E+02 -0.30668054879E+01 -0.18322362997E+03  0.20632989164E+03  0.91563541853E+02 0.  0.
        -11    1    3    3    0    0 -0.45128857408E+01 -0.34112087260E+02  0.20329049709E+02  0.39965871653E+02  0.00000000000E+00 0.  1.
         12    1    3    3    0    0  0.16565602375E+02  0.52387585699E+02  0.81817403588E+01  0.55550150249E+02  0.00000000000E+00 0. -1.
        -11    1    4    4    0    0 -0.28021552786E+02 -0.34738859836E+01 -0.19433847074E+02  0.34277539534E+02  0.00000000000E+00 0. -1.
         11    1    4    4    0    0  0.52675925924E+02  0.40708049570E+00 -0.16378978289E+03  0.17205235211E+03  0.00000000000E+00 0.  1.
          1    1    1    2  501    0 -0.36707089771E+02 -0.15208692951E+02 -0.10430880716E+03  0.11162007898E+03  0.00000000000E+00 0. -1.
<scales pt_clust_5="13000.00000" pt_clust_6="13000.00000" pt_clust_7="13000.00000" pt_clust_8="13000.00000" pt_clust_9="39.73304"></scales>
<clustering>
<clus scale="   39.733">  2  9  1 -1</clus>
<clus scale="   88.494">  5  6 -1 -1</clus>
<clus scale="   90.183">  1  5  2 -1</clus>
<clus scale="   91.564">  7  8 -1 -1</clus>
<clus scale="   39.733">  2  5  1 -1</clus>
</clustering>
</event>
<event>
 9    2  0.5615294E-005  0.1617946E+03  0.7546771E-02  0.1188025E+00
          2   -1    0    0  502    0 -0.00000000000E+00  0.00000000000E+00  0.15372313167E+04  0.15372313167E+04  0.00000000000E+00 0. -1.
         21   -1    0    0  501  502  0.00000000000E+00 -0.00000000000E+00 -0.46753369304E+02  0.46753369304E+02  0.00000000000E+00 0. -1.
         24    2    1    2    0    0 -0.97755588747E+02 -0.10564030408E+03  0.58115020377E+03  0.60442774352E+03  0.82953654635E+02 0.  0.
         23    2    1    2    0    0  0.56271067739E+01  0.12744105588E+03  0.15973641866E+03  0.22401072653E+03  0.91608924799E+02 0.  0.
        -11    1    3    3    0    0 -0.55542092865E+02 -0.14896654108E+02  0.12748725540E+03  0.13985647884E+03  0.00000000000E+00 0.  1.
         12    1    3    3    0    0 -0.42213495882E+02 -0.90743649974E+02  0.45366294837E+03  0.46457126468E+03  0.00000000000E+00 0. -1.
        -13    1    4    4    0    0 -0.16179679458E+02  0.11605145434E+03  0.16129031121E+03  0.19935969144E+03  0.00000000000E+00 0. -1.
         13    1    4    4    0    0  0.21806786231E+02  0.11389601541E+02 -0.15538925551E+01  0.24651035092E+02  0.00000000000E+00 0.  1.
          1    1    1    2  501    0  0.92128481973E+02 -0.21800751795E+02  0.74959132492E+03  0.75554621591E+03  0.00000000000E+00 0. -1.
<scales pt_clust_5="13000.00000" pt_clust_6="13000.00000" pt_clust_7="13000.00000" pt_clust_8="13000.00000" pt_clust_9="94.67280"></scales>
<clustering>
<clus scale="   82.954">  5  6 -1 -1</clus>
<clus scale="   91.609">  7  8 -1 -1</clus>
<clus scale="   94.673">  2  9  1 -1</clus>
<clus scale="  157.056">  1  5  2 -1</clus>
<clus scale="   94.673">  2  5  1 -1</clus>
</clustering>
</event>
<event>
 9    2  0.5615294E-005  0.9161090E+02  0.7546771E-02  0.1305916E+00
          2   -1    0    0  502    0 -0.00000000000E+00  0.00000000000E+00  0.18671286626E+03  0.18671286626E+03  0.00000000000E+00 0. -1.
         21   -1    0    0  501  502  0.00000000000E+00 -0.00000000000E+00 -0.27115251199E+03  0.27115251199E+03  0.00000000000E+00 0. -1.
         24    2    1    2    0    0 -0.15504194763E+01 -0.12025069694E+01  0.10108874971E+03  0.12918398851E+03  0.80409686897E+02 0.  0.
         23    2    1    2    0    0 -0.22846681155E+02 -0.12345365348E+02  0.38810078361E+02  0.10261389055E+03  0.91372914291E+02 0.  0.
        -11    1    3    3    0    0 -0.72006451754E+01  0.32170815433E+02  0.14125366913E+02  0.35865535643E+02  0.00000000000E+00 0.  1.
         12    1    3    3    0    0  0.56502256991E+01 -0.33373322402E+02  0.86963382798E+02  0.93318452871E+02  0.00000000000E+00 0. -1.
        -13    1    4    4    0    0 -0.18106496168E+02  0.32227421617E+02 -0.79809196930E+01  0.37817284232E+02  0.00000000000E+00 0.  1.
         13    1    4    4    0    0 -0.47401849869E+01 -0.44572786965E+02  0.46790998054E+02  0.64796606318E+02  0.00000000000E+00 0. -1.
          1    1    1    2  501    0  0.24397100631E+02  0.13547872317E+02 -0.22433847380E+03  0.22606749919E+03  0.00000000000E+00 0. -1.
<scales pt_clust_5="13000.00000" pt_clust_6="13000.00000" pt_clust_7="13000.00000" pt_clust_8="13000.00000" pt_clust_9="27.90633"></scales>
<clustering>
<clus scale="   27.906">  2  9  1 -1</clus>
<clus scale="   80.410">  5  6 -1 -1</clus>
<clus scale="   80.680">  1  5  2 -1</clus>
<clus scale="   91.373">  7  8 -1 -1</clus>
<clus scale="   27.906">  2  5  1 -1</clus>
</clustering>
</event>
<event>
 9    2  0.5615294E-005  0.1476123E+03  0.7546771E-02  0.1230757E+00
          2   -1    0    0  502    0 -0.00000000000E+00  0.00000000000E+00  0.41931068526E+03  0.41931068526E+03  0.00000000000E+00 0. -1.
         21   -1    0    0  501  502  0.00000000000E+00 -0.00000000000E+00 -0.16176708965E+03  0.16176708965E+03  0.00000000000E+00 0.  1.
         24    2    1    2    0    0  0.88647746588E+01 -0.16467435447E+00  0.31153980537E+03  0.32239087812E+03  0.82463425906E+02 0.  0.
         23    2    1    2    0    0  0.16797455310E+02  0.94611444943E+02 -0.63724550110E+02  0.16033353829E+03  0.11141160261E+03 0.  0.
        -13    1    3    3    0    0 -0.25651335747E+02  0.16180348381E+02  0.53150846663E+02  0.61194829850E+02  0.00000000000E+00 0.  1.
         14    1    3    3    0    0  0.34516110406E+02 -0.16345022735E+02  0.25838895871E+03  0.26119604827E+03  0.00000000000E+00 0. -1.
        -13    1    4    4    0    0 -0.37751542470E+02  0.56870393917E+02 -0.64619415167E+02  0.93995156682E+02  0.00000000000E+00 0.  1.
         13    1    4    4    0    0  0.54548997780E+02  0.37741051026E+02  0.89486505753E+00  0.66338381612E+02  0.00000000000E+00 0. -1.
          1    1    1    2  501    0 -0.25662229969E+02 -0.94446770588E+02  0.97283403468E+01  0.98353358496E+02  0.00000000000E+00 0. -1.
<scales pt_clust_5="13000.00000" pt_clust_6="13000.00000" pt_clust_7="13000.00000" pt_clust_8="13000.00000" pt_clust_9="96.83416"></scales>
<clustering>
<clus scale="   82.463">  5  6 -1 -1</clus>
<clus scale="   82.939">  1  5  2 -1</clus>
<clus scale="   96.834">  2  9  1 -1</clus>
<clus scale="  111.412">  7  8 -1 -1</clus>
<clus scale="   96.834">  2  5  1 -1</clus>
</clustering>
</event>
<event>
 9    2  0.5615294E-005  0.1241432E+03  0.7546771E-02  0.1239035E+00
          2   -1    0    0  502    0 -0.00000000000E+00  0.00000000000E+00  0.42076480357E+02  0.42076480357E+02  0.00000000000E+00 0. -1.
         21   -1    0    0  501  502  0.00000000000E+00 -0.00000000000E+00 -0.83336382693E+03  0.83336382693E+03  0.00000000000E+00 0. -1.
         23    2    1    2    0    0 -0.54402750533E+02  0.81703285234E+02 -0.16732577334E+03  0.21307535016E+03  0.88136850058E+02 0.  0.
         24    2    1    2    0    0  0.63116680076E+02 -0.20923998362E+02 -0.57405950162E+03  0.58324308258E+03  0.78782313807E+02 0.  0.
        -11    1    4    4    0    0  0.32886663858E+02  0.26214608940E+02 -0.16088982234E+03  0.16629574052E+03  0.00000000000E+00 0.  1.
         12    1    4    4    0    0  0.30230016218E+02 -0.47138607302E+02 -0.41316967928E+03  0.41694734206E+03  0.00000000000E+00 0. -1.
        -11    1    3    3    0    0 -0.20954900030E+02  0.42052137862E+01  0.43137959392E+01  0.21803680737E+02  0.00000000000E+00 0.  1.
         11    1    3    3    0    0 -0.33447850502E+02  0.77498071448E+02 -0.17163956928E+03  0.19127166942E+03  0.00000000000E+00 0. -1.
          1    1    1    2  501    0 -0.87139295431E+01 -0.60779286872E+02 -0.49902071624E+02  0.79121874555E+02  0.00000000000E+00 0. -1.
<scales pt_clust_5="13000.00000" pt_clust_6="13000.00000" pt_clust_7="13000.00000" pt_clust_8="13000.00000" pt_clust_9="61.40080"></scales>
<clustering>
<clus scale="   61.401">  2  9  1 -1</clus>
<clus scale="   78.782">  5  6 -1 -1</clus>
<clus scale="   88.137">  7  8 -1 -1</clus>
<clus scale="  117.686">  2  5  1 -1</clus>
<clus scale="   61.401">  2  5  1 -1</clus>
</clustering>
</event>
<event>
 9    2  0.5615294E-005  0.9286534E+02  0.7546771E-02  0.1300977E+00
         21   -1    0    0  501  502  0.00000000000E+00  0.00000000000E+00  0.52303534624E+02  0.52303534624E+02  0.00000000000E+00 0. -1.
          2   -1    0    0  502    0 -0.00000000000E+00 -0.00000000000E+00 -0.21749408147E+03  0.21749408147E+03  0.00000000000E+00 0. -1.
         24    2    1    2    0    0 -0.92706519153E+01  0.27999314142E+02 -0.12307805924E+03  0.15027635079E+03  0.81023862913E+02 0.  0.
         23    2    1    2    0    0 -0.72928263886E+01 -0.16423310467E+02 -0.30344271679E+02  0.96136578419E+02  0.89434649006E+02 0.  0.
        -13    1    3    3    0    0  0.28210665518E+02  0.80537106965E+01 -0.12615632818E+02  0.31935217180E+02  0.00000000000E+00 0.  1.
         14    1    3    3    0    0 -0.37481317433E+02  0.19945603446E+02 -0.11046242642E+03  0.11834113361E+03  0.00000000000E+00 0. -1.
        -11    1    4    4    0    0 -0.22047490217E+02 -0.46678490407E+02 -0.34689715806E+02  0.62196058350E+02  0.00000000000E+00 0.  1.
         11    1    4    4    0    0  0.14754663829E+02  0.30255179940E+02  0.43454441272E+01  0.33940520069E+02  0.00000000000E+00 0. -1.
          1    1    1    2  501    0  0.16563478304E+02 -0.11576003675E+02 -0.11768215927E+02  0.23384686885E+02  0.00000000000E+00 0. -1.
<scales pt_clust_5="13000.00000" pt_clust_6="13000.00000" pt_clust_7="13000.00000" pt_clust_8="13000.00000" pt_clust_9="20.20774"></scales>
<clustering>
<clus scale="   20.208">  1  9  2 -1</clus>
<clus scale="   81.024">  5  6 -1 -1</clus>
<clus scale="   84.796">  2  5  1 -1</clus>
<clus scale="   89.435">  7  8 -1 -1</clus>
<clus scale="   20.208">  1  5  2 -1</clus>
</clustering>
</event>
<event>
 9    2  0.5615294E-005  0.9817363E+02  0.7546771E-02  0.1290360E+00
         21   -1    0    0  501  502  0.00000000000E+00  0.00000000000E+00  0.89215857245E+02  0.89215857245E+02  0.00000000000E+00 0.  1.
         -3   -1    0    0    0  501 -0.00000000000E+00 -0.00000000000E+00 -0.21638553322E+03  0.21638553322E+03  0.00000000000E+00 0.  1.
         24    2    1    2    0    0 -0.26154996405E+02  0.37589941183E+02 -0.29830232400E+02  0.97321944118E+02  0.80527203645E+02 0.  0.
         23    2    1    2    0    0  0.15661227784E+02 -0.73268935131E+01  0.11879077958E+02  0.94460921141E+02  0.92102093925E+02 0.  0.
        -13    1    3    3    0    0  0.85334373253E+01  0.33208319980E+02  0.17486341632E+02  0.38488754359E+02  0.00000000000E+00 0.  1.
         14    1    3    3    0    0 -0.34688433730E+02  0.43816212030E+01 -0.47316574033E+02  0.58833189759E+02  0.00000000000E+00 0. -1.
        -13    1    4    4    0    0  0.50027016807E+02 -0.39559149858E+01 -0.13073412016E+02  0.51858131240E+02  0.00000000000E+00 0. -1.
         13    1    4    4    0    0 -0.34365789023E+02 -0.33709785272E+01  0.24952489974E+02  0.42602789901E+02  0.00000000000E+00 0.  1.
         -4    1    1    2    0  502  0.10493768621E+02 -0.30263047670E+02 -0.10921852154E+03  0.11381852521E+03  0.00000000000E+00 0.  1.
<scales pt_clust_5="13000.00000" pt_clust_6="13000.00000" pt_clust_7="13000.00000" pt_clust_8="13000.00000" pt_clust_9="32.03080"></scales>
<clustering>
<clus scale="   32.031">  1  9  2 -1</clus>
<clus scale="   80.527">  5  6 -1 -1</clus>
<clus scale="   87.406">  2  5  1 -1</clus>
<clus scale="   92.102">  7  8 -1 -1</clus>
<clus scale="   32.031">  1  5  2 -1</clus>
</clustering>
</event>
<event>
 9    2  0.5615294E-005  0.4260109E+03  0.7546771E-02  0.1085823E+00
          2   -1    0    0  502    0 -0.00000000000E+00  0.00000000000E+00  0.38203661324E+03  0.38203661324E+03  0.00000000000E+00 0. -1.
         21   -1    0    0  501  502  0.00000000000E+00 -0.00000000000E+00 -0.12727832399E+04  0.12727832399E+04  0.00000000000E+00 0. -1.
         24    2    1    2    0    0 -0.41263738226E+02 -0.48681144392E+02  0.22883747622E+03  0.25101214660E+03  0.81042934958E+02 0.  0.
         23    2    1    2    0    0  0.17944040165E+03 -0.36172151233E+03 -0.56871270218E+03  0.70310632144E+03  0.88786549621E+02 0.  0.
        -13    1    3    3    0    0  0.24209239649E+02 -0.62216276334E+01  0.50432134649E+02  0.56286731474E+02  0.00000000000E+00 0.  1.
         14    1    3    3    0    0 -0.65472977874E+02 -0.42459516759E+02  0.17840534157E+03  0.19472541513E+03  0.00000000000E+00 0. -1.
        -13    1    4    4    0    0  0.18145273421E+03 -0.30369978645E+03 -0.50853184651E+03  0.61948631458E+03  0.00000000000E+00 0. -1.
         13    1    4    4    0    0 -0.20123325599E+01 -0.58021725884E+02 -0.60180855674E+02  0.83620006856E+02  0.00000000000E+00 0.  1.
          1    1    1    2  501    0 -0.13817666343E+03  0.41040265672E+03 -0.55087140069E+03  0.70070138508E+03  0.00000000000E+00 0. -1.
<scales pt_clust_5="13000.00000" pt_clust_6="13000.00000" pt_clust_7="13000.00000" pt_clust_8="13000.00000" pt_clust_9="416.65627"></scales>
<clustering>
<clus scale="   81.043">  5  6 -1 -1</clus>
<clus scale="   88.787">  7  8 -1 -1</clus>
<clus scale="  103.153">  1  5  2 -1</clus>
<clus scale="  416.656">  2  9  1 -1</clus>
<clus scale="  416.656">  2  5  1 -1</clus>
</clustering>
</event>
<event>
 9    2  0.5615294E-005  0.1066296E+03  0.7546771E-02  0.1275521E+00
          2   -1    0    0  502    0 -0.00000000000E+00  0.00000000000E+00  0.39098075222E+03  0.39098075222E+03  0.00000000000E+00 0. -1.
         21   -1    0    0  501  502  0.00000000000E+00 -0.00000000000E+00 -0.39304086281E+02  0.39304086281E+02  0.00000000000E+00 0.  1.
         24    2    1    2    0    0  0.70476051773E+01 -0.36962920881E+02  0.14958850582E+03  0.17445241048E+03  0.81492307562E+02 0.  0.
         23    2    1    2    0    0 -0.39961873288E+02  0.29728526428E+02  0.10404452800E+03  0.15215871241E+03  0.99228389867E+02 0.  0.
        -13    1    3    3    0    0  0.19965341933E+02  0.14837165105E+02  0.13577593906E+02  0.28339149655E+02  0.00000000000E+00 0.  1.
         14    1    3    3    0    0 -0.12917736756E+02 -0.51800085986E+02  0.13601091191E+03  0.14611326083E+03  0.00000000000E+00 0. -1.
        -13    1    4    4    0    0  0.15476272035E+02  0.43042435125E+02  0.75800671809E+02  0.88531960694E+02  0.00000000000E+00 0. -1.
         13    1    4    4    0    0 -0.55438145322E+02 -0.13313908697E+02  0.28243856195E+02  0.63626751719E+02  0.00000000000E+00 0.  1.
          1    1    1    2  501    0  0.32914268110E+02  0.72343944526E+01  0.98043632118E+02  0.10367371560E+03  0.00000000000E+00 0. -1.
<scales pt_clust_5="13000.00000" pt_clust_6="13000.00000" pt_clust_7="13000.00000" pt_clust_8="13000.00000" pt_clust_9="33.69995"></scales>
<clustering>
<clus scale="   33.700">  2  9  1 -1</clus>
<clus scale="   81.492">  5  6 -1 -1</clus>
<clus scale="   90.358">  1  5  2 -1</clus>
<clus scale="   99.228">  7  8 -1 -1</clus>
<clus scale="   33.700">  2  5  1 -1</clus>
</clustering>
</event>
<event>
 9    2  0.5615294E-005  0.1067453E+03  0.7546771E-02  0.1270534E+00
         21   -1    0    0  501  502  0.00000000000E+00  0.00000000000E+00  0.20468741443E+03  0.20468741443E+03  0.00000000000E+00 0. -1.
          2   -1    0    0  502    0 -0.00000000000E+00 -0.00000000000E+00 -0.13856929092E+03  0.13856929092E+03  0.00000000000E+00 0. -1.
         24    2    1    2    0    0  0.48470122635E+02  0.22043671588E+02 -0.89104453002E+02  0.13354012137E+03  0.84012405181E+02 0.  0.
         23    2    1    2    0    0 -0.30456179890E+02 -0.47289498550E+02  0.13231717115E+03  0.17116127946E+03  0.92868047458E+02 0.  0.
        -13    1    3    3    0    0  0.19984857721E+02 -0.27959736572E+02 -0.10143288781E+02  0.35833332451E+02  0.00000000000E+00 0.  1.
         14    1    3    3    0    0  0.28485264914E+02  0.50003408159E+02 -0.78961164221E+02  0.97706788914E+02  0.00000000000E+00 0. -1.
        -13    1    4    4    0    0 -0.13173160549E+02 -0.66397579015E+02  0.47966847963E+02  0.82963782227E+02  0.00000000000E+00 0. -1.
         13    1    4    4    0    0 -0.17283019341E+02  0.19108080465E+02  0.84350323184E+02  0.88197497231E+02  0.00000000000E+00 0.  1.
          1    1    1    2  501    0 -0.18013942745E+02  0.25245826962E+02  0.22905405364E+02  0.38555304526E+02  0.00000000000E+00 0. -1.
<scales pt_clust_5="13000.00000" pt_clust_6="13000.00000" pt_clust_7="13000.00000" pt_clust_8="13000.00000" pt_clust_9="31.01377"></scales>
<clustering>
<clus scale="   31.014">  1  9  2 -1</clus>
<clus scale="   84.012">  5  6 -1 -1</clus>
<clus scale="   92.868">  7  8 -1 -1</clus>
<clus scale="   99.137">  2  5  1 -1</clus>
<clus scale="   31.014">  1  5  2 -1</clus>
</clustering>
</event>
<event>
 9    2  0.5615294E-005  0.1021307E+03  0.7546771E-02  0.1283933E+00
          2   -1    0    0  502    0 -0.00000000000E+00  0.00000000000E+00  0.30879799708E+03  0.30879799708E+03  0.00000000000E+00 0. -1.
         21   -1    0    0  501  502  0.00000000000E+00 -0.00000000000E+00 -0.29759575245E+03  0.29759575245E+03  0.00000000000E+00 0. -1.
         24    2    1    2    0    0 -0.13947596015E+02 -0.32955184677E+02  0.28551307845E+03  0.29881526666E+03  0.80574598926E+02 0.  0.
         23    2    1    2    0    0  0.78952801893E+01 -0.76480919844E+01 -0.17240442594E+03  0.19771414577E+03  0.96160119556E+02 0.  0.
        -11    1    3    3    0    0 -0.37240563187E+02  0.54290758199E+01  0.79385387635E+02  0.87854278101E+02  0.00000000000E+00 0.  1.
         12    1    3    3    0    0  0.23292967172E+02 -0.38384260497E+02  0.20612769081E+03  0.21096098856E+03  0.00000000000E+00 0. -1.
        -13    1    4    4    0    0  0.38277095875E+02  0.20926491524E+02 -0.41065519762E+02  0.59911860508E+02  0.00000000000E+00 0.  1.
         13    1    4    4    0    0 -0.30381815686E+02 -0.28574583509E+02 -0.13133890618E+03  0.13780228526E+03  0.00000000000E+00 0. -1.
          1    1    1    2  501    0  0.60523158255E+01  0.40603276661E+02 -0.10190640787E+03  0.10986433711E+03  0.00000000000E+00 0. -1.
<scales pt_clust_5="13000.00000" pt_clust_6="13000.00000" pt_clust_7="13000.00000" pt_clust_8="13000.00000" pt_clust_9="41.05188"></scales>
<clustering>
<clus scale="   41.052">  2  9  1 -1</clus>
<clus scale="   80.575">  5  6 -1 -1</clus>
<clus scale="   87.614">  1  5  2 -1</clus>
<clus scale="   96.160">  7  8 -1 -1</clus>
<clus scale="   41.052">  2  5  1 -1</clus>
</clustering>
</event>
<event>
 9    2  0.5615294E-005  0.1191594E+03  0.7546771E-02  0.1247812E+00
         21   -1    0    0  501  502  0.00000000000E+00  0.00000000000E+00  0.46478577819E+02  0.46478577819E+02  0.00000000000E+00 0.  1.
          2   -1    0    0  502    0 -0.00000000000E+00 -0.00000000000E+00 -0.73431667958E+03  0.73431667958E+03  0.00000000000E+00 0. -1.
         24    2    1    2    0    0  0.83027871770E+02 -0.15508594985E+02 -0.50661649548E+03  0.51986417599E+03  0.80401144108E+02 0.  0.
         23    2    1    2    0    0 -0.35043724219E+02  0.16549343295E+02 -0.31345095948E+02  0.10355722741E+03  0.90772467955E+02 0.  0.
        -11    1    3    3    0    0  0.65129642028E+02  0.24030206417E+02 -0.24391957156E+03  0.25360614835E+03  0.00000000000E+00 0.  1.
         12    1    3    3    0    0  0.17898229742E+02 -0.39538801402E+02 -0.26269692393E+03  0.26625802764E+03  0.00000000000E+00 0. -1.
        -11    1    4    4    0    0 -0.29241688450E+02 -0.35232396227E+02 -0.80820856042E+01  0.46494281315E+02  0.00000000000E+00 0. -1.
         11    1    4    4    0    0 -0.58020357685E+01  0.51781739522E+02 -0.23263010344E+02  0.57062946096E+02  0.00000000000E+00 0.  1.
          1    1    1    2  501    0 -0.47984147552E+02 -0.10407483094E+01 -0.14987651033E+03  0.15737385400E+03  0.00000000000E+00 0. -1.
<scales pt_clust_5="13000.00000" pt_clust_6="13000.00000" pt_clust_7="13000.00000" pt_clust_8="13000.00000" pt_clust_9="47.99546"></scales>
<clustering>
<clus scale="   47.995">  1  9  2 -1</clus>
<clus scale="   80.401">  5  6 -1 -1</clus>
<clus scale="   90.772">  7  8 -1 -1</clus>
<clus scale="  111.462">  2  5  1 -1</clus>
<clus scale="   47.995">  1  5  2 -1</clus>
</clustering>
</event>
<event>
 9    2  0.5615294E-005  0.1197513E+03  0.7546771E-02  0.1248257E+00
          2   -1    0    0  502    0 -0.00000000000E+00  0.00000000000E+00  0.94945434868E+03  0.94945434868E+03  0.00000000000E+00 0. -1.
         21   -1    0    0  501  502  0.00000000000E+00 -0.00000000000E+00 -0.30147453322E+02  0.30147453322E+02  0.00000000000E+00 0. -1.
         23    2    1    2    0    0 -0.31915777313E+02  0.57859135046E+02  0.49442080510E+03  0.50757380489E+03  0.93877252535E+02 0.  0.
         24    2    1    2    0    0 -0.18191055290E+02 -0.10745097012E+03  0.26815444963E+03  0.30017092873E+03  0.79493094820E+02 0.  0.
        -13    1    4    4    0    0 -0.38255000320E+02 -0.49086204973E+02  0.19376062964E+03  0.20350941543E+03  0.00000000000E+00 0.  1.
         14    1    4    4    0    0  0.20063945030E+02 -0.58364765151E+02  0.74393819989E+02  0.96661513302E+02  0.00000000000E+00 0. -1.
        -11    1    3    3    0    0  0.56316694733E+01  0.73796341582E+02  0.31915736994E+03  0.32762637641E+03  0.00000000000E+00 0. -1.
         11    1    3    3    0    0 -0.37547446786E+02 -0.15937206536E+02  0.17526343516E+03  0.17994742848E+03  0.00000000000E+00 0.  1.
          1    1    1    2  501    0  0.50106832603E+02  0.49591835078E+02  0.15673164063E+03  0.17185706838E+03  0.00000000000E+00 0. -1.
<scales pt_clust_5="13000.00000" pt_clust_6="13000.00000" pt_clust_7="13000.00000" pt_clust_8="13000.00000" pt_clust_9="70.49854"></scales>
<clustering>
<clus scale="   70.499">  2  9  1 -1</clus>
<clus scale="   79.493">  5  6 -1 -1</clus>
<clus scale="   93.877">  7  8 -1 -1</clus>
<clus scale="  108.842">  2  5  1 -1</clus>
<clus scale="   70.499">  2  5  1 -1</clus>
</clustering>
</event>
<event>
 9    2  0.5615294E-005  0.1119672E+03  0.7546771E-02  0.1260762E+00
         -1   -1    0    0    0  501 -0.00000000000E+00  0.00000000000E+00  0.13441326721E+03  0.13441326721E+03  0.00000000000E+00 0.  1.
         21   -1    0    0  501  502  0.00000000000E+00 -0.00000000000E+00 -0.18612218926E+03  0.18612218926E+03  0.00000000000E+00 0.  1.
         23    2    1    2    0    0  0.20835686754E+02  0.81546538158E+02 -0.26128979690E+02  0.12576760612E+03  0.89726269519E+02 0.  0.
         24    2    1    2    0    0  0.42235649664E+02 -0.49097775094E+02 -0.56899212192E+02  0.11723197242E+03  0.79444152639E+02 0.  0.
        -11    1    4    4    0    0  0.58745874496E+02 -0.11868239291E+02 -0.44542618533E+02  0.74672469760E+02  0.00000000000E+00 0.  1.
         12    1    4    4    0    0 -0.16510224832E+02 -0.37229535804E+02 -0.12356593659E+02  0.42559502664E+02  0.00000000000E+00 0. -1.
        -11    1    3    3    0    0 -0.27126107528E+02  0.67370843914E+02 -0.10579901914E+02  0.73393396459E+02  0.00000000000E+00 0.  1.
         11    1    3    3    0    0  0.47961794282E+02  0.14175694244E+02 -0.15549077776E+02  0.52374209662E+02  0.00000000000E+00 0. -1.
         -2    1    1    2    0  502 -0.63071336418E+02 -0.32448763063E+02  0.31319269837E+02  0.77535877921E+02  0.00000000000E+00 0.  1.
<scales pt_clust_5="13000.00000" pt_clust_6="13000.00000" pt_clust_7="13000.00000" pt_clust_8="13000.00000" pt_clust_9="70.92898"></scales>
<clustering>
<clus scale="   70.929">  2  9  1 -1</clus>
<clus scale="   79.444">  5  6 -1 -1</clus>
<clus scale="   89.726">  7  8 -1 -1</clus>
<clus scale="  103.910">  2  5  1 -1</clus>
<clus scale="   70.929">  2  5  1 -1</clus>
</clustering>
</event>
<event>
 9    2  0.5615294E-005  0.1256919E+03  0.7546771E-02  0.1249329E+00
          2   -1    0    0  502    0 -0.00000000000E+00  0.00000000000E+00  0.12905952563E+04  0.12905952563E+04  0.00000000000E+00 0. -1.
         21   -1    0    0  501  502  0.00000000000E+00 -0.00000000000E+00 -0.28624491266E+02  0.28624491266E+02  0.00000000000E+00 0. -1.
         24    2    1    2    0    0 -0.20917315132E+02  0.42316313255E+02  0.32762634400E+03  0.34033339314E+03  0.79117588184E+02 0.  0.
         23    2    1    2    0    0  0.48575584356E+02  0.64867567775E+02  0.18728725328E+03  0.22367262567E+03  0.91572591374E+02 0.  0.
        -13    1    3    3    0    0 -0.33574027133E+02  0.15976959937E+02  0.56499809211E+02  0.67636580248E+02  0.00000000000E+00 0.  1.
         14    1    3    3    0    0  0.12656712001E+02  0.26339353317E+02  0.27112653479E+03  0.27269681289E+03  0.00000000000E+00 0. -1.
        -11    1    4    4    0    0  0.29901157455E+02  0.13936224534E+02  0.48535176385E+01  0.33344477877E+02  0.00000000000E+00 0. -1.
         11    1    4    4    0    0  0.18674426900E+02  0.50931343240E+02  0.18243373564E+03  0.19032814780E+03  0.00000000000E+00 0.  1.
          1    1    1    2  501    0 -0.27658269224E+02 -0.10718388103E+03  0.74705716779E+03  0.75521372879E+03  0.00000000000E+00 0. -1.
<scales pt_clust_5="13000.00000" pt_clust_6="13000.00000" pt_clust_7="13000.00000" pt_clust_8="13000.00000" pt_clust_9="86.09836"></scales>
<clustering>
<clus scale="   79.118">  5  6 -1 -1</clus>
<clus scale="   91.573">  7  8 -1 -1</clus>
<clus scale="   92.129">  1  5  2 -1</clus>
<clus scale="   86.098">  2  9  1 -1</clus>
<clus scale="   86.098">  2  5  1 -1</clus>
</clustering>
</event>
<event>
 9    2  0.5615294E-005  0.1061978E+03  0.7546771E-02  0.1271777E+00
          2   -1    0    0  502    0 -0.00000000000E+00  0.00000000000E+00  0.58793639195E+03  0.58793639195E+03  0.00000000000E+00 0. -1.
         21   -1    0    0  501  502  0.00000000000E+00 -0.00000000000E+00 -0.13812178050E+03  0.13812178050E+03  0.00000000000E+00 0. -1.
         24    2    1    2    0    0  0.51189107843E+02  0.20048253351E+02  0.26502269492E+03  0.28231055708E+03  0.80249389974E+02 0.  0.
         23    2    1    2    0    0 -0.40850705266E+02 -0.47003557459E+02  0.30298536089E+03  0.32207937268E+03  0.89760118414E+02 0.  0.
        -11    1    3    3    0    0  0.25748306837E+02 -0.17488548572E+02  0.30980767406E+02  0.43916199576E+02  0.00000000000E+00 0.  1.
         12    1    3    3    0    0  0.25440801006E+02  0.37536801923E+02  0.23404192752E+03  0.23839435750E+03  0.00000000000E+00 0. -1.
        -11    1    4    4    0    0 -0.26742168526E+02  0.14868819247E+02  0.34137203824E+02  0.45842928006E+02  0.00000000000E+00 0.  1.
         11    1    4    4    0    0 -0.14108536741E+02 -0.61872376706E+02  0.26884815707E+03  0.27623644468E+03  0.00000000000E+00 0. -1.
          1    1    1    2  501    0 -0.10338402577E+02  0.26955304108E+02 -0.11819344436E+03  0.12166824268E+03  0.00000000000E+00 0. -1.
<scales pt_clust_5="13000.00000" pt_clust_6="13000.00000" pt_clust_7="13000.00000" pt_clust_8="13000.00000" pt_clust_9="28.86990"></scales>
<clustering>
<clus scale="   28.870">  2  9  1 -1</clus>
<clus scale="   80.249">  5  6 -1 -1</clus>
<clus scale="   89.760">  7  8 -1 -1</clus>
<clus scale="   98.291">  1  5  2 -1</clus>
<clus scale="   28.870">  2  5  1 -1</clus>
</clustering>
</event>
<event>
 9    2  0.5615294E-005  0.1665072E+03  0.7546771E-02  0.1196550E+00
          4   -1    0    0  502    0 -0.00000000000E+00  0.00000000000E+00  0.48529116109E+03  0.48529116109E+03  0.00000000000E+00 0. -1.
         21   -1    0    0  501  502  0.00000000000E+00 -0.00000000000E+00 -0.42216098566E+03  0.42216098566E+03  0.00000000000E+00 0. -1.
         24    2    1    2    0    0  0.71735964543E+02  0.25090871359E+02  0.41796128783E+03  0.43469351721E+03  0.92147790770E+02 0.  0.
         23    2    1    2    0    0  0.60574827756E+02  0.65727505184E+02 -0.84526671841E+02  0.15840434873E+03  0.99788600301E+02 0.  0.
        -11    1    3    3    0    0  0.45852994777E+02 -0.96918721104E+01  0.71249666093E+02  0.85281559750E+02  0.00000000000E+00 0.  1.
         12    1    3    3    0    0  0.25882969766E+02  0.34782743469E+02  0.34671162173E+03  0.34941195746E+03  0.00000000000E+00 0. -1.
        -11    1    4    4    0    0 -0.23856234377E+02  0.36817387660E+02 -0.36436005813E+02  0.57028260296E+02  0.00000000000E+00 0.  1.
         11    1    4    4    0    0  0.84431062132E+02  0.28910117524E+02 -0.48090666028E+02  0.10137608844E+03  0.00000000000E+00 0. -1.
          3    1    1    2  501    0 -0.13231079230E+03 -0.90818376543E+02 -0.27030444056E+03  0.31435428081E+03  0.00000000000E+00 0. -1.
<scales pt_clust_5="13000.00000" pt_clust_6="13000.00000" pt_clust_7="13000.00000" pt_clust_8="13000.00000" pt_clust_9="133.29250"></scales>
<clustering>
<clus scale="   92.148">  5  6 -1 -1</clus>
<clus scale="   99.789">  7  8 -1 -1</clus>
<clus scale="  119.444">  1  5  2 -1</clus>
<clus scale="  133.292">  2  9  1 -1</clus>
<clus scale="  133.292">  2  5  1 -1</clus>
</clustering>
</event>
<event>
 9    2  0.5615294E-005  0.4037707E+03  0.7546771E-02  0.1096885E+00
         21   -1    0    0  501  502  0.00000000000E+00  0.00000000000E+00  0.62676315904E+03  0.62676315904E+03  0.00000000000E+00 0. -1.
          2   -1    0    0  502    0 -0.00000000000E+00 -0.00000000000E+00 -0.70353202726E+03  0.70353202726E+03  0.00000000000E+00 0. -1.
         24    2    1    2    0    0 -0.34515358941E+02  0.21974294745E+02 -0.44375042253E+03  0.45288510680E+03  0.80723620030E+02 0.  0.
         23    2    1    2    0    0 -0.21543739616E+03  0.30435973830E+03  0.15753235278E+03  0.41606503626E+03  0.96153784440E+02 0.  0.
        -11    1    3    3    0    0 -0.51109170296E+02 -0.34160591354E+01 -0.17251602890E+03  0.17995998715E+03  0.00000000000E+00 0.  1.
         12    1    3    3    0    0  0.16593811355E+02  0.25390353881E+02 -0.27123439363E+03  0.27292511964E+03  0.00000000000E+00 0. -1.
        -13    1    4    4    0    0 -0.20274738071E+03  0.26339020040E+03  0.10569990883E+03  0.34878842982E+03  0.00000000000E+00 0. -1.
         13    1    4    4    0    0 -0.12690015455E+02  0.40969537902E+02  0.51832443952E+02  0.67276606441E+02  0.00000000000E+00 0.  1.
          1    1    1    2  501    0  0.24995275510E+03 -0.32633403304E+03  0.20944920154E+03  0.46134504325E+03  0.00000000000E+00 0. -1.
<scales pt_clust_5="13000.00000" pt_clust_6="13000.00000" pt_clust_7="13000.00000" pt_clust_8="13000.00000" pt_clust_9="392.15483"></scales>
<clustering>
<clus scale="   80.724">  5  6 -1 -1</clus>
<clus scale="   90.501">  2  5  1 -1</clus>
<clus scale="   96.154">  7  8 -1 -1</clus>
<clus scale="  392.155">  1  9  2 -1</clus>
<clus scale="  392.155">  1  5  2 -1</clus>
</clustering>
</event>
<event>
 9    2  0.1161085E-004  0.1051111E+03  0.7546771E-02  0.1270980E+00
          2   -1    0    0  502    0 -0.00000000000E+00  0.00000000000E+00  0.62093091849E+03  0.62093091849E+03  0.00000000000E+00 0. -1.
         21   -1    0    0  501  502  0.00000000000E+00 -0.00000000000E+00 -0.15962195571E+03  0.15962195571E+03  0.00000000000E+00 0. -1.
         24    2    1    2    0    0  0.22609968971E+00 -0.50786102957E+02  0.44310772685E+03  0.45577875289E+03  0.93864448097E+02 0.  0.
         23    2    1    2    0    0  0.58332628700E+02  0.27851176232E+02  0.14502058365E+03  0.18321748074E+03  0.91429163724E+02 0.  0.
        -13    1    3    3    0    0  0.27191873633E+01 -0.44406644151E+02  0.72192959297E+02  0.84800751157E+02  0.00000000000E+00 0.  1.
         14    1    3    3    0    0 -0.24930876735E+01 -0.63794588056E+01  0.37091476755E+03  0.37097800173E+03  0.00000000000E+00 0. -1.
        -11    1    4    4    0    0 -0.11987386826E+02  0.38050593305E+02  0.40655235785E+02  0.56959575933E+02  0.00000000000E+00 0.  1.
         11    1    4    4    0    0  0.70320015525E+02 -0.10199417073E+02  0.10436534786E+03  0.12625790481E+03  0.00000000000E+00 0. -1.
          1    1    1    2  501    0 -0.58558728389E+02  0.22934926725E+02 -0.12681934771E+03  0.14155664057E+03  0.00000000000E+00 0. -1.
<scales pt_clust_5="13000.00000" pt_clust_6="13000.00000" pt_clust_7="13000.00000" pt_clust_8="13000.00000" pt_clust_9="62.88987"></scales>
<clustering>
<clus scale="   62.890">  2  9  1 -1</clus>
<clus scale="   91.429">  7  8 -1 -1</clus>
<clus scale="   93.864">  5  6 -1 -1</clus>
<clus scale="  102.942">  2  7  1 -1</clus>
<clus scale="   62.890">  2  5  1 -1</clus>
</clustering>
</event>
<event>
 9    2  0.5615294E-005  0.1022406E+03  0.7546771E-02  0.1280814E+00
         21   -1    0    0  501  502  0.00000000000E+00  0.00000000000E+00  0.15178966085E+03  0.15178966085E+03  0.00000000000E+00 0.  1.
          2   -1    0    0  502    0 -0.00000000000E+00 -0.00000000000E+00 -0.16444374704E+03  0.16444374704E+03  0.00000000000E+00 0. -1.
         24    2    1    2    0    0 -0.24098097918E+02  0.55879551372E+02 -0.90457802008E+02  0.13553745771E+03  0.80526678273E+02 0.  0.
         23    2    1    2    0    0  0.23583022253E+02  0.10353160906E+02  0.32147938517E+02  0.10025039418E+03  0.91396415155E+02 0.  0.
        -11    1    3    3    0    0 -0.11045671899E+02  0.75225518945E+02 -0.78614534403E+02  0.10936695382E+03  0.00000000000E+00 0.  1.
         12    1    3    3    0    0 -0.13052426019E+02 -0.19345967574E+02 -0.11843267604E+02  0.26170503891E+02  0.00000000000E+00 0. -1.
        -11    1    4    4    0    0  0.36717780017E+02  0.36062178719E+02 -0.66463099379E+01  0.51892673270E+02  0.00000000000E+00 0. -1.
         11    1    4    4    0    0 -0.13134757765E+02 -0.25709017813E+02  0.38794248455E+02  0.48357720910E+02  0.00000000000E+00 0.  1.
          1    1    1    2  501    0  0.51507566541E+00 -0.66232712278E+02  0.45655777305E+02  0.80445555999E+02  0.00000000000E+00 0. -1.
<scales pt_clust_5="13000.00000" pt_clust_6="13000.00000" pt_clust_7="13000.00000" pt_clust_8="13000.00000" pt_clust_9="66.23472"></scales>
<clustering>
<clus scale="   66.235">  1  9  2 -1</clus>
<clus scale="   80.527">  5  6 -1 -1</clus>
<clus scale="   91.396">  7  8 -1 -1</clus>
<clus scale="   92.652">  2  5  1 -1</clus>
<clus scale="   66.235">  1  5  2 -1</clus>
</clustering>
</event>
<event>
 9    2  0.5615294E-005  0.1255502E+03  0.7546771E-02  0.1247214E+00
          2   -1    0    0  502    0 -0.00000000000E+00  0.00000000000E+00  0.15541697158E+04  0.15541697158E+04  0.00000000000E+00 0. -1.
         21   -1    0    0  501  502  0.00000000000E+00 -0.00000000000E+00 -0.18202601776E+02  0.18202601776E+02  0.00000000000E+00 0.  1.
         23    2    1    2    0    0  0.28819334693E+02 -0.12727314227E+02  0.56124521788E+03  0.56947108693E+03  0.91151443619E+02 0.  0.
         24    2    1    2    0    0  0.74459890867E+02  0.50443101926E+02  0.39312138510E+03  0.41099901447E+03  0.79290507555E+02 0.  0.
        -13    1    4    4    0    0  0.20328480830E+02  0.57720697551E+02  0.15387359943E+03  0.16559592585E+03  0.00000000000E+00 0.  1.
         14    1    4    4    0    0  0.54131410037E+02 -0.72775956245E+01  0.23924778568E+03  0.24540308861E+03  0.00000000000E+00 0. -1.
        -11    1    3    3    0    0 -0.33371410760E+02 -0.33407455630E+01  0.19891510504E+03  0.20172265775E+03  0.00000000000E+00 0.  1.
         11    1    3    3    0    0  0.62190745454E+02 -0.93865686638E+01  0.36233011284E+03  0.36774842918E+03  0.00000000000E+00 0. -1.
          1    1    1    2  501    0 -0.10327922556E+03 -0.37715787700E+02  0.58160051100E+03  0.59190221614E+03  0.00000000000E+00 0. -1.
<scales pt_clust_5="13000.00000" pt_clust_6="13000.00000" pt_clust_7="13000.00000" pt_clust_8="13000.00000" pt_clust_9="97.34409"></scales>
<clustering>
<clus scale="   79.291">  5  6 -1 -1</clus>
<clus scale="   91.151">  7  8 -1 -1</clus>
<clus scale="   96.442">  1  7  2 -1</clus>
<clus scale="   97.344">  2  9  1 -1</clus>
<clus scale="   97.344">  2  5  1 -1</clus>
</clustering>
</event>
<event>
 9    2  0.5615294E-005  0.1870742E+03  0.7546771E-02  0.1195781E+00
          2   -1    0    0  502    0 -0.00000000000E+00  0.00000000000E+00  0.18594155994E+03  0.18594155994E+03  0.00000000000E+00 0. -1.
         21   -1    0    0  501  502  0.00000000000E+00 -0.00000000000E+00 -0.27646470864E+03  0.27646470864E+03  0.00000000000E+00 0. -1.
         24    2    1    2    0    0 -0.27751509748E+02  0.10802333905E+00  0.34553673687E+02  0.92356479996E+02  0.81028421369E+02 0.  0.
         23    2    1    2    0    0 -0.13420282873E+03 -0.47548815346E+02 -0.30832046133E+02  0.17675748572E+03  0.10010646636E+03 0.  0.
        -13    1    3    3    0    0 -0.28363912836E+02  0.38140599964E+02  0.21177435384E+02  0.52035571357E+02  0.00000000000E+00 0.  1.
         14    1    3    3    0    0  0.61240308836E+00 -0.38032576625E+02  0.13376238303E+02  0.40320908638E+02  0.00000000000E+00 0. -1.
        -13    1    4    4    0    0 -0.28227987551E+02 -0.14060337572E+01 -0.52062330244E+02  0.59239196843E+02  0.00000000000E+00 0.  1.
         13    1    4    4    0    0 -0.10597484118E+03 -0.46142781589E+02  0.21230284111E+02  0.11751828887E+03  0.00000000000E+00 0. -1.
          1    1    1    2  501    0  0.16195433848E+03  0.47440792007E+02 -0.94244776251E+02  0.19329230287E+03  0.00000000000E+00 0. -1.
<scales pt_clust_5="13000.00000" pt_clust_6="13000.00000" pt_clust_7="13000.00000" pt_clust_8="13000.00000" pt_clust_9="158.03628"></scales>
<clustering>
<clus scale="   81.028">  5  6 -1 -1</clus>
<clus scale="   85.649">  1  5  2 -1</clus>
<clus scale="  100.106">  7  8 -1 -1</clus>
<clus scale="  158.036">  2  9  1 -1</clus>
<clus scale="  158.036">  2  5  1 -1</clus>
</clustering>
</event>
<event>
 9    2  0.5615294E-005  0.9132809E+02  0.7546771E-02  0.1305888E+00
          2   -1    0    0  502    0 -0.00000000000E+00  0.00000000000E+00  0.37131601780E+03  0.37131601780E+03  0.00000000000E+00 0. -1.
         21   -1    0    0  501  502  0.00000000000E+00 -0.00000000000E+00 -0.72418162980E+02  0.72418162980E+02  0.00000000000E+00 0.  1.
         24    2    1    2    0    0 -0.16210590293E+02  0.93845950443E+01  0.31698047356E+03  0.32734050791E+03  0.79525679146E+02 0.  0.
         23    2    1    2    0    0  0.15334085379E+02  0.13016937823E+02 -0.92192351173E+01  0.92286485045E+02  0.89594788806E+02 0.  0.
        -13    1    3    3    0    0  0.30365325031E+02 -0.26879218148E+01  0.16921065911E+03  0.17193465342E+03  0.00000000000E+00 0.  1.
         14    1    3    3    0    0 -0.46575915324E+02  0.12072516859E+02  0.14776981444E+03  0.15540585450E+03  0.00000000000E+00 0. -1.
        -13    1    4    4    0    0  0.38235549081E+02 -0.16870731701E+01 -0.37115334442E+02  0.53313708182E+02  0.00000000000E+00 0.  1.
         13    1    4    4    0    0 -0.22901463701E+02  0.14704010993E+02  0.27896099324E+02  0.38972776864E+02  0.00000000000E+00 0. -1.
          1    1    1    2  501    0  0.87650491414E+00 -0.22401532867E+02 -0.88633836161E+01  0.24107187824E+02  0.00000000000E+00 0. -1.
<scales pt_clust_5="13000.00000" pt_clust_6="13000.00000" pt_clust_7="13000.00000" pt_clust_8="13000.00000" pt_clust_9="22.41867"></scales>
<clustering>
<clus scale="   22.419">  2  9  1 -1</clus>
<clus scale="   79.526">  5  6 -1 -1</clus>
<clus scale="   81.473">  1  5  2 -1</clus>
<clus scale="   89.595">  7  8 -1 -1</clus>
<clus scale="   22.419">  2  5  1 -1</clus>
</clustering>
</event>
<event>
 9    2  0.5615294E-005  0.1067696E+03  0.7546771E-02  0.1270088E+00
         21   -1    0    0  501  502  0.00000000000E+00  0.00000000000E+00  0.10978050278E+03  0.10978050278E+03  0.00000000000E+00 0.  1.
          2   -1    0    0  502    0 -0.00000000000E+00 -0.00000000000E+00 -0.15893670803E+03  0.15893670803E+03  0.00000000000E+00 0. -1.
         24    2    1    2    0    0  0.12675317923E+02 -0.63947932317E+02 -0.95220054936E+02  0.14031726956E+03  0.79825281343E+02 0.  0.
         23    2    1    2    0    0 -0.92596145099E+01  0.42943273830E+02  0.37979318717E+02  0.10563544370E+03  0.88241447675E+02 0.  0.
        -11    1    3    3    0    0  0.41044865038E+02 -0.14907662867E+02 -0.25827815069E+02  0.50734558137E+02  0.00000000000E+00 0.  1.
         12    1    3    3    0    0 -0.28369547115E+02 -0.49040269451E+02 -0.69392239868E+02  0.89582711419E+02  0.00000000000E+00 0. -1.
        -13    1    4    4    0    0 -0.33016391191E+02 -0.77275471719E+00  0.44542690136E+02  0.55450252314E+02  0.00000000000E+00 0.  1.
         13    1    4    4    0    0  0.23756776682E+02  0.43716028547E+02 -0.65633714188E+01  0.50185191388E+02  0.00000000000E+00 0. -1.
          1    1    1    2  501    0 -0.34157034136E+01  0.21004658488E+02  0.80845309670E+01  0.22764497555E+02  0.00000000000E+00 0. -1.
<scales pt_clust_5="13000.00000" pt_clust_6="13000.00000" pt_clust_7="13000.00000" pt_clust_8="13000.00000" pt_clust_9="21.28057"></scales>
<clustering>
<clus scale="   21.281">  1  9  2 -1</clus>
<clus scale="   79.825">  5  6 -1 -1</clus>
<clus scale="   88.241">  7  8 -1 -1</clus>
<clus scale="   99.926">  2  5  1 -1</clus>
<clus scale="   21.281">  1  5  2 -1</clus>
</clustering>
</event>
<event>
 9    2  0.5615294E-005  0.1214861E+03  0.7546771E-02  0.1243989E+00
          2   -1    0    0  502    0 -0.00000000000E+00  0.00000000000E+00  0.37057777581E+02  0.37057777581E+02  0.00000000000E+00 0. -1.
         21   -1    0    0  501  502  0.00000000000E+00 -0.00000000000E+00 -0.45755468078E+03  0.45755468078E+03  0.00000000000E+00 0.  1.
         23    2    1    2    0    0 -0.62419399570E+02 -0.43954303262E+02 -0.16644453586E+03  0.20462332017E+03  0.91316797051E+02 0.  0.
         24    2    1    2    0    0  0.56381627253E+02  0.65032473464E+02 -0.21148081078E+03  0.24210300886E+03  0.80508527974E+02 0.  0.
        -13    1    4    4    0    0  0.47241910689E+02  0.12680155978E+02 -0.16295299413E+03  0.17013601258E+03  0.00000000000E+00 0.  1.
         14    1    4    4    0    0  0.91397165635E+01  0.52352317486E+02 -0.48527816645E+02  0.71966996278E+02  0.00000000000E+00 0. -1.
        -11    1    3    3    0    0 -0.82401519468E+02 -0.16065154618E+02 -0.12822413590E+03  0.15326293952E+03  0.00000000000E+00 0.  1.
         11    1    3    3    0    0  0.19982119898E+02 -0.27889148644E+02 -0.38220399959E+02  0.51360380652E+02  0.00000000000E+00 0. -1.
          1    1    1    2  501    0  0.60377723175E+01 -0.21078170202E+02 -0.42571556562E+02  0.47886129325E+02  0.00000000000E+00 0. -1.
<scales pt_clust_5="13000.00000" pt_clust_6="13000.00000" pt_clust_7="13000.00000" pt_clust_8="13000.00000" pt_clust_9="21.92587"></scales>
<clustering>
<clus scale="   21.926">  2  9  1 -1</clus>
<clus scale="   80.509">  5  6 -1 -1</clus>
<clus scale="   91.317">  7  8 -1 -1</clus>
<clus scale="  113.586">  2  5  1 -1</clus>
<clus scale="   21.926">  2  5  1 -1</clus>
</clustering>
</event>
<event>
 9    2  0.5615294E-005  0.2069193E+03  0.7546771E-02  0.1154872E+00
         21   -1    0    0  501  502  0.00000000000E+00  0.00000000000E+00  0.63107860292E+02  0.63107860292E+02  0.00000000000E+00 0. -1.
          2   -1    0    0  502    0 -0.00000000000E+00 -0.00000000000E+00 -0.13538264036E+04  0.13538264036E+04  0.00000000000E+00 0. -1.
         24    2    1    2    0    0 -0.12578554513E+03 -0.58977622376E+02 -0.43672330359E+03  0.46510946635E+03  0.79367553117E+02 0.  0.
         23    2    1    2    0    0 -0.19897064437E+02  0.19643466068E+03 -0.38692609011E+03  0.44362065487E+03  0.90027868636E+02 0.  0.
        -11    1    3    3    0    0 -0.23380688271E+02  0.36337194697E+00 -0.16714070781E+02  0.28742804061E+02  0.00000000000E+00 0.  1.
         12    1    3    3    0    0 -0.10240485686E+03 -0.59340994323E+02 -0.42000923281E+03  0.43636666229E+03  0.00000000000E+00 0. -1.
        -11    1    4    4    0    0 -0.23062034358E+02  0.17469252808E+02 -0.19426305176E+02  0.34848436912E+02  0.00000000000E+00 0.  1.
         11    1    4    4    0    0  0.31649699209E+01  0.17896540787E+03 -0.36749978494E+03  0.40877221796E+03  0.00000000000E+00 0. -1.
          1    1    1    2  501    0  0.14568260956E+03 -0.13745703830E+03 -0.46706914960E+03  0.50820414266E+03  0.00000000000E+00 0. -1.
<scales pt_clust_5="13000.00000" pt_clust_6="13000.00000" pt_clust_7="13000.00000" pt_clust_8="13000.00000" pt_clust_9="186.30782"></scales>
<clustering>
<clus scale="   79.368">  5  6 -1 -1</clus>
<clus scale="   90.028">  7  8 -1 -1</clus>
<clus scale="  159.999">  2  5  1 -1</clus>
<clus scale="  186.308">  1  9  2 -1</clus>
<clus scale="  186.308">  1  5  2 -1</clus>
</clustering>
</event>
<event>
 9    2  0.5615294E-005  0.1650851E+03  0.7546771E-02  0.1184545E+00
          2   -1    0    0  502    0 -0.00000000000E+00  0.00000000000E+00  0.70867622867E+03  0.70867622867E+03  0.00000000000E+00 0. -1.
         21   -1    0    0  501  502  0.00000000000E+00 -0.00000000000E+00 -0.76322267219E+02  0.76322267219E+02  0.00000000000E+00 0.  1.
         24    2    1    2    0    0 -0.14076464284E+03 -0.47596264603E+02  0.37515960798E+03  0.41155522211E+03  0.80949862919E+02 0.  0.
         23    2    1    2    0    0  0.11822834033E+03  0.44000261437E+02  0.29256168319E+03  0.33135213240E+03  0.91038089354E+02 0.  0.
        -13    1    3    3    0    0 -0.28904938785E+02 -0.88980332599E+01  0.17776408877E+02  0.35080923514E+02  0.00000000000E+00 0.  1.
         14    1    3    3    0    0 -0.11185970405E+03 -0.38698231343E+02  0.35738319911E+03  0.37647429860E+03  0.00000000000E+00 0. -1.
        -11    1    4    4    0    0  0.74590834465E+02  0.60215724258E+02  0.25196241327E+03  0.26958261022E+03  0.00000000000E+00 0. -1.
         11    1    4    4    0    0  0.43637505861E+02 -0.16215462821E+02  0.40599269927E+02  0.61769522184E+02  0.00000000000E+00 0.  1.
          1    1    1    2  501    0  0.22536302514E+02  0.35960031660E+01 -0.35367329729E+02  0.42091141371E+02  0.00000000000E+00 0. -1.
<scales pt_clust_5="13000.00000" pt_clust_6="13000.00000" pt_clust_7="13000.00000" pt_clust_8="13000.00000" pt_clust_9="22.82140"></scales>
<clustering>
<clus scale="   22.821">  2  9  1 -1</clus>
<clus scale="   80.950">  5  6 -1 -1</clus>
<clus scale="   91.038">  7  8 -1 -1</clus>
<clus scale="  159.744">  1  5  2 -1</clus>
<clus scale="   22.821">  2  5  1 -1</clus>
</clustering>
</event>
<event>
 9    2  0.5615294E-005  0.1435408E+03  0.7546771E-02  0.1211110E+00
         21   -1    0    0  501  502  0.00000000000E+00  0.00000000000E+00  0.50028648641E+02  0.50028648641E+02  0.00000000000E+00 0. -1.
          2   -1    0    0  502    0 -0.00000000000E+00 -0.00000000000E+00 -0.11052161027E+04  0.11052161027E+04  0.00000000000E+00 0. -1.
         23    2    1    2    0    0  0.85721702087E+02 -0.92138528378E+02 -0.61880979686E+03  0.63816901804E+03  0.92175985298E+02 0.  0.
         24    2    1    2    0    0 -0.51130923833E+01  0.63546263068E+02 -0.37470973862E+02  0.10910293078E+03  0.80219102206E+02 0.  0.
        -11    1    4    4    0    0  0.19497053938E+02 -0.12080414674E+02 -0.84025267396E+01  0.24426911114E+02  0.00000000000E+00 0.  1.
         12    1    4    4    0    0 -0.24610146321E+02  0.75626677742E+02 -0.29068447122E+02  0.84676019665E+02  0.00000000000E+00 0. -1.
        -13    1    3    3    0    0 -0.11721252897E+02 -0.47257494437E+02 -0.18817779047E+03  0.19437473955E+03  0.00000000000E+00 0.  1.
         13    1    3    3    0    0  0.97442954984E+02 -0.44881033941E+02 -0.43063200640E+03  0.44379427849E+03  0.00000000000E+00 0. -1.
          1    1    1    2  501    0 -0.80608609704E+02  0.28592265310E+02 -0.39890668335E+03  0.40797280255E+03  0.00000000000E+00 0. -1.
<scales pt_clust_5="13000.00000" pt_clust_6="13000.00000" pt_clust_7="13000.00000" pt_clust_8="13000.00000" pt_clust_9="85.52937"></scales>
<clustering>
<clus scale="   80.219">  5  6 -1 -1</clus>
<clus scale="   85.529">  1  9  2 -1</clus>
<clus scale="   92.176">  7  8 -1 -1</clus>
<clus scale="  136.171">  1  5  2 -1</clus>
<clus scale="   85.529">  1  5  2 -1</clus>
</clustering>
</event>
<event>
 9    2  0.5615294E-005  0.1566906E+03  0.7546771E-02  0.1207880E+00
         21   -1    0    0  501  502  0.00000000000E+00  0.00000000000E+00  0.11382877110E+03  0.11382877110E+03  0.00000000000E+00 0. -1.
          2   -1    0    0  502    0 -0.00000000000E+00 -0.00000000000E+00 -0.56471177499E+03  0.56471177499E+03  0.00000000000E+00 0. -1.
         24    2    1    2    0    0 -0.42789834483E+02  0.65660658360E+02  0.28181174325E+02  0.11565241588E+03  0.80243446596E+02 0.  0.
         23    2    1    2    0    0 -0.60864609307E+02 -0.13287600121E+03 -0.27713841272E+03  0.32616854758E+03  0.90662501959E+02 0.  0.
        -11    1    3    3    0    0 -0.58749703913E+02  0.35867365053E+02 -0.40458406452E+01  0.68951899265E+02  0.00000000000E+00 0.  1.
         12    1    3    3    0    0  0.15959869431E+02  0.29793293307E+02  0.32227014971E+02  0.46700516616E+02  0.00000000000E+00 0. -1.
        -13    1    4    4    0    0 -0.26412945158E+02 -0.89486523740E+02 -0.24489181660E+03  0.26206389191E+03  0.00000000000E+00 0. -1.
         13    1    4    4    0    0 -0.34451664149E+02 -0.43389477472E+02 -0.32246596122E+02  0.64104655676E+02  0.00000000000E+00 0.  1.
          1    1    1    2  501    0  0.10365444379E+03  0.67215342852E+02 -0.20192576549E+03  0.23671958263E+03  0.00000000000E+00 0. -1.
<scales pt_clust_5="13000.00000" pt_clust_6="13000.00000" pt_clust_7="13000.00000" pt_clust_8="13000.00000" pt_clust_9="127.79768"></scales>
<clustering>
<clus scale="   80.243">  5  6 -1 -1</clus>
<clus scale="   90.663">  7  8 -1 -1</clus>
<clus scale="  112.166">  2  5  1 -1</clus>
<clus scale="  127.798">  1  9  2 -1</clus>
<clus scale="  127.798">  1  5  2 -1</clus>
</clustering>
</event>
<event>
 9    2  0.5615294E-005  0.9150890E+02  0.7546771E-02  0.1305454E+00
         21   -1    0    0  501  502  0.00000000000E+00  0.00000000000E+00  0.22321682205E+03  0.22321682205E+03  0.00000000000E+00 0. -1.
          2   -1    0    0  502    0 -0.00000000000E+00 -0.00000000000E+00 -0.14248958423E+03  0.14248958423E+03  0.00000000000E+00 0. -1.
         24    2    1    2    0    0 -0.91957402194E+00 -0.87103478673E+01 -0.80616094851E+02  0.11403190270E+03  0.80172341287E+02 0.  0.
         23    2    1    2    0    0 -0.42907580648E+02  0.31657649651E+02  0.26561999243E+02  0.10810080827E+03  0.90205197673E+02 0.  0.
        -13    1    3    3    0    0  0.31830035218E+02  0.16379558260E+02 -0.20903889510E+02  0.41453753358E+02  0.00000000000E+00 0.  1.
         14    1    3    3    0    0 -0.32749609240E+02 -0.25089906127E+02 -0.59712205341E+02  0.72578149340E+02  0.00000000000E+00 0. -1.
        -13    1    4    4    0    0 -0.41702403825E+01  0.53181567548E+02 -0.51717342696E+01  0.53594933222E+02  0.00000000000E+00 0.  1.
         13    1    4    4    0    0 -0.38737340266E+02 -0.21523917897E+02  0.31733733513E+02  0.54505875052E+02  0.00000000000E+00 0. -1.
          1    1    1    2  501    0  0.43827154670E+02 -0.22947301784E+02  0.13478133342E+03  0.14357369531E+03  0.00000000000E+00 0. -1.
<scales pt_clust_5="13000.00000" pt_clust_6="13000.00000" pt_clust_7="13000.00000" pt_clust_8="13000.00000" pt_clust_9="49.47119"></scales>
<clustering>
<clus scale="   49.471">  1  9  2 -1</clus>
<clus scale="   80.172">  5  6 -1 -1</clus>
<clus scale="   81.636">  2  5  1 -1</clus>
<clus scale="   90.205">  7  8 -1 -1</clus>
<clus scale="   49.471">  1  5  2 -1</clus>
</clustering>
</event>
<event>
 9    2  0.5615294E-005  0.1500907E+03  0.7546771E-02  0.1201673E+00
         21   -1    0    0  501  502  0.00000000000E+00  0.00000000000E+00  0.10416353646E+03  0.10416353646E+03  0.00000000000E+00 0.  1.
          2   -1    0    0  502    0 -0.00000000000E+00 -0.00000000000E+00 -0.57031554789E+03  0.57031554789E+03  0.00000000000E+00 0. -1.
         24    2    1    2    0    0 -0.12570136135E+03 -0.36643754528E+02 -0.43812320683E+03  0.46457809800E+03  0.82080861288E+02 0.  0.
         23    2    1    2    0    0  0.53666431895E+02  0.72186610372E+02 -0.75601280611E+01  0.12700772737E+03  0.89346598405E+02 0.  0.
        -13    1    3    3    0    0 -0.10626259702E+02 -0.33716036136E+02 -0.63607150202E+02  0.72770585024E+02  0.00000000000E+00 0.  1.
         14    1    3    3    0    0 -0.11507510165E+03 -0.29277183926E+01 -0.37451605663E+03  0.39180751298E+03  0.00000000000E+00 0. -1.
        -11    1    4    4    0    0  0.40293681424E+01  0.54858170277E+02  0.29753532002E+02  0.62537407369E+02  0.00000000000E+00 0.  1.
         11    1    4    4    0    0  0.49637063753E+02  0.17328440095E+02 -0.37313660063E+02  0.64470320004E+02  0.00000000000E+00 0. -1.
          1    1    1    2  501    0  0.72034929458E+02 -0.35542855844E+02 -0.20468676539E+02  0.82893258971E+02  0.00000000000E+00 0. -1.
<scales pt_clust_5="13000.00000" pt_clust_6="13000.00000" pt_clust_7="13000.00000" pt_clust_8="13000.00000" pt_clust_9="80.32637"></scales>
<clustering>
<clus scale="   80.326">  1  9  2 -1</clus>
<clus scale="   82.081">  5  6 -1 -1</clus>
<clus scale="   89.347">  7  8 -1 -1</clus>
<clus scale="  145.882">  2  5  1 -1</clus>
<clus scale="   80.326">  1  5  2 -1</clus>
</clustering>
</event>
<event>
 9    2  0.5615294E-005  0.1061304E+03  0.7546771E-02  0.1272900E+00
         21   -1    0    0  501  502  0.00000000000E+00  0.00000000000E+00  0.14226783558E+03  0.14226783558E+03  0.00000000000E+00 0. -1.
          4   -1    0    0  502    0 -0.00000000000E+00 -0.00000000000E+00 -0.18023119653E+03  0.18023119653E+03  0.00000000000E+00 0. -1.
         24    2    1    2    0    0 -0.65403034333E+02 -0.18419030996E+02 -0.88283723419E+02  0.13773820703E+03  0.80999878103E+02 0.  0.
         23    2    1    2    0    0  0.28235776551E+02  0.40148686195E+01 -0.24703720842E+02  0.99804965818E+02  0.92397938998E+02 0.  0.
        -11    1    3    3    0    0 -0.32825539519E+01 -0.39247088317E+02 -0.25010681466E+02  0.46654509849E+02  0.00000000000E+00 0.  1.
         12    1    3    3    0    0 -0.62120480381E+02  0.20828057320E+02 -0.63273041953E+02  0.91083697183E+02  0.00000000000E+00 0. -1.
        -13    1    4    4    0    0  0.42996850497E+02  0.33081943493E+02  0.65481942962E+01  0.54644514697E+02  0.00000000000E+00 0.  1.
         13    1    4    4    0    0 -0.14761073945E+02 -0.29067074873E+02 -0.31251915138E+02  0.45160451121E+02  0.00000000000E+00 0. -1.
          3    1    1    2  501    0  0.37167257782E+02  0.14404162377E+02  0.75024083313E+02  0.84955859255E+02  0.00000000000E+00 0. -1.
<scales pt_clust_5="13000.00000" pt_clust_6="13000.00000" pt_clust_7="13000.00000" pt_clust_8="13000.00000" pt_clust_9="39.86082"></scales>
<clustering>
<clus scale="   39.861">  1  9  2 -1</clus>
<clus scale="   81.000">  5  6 -1 -1</clus>
<clus scale="   92.398">  7  8 -1 -1</clus>
<clus scale="   96.371">  2  5  1 -1</clus>
<clus scale="   39.861">  1  5  2 -1</clus>
</clustering>
</event>
<event>
 9    2  0.5615294E-005  0.1927420E+03  0.7546771E-02  0.1183138E+00
          2   -1    0    0  502    0 -0.00000000000E+00  0.00000000000E+00  0.30062746271E+03  0.30062746271E+03  0.00000000000E+00 0. -1.
         21   -1    0    0  501  502  0.00000000000E+00 -0.00000000000E+00 -0.25791518019E+03  0.25791518019E+03  0.00000000000E+00 0. -1.
         23    2    1    2    0    0  0.18808796059E+02  0.46262029394E+02 -0.77113220828E+02  0.12913021007E+03  0.90742581810E+02 0.  0.
         24    2    1    2    0    0 -0.10759689738E+03  0.13039223883E+03 -0.20656608617E+02  0.18687319641E+03  0.76913378453E+02 0.  0.
        -11    1    4    4    0    0 -0.21793132167E+02 -0.63895320016E+01 -0.10685614564E+02  0.25098786574E+02  0.00000000000E+00 0.  1.
         12    1    4    4    0    0 -0.85803765211E+02  0.13678177083E+03 -0.99709940535E+01  0.16177440984E+03  0.00000000000E+00 0. -1.
        -11    1    3    3    0    0  0.15482732425E+02  0.72900150862E+02 -0.44162290704E+02  0.86628257048E+02  0.00000000000E+00 0. -1.
         11    1    3    3    0    0  0.33260636345E+01 -0.26638121468E+02 -0.32950930125E+02  0.42501953022E+02  0.00000000000E+00 0.  1.
          1    1    1    2  501    0  0.88788101319E+02 -0.17665426822E+03  0.14048211197E+03  0.24253923642E+03  0.00000000000E+00 0. -1.
<scales pt_clust_5="13000.00000" pt_clust_6="13000.00000" pt_clust_7="13000.00000" pt_clust_8="13000.00000" pt_clust_9="176.73095"></scales>
<clustering>
<clus scale="   76.913">  5  6 -1 -1</clus>
<clus scale="   90.743">  7  8 -1 -1</clus>
<clus scale="  103.577">  1  7  2 -1</clus>
<clus scale="  176.731">  2  9  1 -1</clus>
<clus scale="  176.731">  2  5  1 -1</clus>
</clustering>
</event>
<event>
 9    2  0.5615294E-005  0.9810974E+02  0.7546771E-02  0.1291762E+00
          2   -1    0    0  502    0 -0.00000000000E+00  0.00000000000E+00  0.82426677436E+03  0.82426677436E+03  0.00000000000E+00 0. -1.
         21   -1    0    0  501  502  0.00000000000E+00 -0.00000000000E+00 -0.51454645424E+02  0.51454645424E+02  0.00000000000E+00 0.  1.
         24    2    1    2    0    0  0.39954114266E+01 -0.24894448144E+02  0.65250288353E+03  0.65791609575E+03  0.80360930548E+02 0.  0.
         23    2    1    2    0    0 -0.24003943421E+02  0.47619751486E+02  0.14357570402E+03  0.17962013240E+03  0.93838047439E+02 0.  0.
        -13    1    3    3    0    0 -0.18948120159E+02  0.22449181238E+02  0.16626188482E+03  0.16883723327E+03  0.00000000000E+00 0.  1.
         14    1    3    3    0    0  0.22943531586E+02 -0.47343629382E+02  0.48624099872E+03  0.48907886247E+03  0.00000000000E+00 0. -1.
        -13    1    4    4    0    0 -0.31558356804E+02 -0.15834801070E+02  0.20202166279E+02  0.40679212523E+02  0.00000000000E+00 0. -1.
         13    1    4    4    0    0  0.75544133825E+01  0.63454552557E+02  0.12337353774E+03  0.13894091987E+03  0.00000000000E+00 0.  1.
          1    1    1    2  501    0  0.20008531995E+02 -0.22725303343E+02 -0.23266458612E+02  0.38185191644E+02  0.00000000000E+00 0. -1.
<scales pt_clust_5="13000.00000" pt_clust_6="13000.00000" pt_clust_7="13000.00000" pt_clust_8="13000.00000" pt_clust_9="30.27839"></scales>
<clustering>
<clus scale="   30.278">  2  9  1 -1</clus>
<clus scale="   80.361">  5  6 -1 -1</clus>
<clus scale="   85.310">  1  5  2 -1</clus>
<clus scale="   93.838">  7  8 -1 -1</clus>
<clus scale="   30.278">  2  5  1 -1</clus>
</clustering>
</event>
<event>
 9    2  0.5615294E-005  0.1950909E+03  0.7546771E-02  0.1190881E+00
          2   -1    0    0  502    0 -0.00000000000E+00  0.00000000000E+00  0.69151823329E+02  0.69151823329E+02  0.00000000000E+00 0. -1.
         21   -1    0    0  501  502  0.00000000000E+00 -0.00000000000E+00 -0.79732689200E+03  0.79732689200E+03  0.00000000000E+00 0. -1.
         24    2    1    2    0    0 -0.77774015822E+01  0.22842380447E+02 -0.11802744436E+03  0.14492535859E+03  0.80564381844E+02 0.  0.
         23    2    1    2    0    0 -0.96464329889E+01 -0.18693812816E+03 -0.25089139371E+03  0.32621041237E+03  0.91803182282E+02 0.  0.
        -11    1    3    3    0    0 -0.41307432296E+02  0.26074860905E+02 -0.55764504493E+02  0.74134218115E+02  0.00000000000E+00 0.  1.
         12    1    3    3    0    0  0.33530030714E+02 -0.32324804587E+01 -0.62262939865E+02  0.70791140479E+02  0.00000000000E+00 0. -1.
        -13    1    4    4    0    0 -0.41865966244E+02 -0.95353646485E+02 -0.86897272743E+02  0.13563264002E+03  0.00000000000E+00 0. -1.
         13    1    4    4    0    0  0.32219533256E+02 -0.91584481672E+02 -0.16399412096E+03  0.19057777236E+03  0.00000000000E+00 0.  1.
          1    1    1    2  501    0  0.17423834571E+02  0.16409574771E+03 -0.35925623061E+03  0.39534294436E+03  0.00000000000E+00 0. -1.
<scales pt_clust_5="13000.00000" pt_clust_6="13000.00000" pt_clust_7="13000.00000" pt_clust_8="13000.00000" pt_clust_9="172.14134"></scales>
<clustering>
<clus scale="   80.564">  5  6 -1 -1</clus>
<clus scale="   84.100">  1  5  2 -1</clus>
<clus scale="   91.803">  7  8 -1 -1</clus>
<clus scale="  172.141">  2  9  1 -1</clus>
<clus scale="  172.141">  2  5  1 -1</clus>
</clustering>
</event>
<event>
 9    2  0.5615294E-005  0.9816458E+02  0.7546771E-02  0.1290718E+00
         21   -1    0    0  501  502  0.00000000000E+00  0.00000000000E+00  0.24379027084E+02  0.24379027084E+02  0.00000000000E+00 0.  1.
          2   -1    0    0  502    0 -0.00000000000E+00 -0.00000000000E+00 -0.60417477384E+03  0.60417477384E+03  0.00000000000E+00 0. -1.
         24    2    1    2    0    0  0.12256729258E+02  0.10803634540E+02 -0.17717338877E+03  0.19507042922E+03  0.79969473775E+02 0.  0.
         23    2    1    2    0    0 -0.65269360348E+00 -0.60042397556E+02 -0.26976187999E+03  0.29131791866E+03  0.92136541732E+02 0.  0.
        -11    1    3    3    0    0  0.15254845517E+02  0.42272090896E+02 -0.13554075203E+03  0.14279683275E+03  0.00000000000E+00 0.  1.
         12    1    3    3    0    0 -0.29981162590E+01 -0.31468456356E+02 -0.41632636733E+02  0.52273596469E+02  0.00000000000E+00 0. -1.
        -11    1    4    4    0    0  0.41389967748E+02 -0.44930691711E+02 -0.11476942003E+03  0.13001506167E+03  0.00000000000E+00 0.  1.
         11    1    4    4    0    0 -0.42042661351E+02 -0.15111705845E+02 -0.15499245996E+03  0.16130285699E+03  0.00000000000E+00 0. -1.
          1    1    1    2  501    0 -0.11604035655E+02  0.49238763016E+02 -0.13286047800E+03  0.14216545305E+03  0.00000000000E+00 0. -1.
<scales pt_clust_5="13000.00000" pt_clust_6="13000.00000" pt_clust_7="13000.00000" pt_clust_8="13000.00000" pt_clust_9="50.58767"></scales>
<clustering>
<clus scale="   50.588">  1  9  2 -1</clus>
<clus scale="   79.969">  5  6 -1 -1</clus>
<clus scale="   86.846">  2  5  1 -1</clus>
<clus scale="   92.137">  7  8 -1 -1</clus>
<clus scale="   50.588">  1  5  2 -1</clus>
</clustering>
</event>
<event>
 9    2  0.5615294E-005  0.1441881E+03  0.7546771E-02  0.1210132E+00
          2   -1    0    0  502    0 -0.00000000000E+00  0.00000000000E+00  0.28461943181E+03  0.28461943181E+03  0.00000000000E+00 0. -1.
         21   -1    0    0  501  502  0.00000000000E+00 -0.00000000000E+00 -0.91563795163E+02  0.91563795163E+02  0.00000000000E+00 0. -1.
         23    2    1    2    0    0  0.36356464561E+02  0.11483367047E+03  0.15756149189E+03  0.21790457877E+03  0.90267476608E+02 0.  0.
         24    2    1    2    0    0 -0.41132906286E+02 -0.91715220087E+02  0.41040782118E+02  0.13402906410E+03  0.78586555155E+02 0.  0.
        -13    1    4    4    0    0  0.23680930640E+02 -0.25470609935E+02  0.84753118983E+01  0.35796219887E+02  0.00000000000E+00 0.  1.
         14    1    4    4    0    0 -0.64813836926E+02 -0.66244610151E+02  0.32565470220E+02  0.98232844211E+02  0.00000000000E+00 0. -1.
        -11    1    3    3    0    0 -0.20314546253E+02  0.35574915719E+02  0.11900618314E+02  0.42660053142E+02  0.00000000000E+00 0.  1.
         11    1    3    3    0    0  0.56671010814E+02  0.79258754747E+02  0.14566087357E+03  0.17524452562E+03  0.00000000000E+00 0. -1.
          1    1    1    2  501    0  0.47764417251E+01 -0.23118450380E+02 -0.55466373574E+01  0.24249584110E+02  0.00000000000E+00 0. -1.
<scales pt_clust_5="13000.00000" pt_clust_6="13000.00000" pt_clust_7="13000.00000" pt_clust_8="13000.00000" pt_clust_9="23.60672"></scales>
<clustering>
<clus scale="   23.607">  2  9  1 -1</clus>
<clus scale="   78.587">  5  6 -1 -1</clus>
<clus scale="   90.267">  7  8 -1 -1</clus>
<clus scale="  137.178">  2  5  1 -1</clus>
<clus scale="   23.607">  2  5  1 -1</clus>
</clustering>
</event>
<event>
 9    2  0.5615294E-005  0.1435191E+03  0.7546771E-02  0.1223475E+00
         21   -1    0    0  501  502  0.00000000000E+00  0.00000000000E+00  0.53290490271E+03  0.53290490271E+03  0.00000000000E+00 0. -1.
          2   -1    0    0  502    0 -0.00000000000E+00 -0.00000000000E+00 -0.12223595092E+03  0.12223595092E+03  0.00000000000E+00 0. -1.
         23    2    1    2    0    0 -0.29236975650E+02  0.38541444052E+02  0.19089091854E+03  0.21784246108E+03  0.93143713780E+02 0.  0.
         24    2    1    2    0    0 -0.83486969166E+02  0.10240450969E+02 -0.59935800617E+02  0.13180503768E+03  0.81886060502E+02 0.  0.
        -13    1    4    4    0    0 -0.45625622098E+02 -0.26222467628E+02 -0.59236916621E+02  0.79235897743E+02  0.00000000000E+00 0.  1.
         14    1    4    4    0    0 -0.37861347068E+02  0.36462918597E+02 -0.69888399524E+00  0.52569139933E+02  0.00000000000E+00 0. -1.
        -11    1    3    3    0    0 -0.47968012747E+01  0.59826364810E+02  0.16734623162E+03  0.17778347636E+03  0.00000000000E+00 0. -1.
         11    1    3    3    0    0 -0.24440174375E+02 -0.21284920758E+02  0.23544686915E+02  0.40058984724E+02  0.00000000000E+00 0.  1.
          1    1    1    2  501    0  0.11272394482E+03 -0.48781895021E+02  0.27971383386E+03  0.30549335487E+03  0.00000000000E+00 0. -1.
<scales pt_clust_5="13000.00000" pt_clust_6="13000.00000" pt_clust_7="13000.00000" pt_clust_8="13000.00000" pt_clust_9="117.86603"></scales>
<clustering>
<clus scale="   81.886">  5  6 -1 -1</clus>
<clus scale="   93.144">  7  8 -1 -1</clus>
<clus scale="  104.957">  2  7  1 -1</clus>
<clus scale="  117.866">  1  9  2 -1</clus>
<clus scale="  117.866">  1  5  2 -1</clus>
</clustering>
</event>
<event>
 9    2  0.5615294E-005  0.2140500E+03  0.7546771E-02  0.1145205E+00
         -3   -1    0    0    0  501 -0.00000000000E+00  0.00000000000E+00  0.76338355205E+03  0.76338355205E+03  0.00000000000E+00 0.  1.
         21   -1    0    0  501  502  0.00000000000E+00 -0.00000000000E+00 -0.18949828021E+03  0.18949828021E+03  0.00000000000E+00 0.  1.
         23    2    1    2    0    0  0.93285748363E+02 -0.12612778877E+03  0.82501403399E+02  0.19958543983E+03  0.91746478310E+02 0.  0.
         24    2    1    2    0    0  0.11735497580E+03  0.13826186682E+03  0.50430733984E+03  0.54191104139E+03  0.80331498202E+02 0.  0.
        -13    1    4    4    0    0  0.11593144664E+03  0.10461649946E+03  0.46295331664E+03  0.48858007089E+03  0.00000000000E+00 0.  1.
         14    1    4    4    0    0  0.14235291598E+01  0.33645367360E+02  0.41354023194E+02  0.53330970499E+02  0.00000000000E+00 0. -1.
        -11    1    3    3    0    0  0.14344719640E+02 -0.25620437045E+02 -0.20192529958E+02  0.35635881384E+02  0.00000000000E+00 0.  1.
         11    1    3    3    0    0  0.78941028723E+02 -0.10050735172E+03  0.10269393336E+03  0.16394955845E+03  0.00000000000E+00 0. -1.
         -4    1    1    2    0  502 -0.21064072416E+03 -0.12134078057E+02 -0.12923471397E+02  0.21138535105E+03  0.00000000000E+00 0.  1.
<scales pt_clust_5="13000.00000" pt_clust_6="13000.00000" pt_clust_7="13000.00000" pt_clust_8="13000.00000" pt_clust_9="198.40427"></scales>
<clustering>
<clus scale="   80.331">  5  6 -1 -1</clus>
<clus scale="   91.746">  7  8 -1 -1</clus>
<clus scale="  181.736">  1  7  2 -1</clus>
<clus scale="  198.404">  2  9  1 -1</clus>
<clus scale="  198.404">  2  5  1 -1</clus>
</clustering>
</event>
<event>
 9    2  0.5615294E-005  0.1311029E+03  0.7546771E-02  0.1228782E+00
         21   -1    0    0  501  502  0.00000000000E+00  0.00000000000E+00  0.11795555977E+03  0.11795555977E+03  0.00000000000E+00 0. -1.
          2   -1    0    0  502    0 -0.00000000000E+00 -0.00000000000E+00 -0.11351495311E+04  0.11351495311E+04  0.00000000000E+00 0. -1.
         24    2    1    2    0    0 -0.70843693592E+02 -0.90024420088E+02 -0.88316454247E+03  0.89401639036E+03  0.78501414100E+02 0.  0.
         23    2    1    2    0    0  0.28507507755E+02  0.45476197935E+02 -0.22558173084E+03  0.24882211108E+03  0.90247233177E+02 0.  0.
        -11    1    3    3    0    0 -0.34147507819E+02 -0.16303523610E+02 -0.10696730228E+03  0.11346303772E+03  0.00000000000E+00 0.  1.
         12    1    3    3    0    0 -0.36696185774E+02 -0.73720896478E+02 -0.77619724020E+03  0.78055335264E+03  0.00000000000E+00 0. -1.
        -11    1    4    4    0    0  0.27371804177E+02 -0.26047557751E+01 -0.12187840289E+02  0.30075635778E+02  0.00000000000E+00 0.  1.
         11    1    4    4    0    0  0.11357035779E+01  0.48080953710E+02 -0.21339389055E+03  0.21874647530E+03  0.00000000000E+00 0. -1.
          1    1    1    2  501    0  0.42336185838E+02  0.44548222153E+02  0.91552302031E+02  0.11026658939E+03  0.00000000000E+00 0. -1.
<scales pt_clust_5="13000.00000" pt_clust_6="13000.00000" pt_clust_7="13000.00000" pt_clust_8="13000.00000" pt_clust_9="61.45646"></scales>
<clustering>
<clus scale="   61.456">  1  9  2 -1</clus>
<clus scale="   78.501">  5  6 -1 -1</clus>
<clus scale="   90.247">  7  8 -1 -1</clus>
<clus scale="  123.312">  2  5  1 -1</clus>
<clus scale="   61.456">  1  5  2 -1</clus>
</clustering>
</event>
<event>
 9    2  0.5615294E-005  0.1056295E+03  0.7546771E-02  0.1271844E+00
         -3   -1    0    0    0  501 -0.00000000000E+00  0.00000000000E+00  0.24521951474E+03  0.24521951474E+03  0.00000000000E+00 0.  1.
         21   -1    0    0  501  502  0.00000000000E+00 -0.00000000000E+00 -0.18038881146E+03  0.18038881146E+03  0.00000000000E+00 0. -1.
         24    2    1    2    0    0 -0.18743670673E+02  0.52467990611E+02  0.19614839545E+03  0.21953026673E+03  0.81333447874E+02 0.  0.
         23    2    1    2    0    0  0.13227781700E+02 -0.73963530121E+02 -0.58508210189E+02  0.12996167546E+03  0.88437822414E+02 0.  0.
        -11    1    3    3    0    0 -0.37587385582E+02  0.40508156300E+02  0.18770088274E+03  0.19566640913E+03  0.00000000000E+00 0.  1.
         12    1    3    3    0    0  0.18843714909E+02  0.11959834311E+02  0.84475127096E+01  0.23863857595E+02  0.00000000000E+00 0. -1.
        -13    1    4    4    0    0 -0.22094822872E+02 -0.21761442976E+02  0.13881680758E+02  0.33977090205E+02  0.00000000000E+00 0.  1.
         13    1    4    4    0    0  0.35322604573E+02 -0.52202087145E+02 -0.72389890947E+02  0.95984585259E+02  0.00000000000E+00 0. -1.
         -4    1    1    2    0  502  0.55158889724E+01  0.21495539510E+02 -0.72809481972E+02  0.76116384011E+02  0.00000000000E+00 0.  1.
<scales pt_clust_5="13000.00000" pt_clust_6="13000.00000" pt_clust_7="13000.00000" pt_clust_8="13000.00000" pt_clust_9="22.19196"></scales>
<clustering>
<clus scale="   22.192">  2  9  1 -1</clus>
<clus scale="   81.333">  5  6 -1 -1</clus>
<clus scale="   88.438">  7  8 -1 -1</clus>
<clus scale="   99.757">  1  5  2 -1</clus>
<clus scale="   22.192">  2  5  1 -1</clus>
</clustering>
</event>
<event>
 9    2  0.5615294E-005  0.1249841E+03  0.7546771E-02  0.1236717E+00
          4   -1    0    0  502    0 -0.00000000000E+00  0.00000000000E+00  0.52555609355E+03  0.52555609355E+03  0.00000000000E+00 0. -1.
         21   -1    0    0  501  502  0.00000000000E+00 -0.00000000000E+00 -0.10311288881E+03  0.10311288881E+03  0.00000000000E+00 0.  1.
         24    2    1    2    0    0  0.22285939908E+02 -0.72434068406E+02  0.36346366979E+03  0.38359473926E+03  0.96414352422E+02 0.  0.
         23    2    1    2    0    0  0.20291563705E+02  0.98426659117E+02  0.10932863398E+03  0.17419765770E+03  0.91063268984E+02 0.  0.
        -11    1    3    3    0    0 -0.22950740350E+01  0.23251384370E+02  0.83717740322E+02  0.86916938997E+02  0.00000000000E+00 0.  1.
         12    1    3    3    0    0  0.24581013943E+02 -0.95685452776E+02  0.27974592946E+03  0.29667780027E+03  0.00000000000E+00 0. -1.
        -13    1    4    4    0    0 -0.14079386554E+02  0.83924328986E+02  0.10714745488E+03  0.13682872216E+03  0.00000000000E+00 0. -1.
         13    1    4    4    0    0  0.34370950259E+02  0.14502330131E+02  0.21811790980E+01  0.37368935537E+02  0.00000000000E+00 0.  1.
          3    1    1    2  501    0 -0.42577503612E+02 -0.25992590711E+02 -0.50349099026E+02  0.70876585403E+02  0.00000000000E+00 0. -1.
<scales pt_clust_5="13000.00000" pt_clust_6="13000.00000" pt_clust_7="13000.00000" pt_clust_8="13000.00000" pt_clust_9="49.88445"></scales>
<clustering>
<clus scale="   49.884">  2  9  1 -1</clus>
<clus scale="   91.063">  7  8 -1 -1</clus>
<clus scale="   96.414">  5  6 -1 -1</clus>
<clus scale="  120.904">  2  7  1 -1</clus>
<clus scale="   49.884">  2  5  1 -1</clus>
</clustering>
</event>
<event>
 9    2  0.5615294E-005  0.9605404E+02  0.7546771E-02  0.1294584E+00
          2   -1    0    0  502    0 -0.00000000000E+00  0.00000000000E+00  0.73171459313E+03  0.73171459313E+03  0.00000000000E+00 0. -1.
         21   -1    0    0  501  502  0.00000000000E+00 -0.00000000000E+00 -0.34481623566E+02  0.34481623566E+02  0.00000000000E+00 0. -1.
         24    2    1    2    0    0 -0.40534981226E+00 -0.37974960194E+02  0.58448396270E+03  0.59115904619E+03  0.80032826507E+02 0.  0.
         23    2    1    2    0    0 -0.82527944390E+00 -0.51983169651E+01  0.74646197871E+02  0.11744142100E+03  0.90513694675E+02 0.  0.
        -11    1    3    3    0    0  0.12786643870E+02 -0.36882901343E+02  0.11417621820E+03  0.12066505490E+03  0.00000000000E+00 0.  1.
         12    1    3    3    0    0 -0.13191993683E+02 -0.10920588509E+01  0.47030774451E+03  0.47049399128E+03  0.00000000000E+00 0. -1.
        -13    1    4    4    0    0 -0.17528005740E+02  0.36425488171E+02  0.15682644953E+02  0.43358880595E+02  0.00000000000E+00 0.  1.
         13    1    4    4    0    0  0.16702726296E+02 -0.41623805136E+02  0.58963552918E+02  0.74082540403E+02  0.00000000000E+00 0. -1.
          1    1    1    2  501    0  0.12306292562E+01  0.43173277159E+02  0.38102808984E+02  0.57595749509E+02  0.00000000000E+00 0. -1.
<scales pt_clust_5="13000.00000" pt_clust_6="13000.00000" pt_clust_7="13000.00000" pt_clust_8="13000.00000" pt_clust_9="43.19081"></scales>
<clustering>
<clus scale="   43.191">  2  9  1 -1</clus>
<clus scale="   80.033">  5  6 -1 -1</clus>
<clus scale="   86.249">  1  5  2 -1</clus>
<clus scale="   90.514">  7  8 -1 -1</clus>
<clus scale="   43.191">  2  5  1 -1</clus>
</clustering>
</event>
<event>
 9    2  0.5615294E-005  0.1154578E+03  0.7546771E-02  0.1254196E+00
         21   -1    0    0  501  502  0.00000000000E+00  0.00000000000E+00  0.40936818830E+02  0.40936818830E+02  0.00000000000E+00 0.  1.
          2   -1    0    0  502    0 -0.00000000000E+00 -0.00000000000E+00 -0.67977103115E+03  0.67977103115E+03  0.00000000000E+00 0. -1.
         24    2    1    2    0    0  0.88000997172E+02 -0.51071770329E+02 -0.38975493781E+03  0.41096292195E+03  0.81419349323E+02 0.  0.
         23    2    1    2    0    0 -0.69195955487E+01  0.19527322206E+02 -0.98520371117E+02  0.13585637381E+03  0.91222221335E+02 0.  0.
        -11    1    3    3    0    0  0.98239100175E+02 -0.27555398248E+02 -0.27348599180E+03  0.29189862707E+03  0.00000000000E+00 0.  1.
         12    1    3    3    0    0 -0.10238103003E+02 -0.23516372081E+02 -0.11626894601E+03  0.11906429488E+03  0.00000000000E+00 0. -1.
        -11    1    4    4    0    0 -0.14170099704E+02 -0.34616010487E+02 -0.28372166375E+02  0.46947201540E+02  0.00000000000E+00 0.  1.
         11    1    4    4    0    0  0.72505041550E+01  0.54143332693E+02 -0.70148204743E+02  0.88909172273E+02  0.00000000000E+00 0. -1.
          1    1    1    2  501    0 -0.81081401623E+02  0.31544448123E+02 -0.15055890339E+03  0.17388855422E+03  0.00000000000E+00 0. -1.
<scales pt_clust_5="13000.00000" pt_clust_6="13000.00000" pt_clust_7="13000.00000" pt_clust_8="13000.00000" pt_clust_9="87.00141"></scales>
<clustering>
<clus scale="   81.419">  5  6 -1 -1</clus>
<clus scale="   87.001">  1  9  2 -1</clus>
<clus scale="   91.222">  7  8 -1 -1</clus>
<clus scale="  107.880">  2  5  1 -1</clus>
<clus scale="   87.001">  1  5  2 -1</clus>
</clustering>
</event>
<event>
 9    2  0.5615294E-005  0.9684358E+02  0.7546771E-02  0.1295251E+00
          2   -1    0    0  502    0 -0.00000000000E+00  0.00000000000E+00  0.62491625019E+03  0.62491625019E+03  0.00000000000E+00 0. -1.
         21   -1    0    0  501  502  0.00000000000E+00 -0.00000000000E+00 -0.20316302799E+02  0.20316302799E+02  0.00000000000E+00 0. -1.
         23    2    1    2    0    0 -0.11519701974E+02  0.40620485540E+02  0.38111328468E+03  0.39405562494E+03  0.90828257788E+02 0.  0.
         24    2    1    2    0    0  0.15642256078E+02 -0.13064108166E+02  0.11632864262E+03  0.14045569857E+03  0.76026962779E+02 0.  0.
        -11    1    4    4    0    0 -0.25926080311E+02 -0.23086855292E+01  0.80273881119E+02  0.84388314707E+02  0.00000000000E+00 0.  1.
         12    1    4    4    0    0  0.41568336389E+02 -0.10755422637E+02  0.36054761501E+02  0.56067383862E+02  0.00000000000E+00 0. -1.
        -11    1    3    3    0    0 -0.22615651236E+02  0.66710277468E+02  0.24004642316E+03  0.25016797172E+03  0.00000000000E+00 0. -1.
         11    1    3    3    0    0  0.11095949262E+02 -0.26089791928E+02  0.14106686151E+03  0.14388765322E+03  0.00000000000E+00 0.  1.
          1    1    1    2  501    0 -0.41225541038E+01 -0.27556377374E+02  0.10715802010E+03  0.11072122948E+03  0.00000000000E+00 0. -1.
<scales pt_clust_5="13000.00000" pt_clust_6="13000.00000" pt_clust_7="13000.00000" pt_clust_8="13000.00000" pt_clust_9="27.86306"></scales>
<clustering>
<clus scale="   27.863">  2  9  1 -1</clus>
<clus scale="   76.027">  5  6 -1 -1</clus>
<clus scale="   83.120">  2  5  1 -1</clus>
<clus scale="   90.828">  7  8 -1 -1</clus>
<clus scale="   27.863">  2  5  1 -1</clus>
</clustering>
</event>
<event>
 9    2  0.5615294E-005  0.9731020E+02  0.7546771E-02  0.1291196E+00
          2   -1    0    0  502    0 -0.00000000000E+00  0.00000000000E+00  0.38076608394E+03  0.38076608394E+03  0.00000000000E+00 0. -1.
         21   -1    0    0  501  502  0.00000000000E+00 -0.00000000000E+00 -0.62083157576E+02  0.62083157576E+02  0.00000000000E+00 0. -1.
         23    2    1    2    0    0  0.48628192431E+02 -0.10318020625E+02  0.21656226210E+03  0.23974055278E+03  0.90028643406E+02 0.  0.
         24    2    1    2    0    0 -0.17546309263E+02  0.20795554975E+02  0.13322793149E+03  0.15790333218E+03  0.80271118789E+02 0.  0.
        -11    1    4    4    0    0  0.28385919875E+02 -0.23286000571E+01  0.74958534268E+02  0.80187060584E+02  0.00000000000E+00 0.  1.
         12    1    4    4    0    0 -0.45932229138E+02  0.23124155032E+02  0.58269397217E+02  0.77716271601E+02  0.00000000000E+00 0. -1.
        -13    1    3    3    0    0  0.57499868769E+02 -0.33221060417E+02  0.19832875440E+03  0.20915106642E+03  0.00000000000E+00 0.  1.
         13    1    3    3    0    0 -0.88716763381E+01  0.22903039792E+02  0.18233507703E+02  0.30589486362E+02  0.00000000000E+00 0. -1.
          1    1    1    2  501    0 -0.31081883168E+02 -0.10477534350E+02 -0.31107267219E+02  0.45205356553E+02  0.00000000000E+00 0. -1.
<scales pt_clust_5="13000.00000" pt_clust_6="13000.00000" pt_clust_7="13000.00000" pt_clust_8="13000.00000" pt_clust_9="32.80034"></scales>
<clustering>
<clus scale="   32.800">  2  9  1 -1</clus>
<clus scale="   80.271">  5  6 -1 -1</clus>
<clus scale="   88.360">  2  5  1 -1</clus>
<clus scale="   90.029">  7  8 -1 -1</clus>
<clus scale="   32.800">  2  5  1 -1</clus>
</clustering>
</event>
<event>
 9    2  0.5615294E-005  0.1003700E+03  0.7546771E-02  0.1283252E+00
          2   -1    0    0  502    0 -0.00000000000E+00  0.00000000000E+00  0.97019964413E+03  0.97019964413E+03  0.00000000000E+00 0. -1.
         21   -1    0    0  501  502  0.00000000000E+00 -0.00000000000E+00 -0.25033548350E+02  0.25033548350E+02  0.00000000000E+00 0.  1.
         24    2    1    2    0    0  0.32780562460E+02  0.30778479363E+02  0.68831567248E+03  0.69472637329E+03  0.82730820725E+02 0.  0.
         23    2    1    2    0    0  0.64342079811E+01 -0.54359533064E+02  0.14314892111E+03  0.17794297495E+03  0.90419748126E+02 0.  0.
        -11    1    3    3    0    0 -0.15226410521E+02  0.40177268643E+02  0.24715500632E+03  0.25086182182E+03  0.00000000000E+00 0.  1.
         12    1    3    3    0    0  0.48006972982E+02 -0.93987892793E+01  0.44116066615E+03  0.44386455147E+03  0.00000000000E+00 0. -1.
        -13    1    4    4    0    0 -0.90687088351E+01 -0.72791769137E+02  0.71828514357E+02  0.10266556681E+03  0.00000000000E+00 0.  1.
         13    1    4    4    0    0  0.15502916816E+02  0.18432236073E+02  0.71320406749E+02  0.75277408133E+02  0.00000000000E+00 0. -1.
          1    1    1    2  501    0 -0.39214770441E+02  0.23581053701E+02  0.11370150220E+03  0.12256384424E+03  0.00000000000E+00 0. -1.
<scales pt_clust_5="13000.00000" pt_clust_6="13000.00000" pt_clust_7="13000.00000" pt_clust_8="13000.00000" pt_clust_9="45.75876"></scales>
<clustering>
<clus scale="   45.759">  2  9  1 -1</clus>
<clus scale="   82.731">  5  6 -1 -1</clus>
<clus scale="   90.420">  7  8 -1 -1</clus>
<clus scale="   93.503">  1  5  2 -1</clus>
<clus scale="   45.759">  2  5  1 -1</clus>
</clustering>
</event>
<event>
 9    2  0.5615294E-005  0.9062528E+02  0.7546771E-02  0.1306534E+00
         21   -1    0    0  501  502  0.00000000000E+00  0.00000000000E+00  0.57147002029E+03  0.57147002029E+03  0.00000000000E+00 0. -1.
          4   -1    0    0  502    0 -0.00000000000E+00 -0.00000000000E+00 -0.83013775608E+02  0.83013775608E+02  0.00000000000E+00 0. -1.
         23    2    1    2    0    0 -0.80984745883E+01 -0.37917975628E+02  0.11124907401E+02  0.99093326121E+02  0.90511687371E+02 0.  0.
         24    2    1    2    0    0 -0.35042771998E+01 -0.27647560152E+02  0.14839895712E+02  0.88130588280E+02  0.82280681480E+02 0.  0.
        -11    1    4    4    0    0 -0.22708682971E+02 -0.89961198215E+01  0.42888831050E+02  0.49356522193E+02  0.00000000000E+00 0.  1.
         12    1    4    4    0    0  0.19204405771E+02 -0.18651440330E+02 -0.28048935337E+02  0.38774066088E+02  0.00000000000E+00 0. -1.
        -13    1    3    3    0    0 -0.15846304152E+02  0.20362384384E+02 -0.19929756033E+02  0.32602564755E+02  0.00000000000E+00 0.  1.
         13    1    3    3    0    0  0.77478295633E+01 -0.58280360012E+02  0.31054663434E+02  0.66490761366E+02  0.00000000000E+00 0. -1.
          3    1    1    2  501    0  0.11602751788E+02  0.65565535780E+02  0.46249144157E+03  0.46725988150E+03  0.00000000000E+00 0. -1.
<scales pt_clust_5="13000.00000" pt_clust_6="13000.00000" pt_clust_7="13000.00000" pt_clust_8="13000.00000" pt_clust_9="66.58426"></scales>
<clustering>
<clus scale="   66.584">  1  9  2 -1</clus>
<clus scale="   82.281">  5  6 -1 -1</clus>
<clus scale="   82.406">  1  5  2 -1</clus>
<clus scale="   90.512">  7  8 -1 -1</clus>
<clus scale="   66.584">  1  5  2 -1</clus>
</clustering>
</event>
<event>
 9    2  0.5615294E-005  0.9597405E+02  0.7546771E-02  0.1292737E+00
         -1   -1    0    0    0  501 -0.00000000000E+00  0.00000000000E+00  0.45492225545E+03  0.45492225545E+03  0.00000000000E+00 0.  1.
         21   -1    0    0  501  502  0.00000000000E+00 -0.00000000000E+00 -0.50731339084E+02  0.50731339084E+02  0.00000000000E+00 0.  1.
         24    2    1    2    0    0  0.33330117235E+02 -0.33053707853E+02  0.14030350238E+03  0.17211789587E+03  0.87954834887E+02 0.  0.
         23    2    1    2    0    0  0.69599168794E+01 -0.54053821965E+02  0.11726442486E+03  0.15829497983E+03  0.91302240870E+02 0.  0.
        -13    1    3    3    0    0  0.63591717604E+02 -0.23803824720E+02  0.91193626870E+02  0.11369611339E+03  0.00000000000E+00 0.  1.
         14    1    3    3    0    0 -0.30261600369E+02 -0.92498831330E+01  0.49109875509E+02  0.58421782474E+02  0.00000000000E+00 0. -1.
        -11    1    4    4    0    0  0.21465558216E+02  0.20105136665E+02  0.22154708091E+02  0.36821431266E+02  0.00000000000E+00 0.  1.
         11    1    4    4    0    0 -0.14505641336E+02 -0.74158958630E+02  0.95109716770E+02  0.12147354856E+03  0.00000000000E+00 0. -1.
         -2    1    1    2    0  502 -0.40290034115E+02  0.87107529818E+02  0.14662298912E+03  0.17524071884E+03  0.00000000000E+00 0.  1.
<scales pt_clust_5="13000.00000" pt_clust_6="13000.00000" pt_clust_7="13000.00000" pt_clust_8="13000.00000" pt_clust_9="95.97405"></scales>
<clustering>
<clus scale="   87.955">  5  6 -1 -1</clus>
<clus scale="   91.302">  7  8 -1 -1</clus>
<clus scale="   95.974">  2  9  1 -1</clus>
<clus scale="   89.490">  1  5  2 -1</clus>
<clus scale="   95.974">  2  5  1 -1</clus>
</clustering>
</event>
<event>
 9    2  0.5615294E-005  0.1504661E+03  0.7546771E-02  0.1200634E+00
         -3   -1    0    0    0  501 -0.00000000000E+00  0.00000000000E+00  0.11045842617E+04  0.11045842617E+04  0.00000000000E+00 0.  1.
         21   -1    0    0  501  502  0.00000000000E+00 -0.00000000000E+00 -0.30146325741E+02  0.30146325741E+02  0.00000000000E+00 0. -1.
         24    2    1    2    0    0  0.43197230626E+02 -0.10381077394E+03  0.56224834013E+03  0.57998278790E+03  0.87259158612E+02 0.  0.
         23    2    1    2    0    0 -0.84030090122E+01  0.13693433709E+03  0.40834537126E+03  0.44033000691E+03  0.91230200739E+02 0.  0.
        -11    1    3    3    0    0  0.62516863900E+02 -0.37765913785E+02  0.31311607177E+03  0.32152184517E+03  0.00000000000E+00 0.  1.
         12    1    3    3    0    0 -0.19319633274E+02 -0.66044860155E+02  0.24913226836E+03  0.25846094273E+03  0.00000000000E+00 0. -1.
        -11    1    4    4    0    0 -0.34443753209E+02  0.13211201440E+03  0.36288119912E+03  0.38771474200E+03  0.00000000000E+00 0.  1.
         11    1    4    4    0    0  0.26040744197E+02  0.48223226860E+01  0.45464172136E+02  0.52615264919E+02  0.00000000000E+00 0. -1.
         -4    1    1    2    0  502 -0.34794221613E+02 -0.33123563147E+02  0.10384422458E+03  0.11441779263E+03  0.00000000000E+00 0.  1.
<scales pt_clust_5="13000.00000" pt_clust_6="13000.00000" pt_clust_7="13000.00000" pt_clust_8="13000.00000" pt_clust_9="48.03965"></scales>
<clustering>
<clus scale="   48.040">  2  9  1 -1</clus>
<clus scale="   87.259">  5  6 -1 -1</clus>
<clus scale="   91.230">  7  8 -1 -1</clus>
<clus scale="  148.092">  1  5  2 -1</clus>
<clus scale="   48.040">  2  5  1 -1</clus>
</clustering>
</event>
<event>
 9    2  0.5615294E-005  0.9623696E+02  0.7546771E-02  0.1295886E+00
          4   -1    0    0  502    0 -0.00000000000E+00  0.00000000000E+00  0.96525412500E+02  0.96525412500E+02  0.00000000000E+00 0. -1.
         21   -1    0    0  501  502  0.00000000000E+00 -0.00000000000E+00 -0.42081228647E+03  0.42081228647E+03  0.00000000000E+00 0.  1.
         23    2    1    2    0    0 -0.16632922510E+02 -0.44173137650E+02 -0.17034423768E+03  0.19989917078E+03  0.93352016406E+02 0.  0.
         24    2    1    2    0    0  0.99525236911E+01 -0.11578141993E+02 -0.21764977973E+03  0.23251837136E+03  0.80375744492E+02 0.  0.
        -11    1    4    4    0    0  0.17910215474E+02  0.22911976151E+02 -0.17355291403E+03  0.17597257865E+03  0.00000000000E+00 0.  1.
         12    1    4    4    0    0 -0.79576917825E+01 -0.34490118145E+02 -0.44096865703E+02  0.56545792708E+02  0.00000000000E+00 0. -1.
        -13    1    3    3    0    0 -0.16853917772E+02 -0.72111749621E+02 -0.14170496621E+03  0.15988888776E+03  0.00000000000E+00 0.  1.
         13    1    3    3    0    0  0.22099526164E+00  0.27938611971E+02 -0.28639271470E+02  0.40010283030E+02  0.00000000000E+00 0. -1.
          3    1    1    2  501    0  0.66803988193E+01  0.55751279643E+02  0.63707143442E+02  0.84920156829E+02  0.00000000000E+00 0. -1.
<scales pt_clust_5="13000.00000" pt_clust_6="13000.00000" pt_clust_7="13000.00000" pt_clust_8="13000.00000" pt_clust_9="56.15012"></scales>
<clustering>
<clus scale="   56.150">  2  9  1 -1</clus>
<clus scale="   80.376">  5  6 -1 -1</clus>
<clus scale="   83.709">  2  5  1 -1</clus>
<clus scale="   93.352">  7  8 -1 -1</clus>
<clus scale="   56.150">  2  5  1 -1</clus>
</clustering>
</event>
<event>
 9    2  0.5615294E-005  0.1580021E+03  0.7546771E-02  0.1199031E+00
          2   -1    0    0  502    0 -0.00000000000E+00  0.00000000000E+00  0.34180247989E+03  0.34180247989E+03  0.00000000000E+00 0. -1.
         21   -1    0    0  501  502  0.00000000000E+00 -0.00000000000E+00 -0.89339056487E+02  0.89339056487E+02  0.00000000000E+00 0.  1.
         23    2    1    2    0    0 -0.15746498599E+02  0.10740552944E+03  0.22143476409E+03  0.27404868182E+03  0.11952165197E+03 0.  0.
         24    2    1    2    0    0 -0.85815201313E+00 -0.92516878316E+02  0.70855899035E+01  0.12437196020E+03  0.82813463290E+02 0.  0.
        -13    1    4    4    0    0  0.63200141755E+01 -0.62883859873E+02 -0.35121582129E+02  0.72303858424E+02  0.00000000000E+00 0.  1.
         14    1    4    4    0    0 -0.71781661887E+01 -0.29633018443E+02  0.42207172033E+02  0.52068101779E+02  0.00000000000E+00 0. -1.
        -11    1    3    3    0    0 -0.27737417014E+02 -0.23093007199E+01  0.12316751090E+03  0.12627324702E+03  0.00000000000E+00 0.  1.
         11    1    3    3    0    0  0.11990918416E+02  0.10971483016E+03  0.98267253189E+02  0.14777543480E+03  0.00000000000E+00 0. -1.
          1    1    1    2  501    0  0.16604650612E+02 -0.14888651124E+02  0.23943069411E+02  0.32720894350E+02  0.00000000000E+00 0. -1.
<scales pt_clust_5="13000.00000" pt_clust_6="13000.00000" pt_clust_7="13000.00000" pt_clust_8="13000.00000" pt_clust_9="22.30217"></scales>
<clustering>
<clus scale="   22.302">  2  9  1 -1</clus>
<clus scale="   82.813">  5  6 -1 -1</clus>
<clus scale="  119.522">  7  8 -1 -1</clus>
<clus scale="  132.429">  2  5  1 -1</clus>
<clus scale="   22.302">  2  5  1 -1</clus>
</clustering>
</event>
<event>
 9    2  0.5615294E-005  0.1688857E+03  0.7546771E-02  0.1194946E+00
          4   -1    0    0  502    0 -0.00000000000E+00  0.00000000000E+00  0.20673000058E+03  0.20673000058E+03  0.00000000000E+00 0. -1.
         21   -1    0    0  501  502  0.00000000000E+00 -0.00000000000E+00 -0.43402035005E+03  0.43402035005E+03  0.00000000000E+00 0. -1.
         23    2    1    2    0    0 -0.52854489724E+02  0.54161658325E+02 -0.24446936866E+03  0.27170021610E+03  0.91261453522E+02 0.  0.
         24    2    1    2    0    0  0.45036176308E+02  0.10608255460E+03  0.11397927299E+03  0.18167451462E+03  0.82052355380E+02 0.  0.
        -11    1    4    4    0    0  0.37672288637E+02  0.49279563840E+01  0.18015430852E+02  0.42048089541E+02  0.00000000000E+00 0.  1.
         12    1    4    4    0    0  0.73638876715E+01  0.10115459822E+03  0.95963842135E+02  0.13962642508E+03  0.00000000000E+00 0. -1.
        -11    1    3    3    0    0 -0.92525263969E+01 -0.23841454523E+02 -0.30392404615E+02  0.39720554588E+02  0.00000000000E+00 0.  1.
         11    1    3    3    0    0 -0.43601963327E+02  0.78003112849E+02 -0.21407696405E+03  0.23197966151E+03  0.00000000000E+00 0. -1.
          3    1    1    2  501    0  0.78183134156E+01 -0.16024421293E+03 -0.96800253796E+02  0.18737561991E+03  0.00000000000E+00 0. -1.
<scales pt_clust_5="13000.00000" pt_clust_6="13000.00000" pt_clust_7="13000.00000" pt_clust_8="13000.00000" pt_clust_9="147.61362"></scales>
<clustering>
<clus scale="   82.052">  5  6 -1 -1</clus>
<clus scale="   91.261">  7  8 -1 -1</clus>
<clus scale="  118.557">  1  7  2 -1</clus>
<clus scale="  147.614">  2  9  1 -1</clus>
<clus scale="  147.614">  2  5  1 -1</clus>
</clustering>
</event>
<event>
 9    2  0.6338637E-005  0.9936910E+02  0.7546771E-02  0.1284559E+00
         -1   -1    0    0    0  501 -0.00000000000E+00  0.00000000000E+00  0.37199170626E+03  0.37199170626E+03  0.00000000000E+00 0.  1.
         21   -1    0    0  501  502  0.00000000000E+00 -0.00000000000E+00 -0.62722163026E+02  0.62722163026E+02  0.00000000000E+00 0. -1.
         23    2    1    2    0    0 -0.11475010515E+02 -0.49514027591E+02  0.29668671170E+03  0.31374525007E+03  0.88485943771E+02 0.  0.
         24    2    1    2    0    0 -0.75873542619E+01  0.24696284441E+02  0.20326849066E+02  0.88731002466E+02  0.82416840487E+02 0.  0.
        -13    1    4    4    0    0 -0.35645863481E+02 -0.50508926398E+01 -0.10521645423E+02  0.37507920793E+02  0.00000000000E+00 0.  1.
         14    1    4    4    0    0  0.28058509219E+02  0.29747177081E+02  0.30848494489E+02  0.51223081674E+02  0.00000000000E+00 0. -1.
        -11    1    3    3    0    0 -0.33364789996E+02 -0.32257374310E+02  0.27372597674E+03  0.27763223471E+03  0.00000000000E+00 0.  1.
         11    1    3    3    0    0  0.21889779481E+02 -0.17256653281E+02  0.22960734966E+02  0.36113015360E+02  0.00000000000E+00 0. -1.
         -2    1    1    2    0  502  0.19062364777E+02  0.24817743150E+02 -0.77440175373E+01  0.32237616748E+02  0.00000000000E+00 0.  1.
<scales pt_clust_5="13000.00000" pt_clust_6="13000.00000" pt_clust_7="13000.00000" pt_clust_8="13000.00000" pt_clust_9="31.29368"></scales>
<clustering>
<clus scale="   31.294">  2  9  1 -1</clus>
<clus scale="   82.417">  5  6 -1 -1</clus>
<clus scale="   88.486">  7  8 -1 -1</clus>
<clus scale="   94.005">  2  5  1 -1</clus>
<clus scale="   31.294">  2  5  1 -1</clus>
</clustering>
</event>
<event>
 9    2  0.5615294E-005  0.1282381E+03  0.7546771E-02  0.1247001E+00
         21   -1    0    0  501  502  0.00000000000E+00  0.00000000000E+00  0.18977936722E+03  0.18977936722E+03  0.00000000000E+00 0. -1.
          2   -1    0    0  502    0 -0.00000000000E+00 -0.00000000000E+00 -0.13859736534E+03  0.13859736534E+03  0.00000000000E+00 0. -1.
         24    2    1    2    0    0  0.31188352994E+02  0.34204191055E+02 -0.22164415812E+01  0.90918285748E+02  0.78221365507E+02 0.  0.
         23    2    1    2    0    0  0.48014296822E+02  0.31356579712E+02 -0.21666906180E+02  0.11015533955E+03  0.91521233697E+02 0.  0.
        -11    1    3    3    0    0  0.28422442584E+02  0.45696424404E+02 -0.29367194714E+02  0.61306040250E+02  0.00000000000E+00 0.  1.
         12    1    3    3    0    0  0.27659104100E+01 -0.11492233349E+02  0.27150753133E+02  0.29612245498E+02  0.00000000000E+00 0. -1.
        -11    1    4    4    0    0  0.29213961777E+02  0.60168835046E+02  0.43420979954E+01  0.67026846029E+02  0.00000000000E+00 0.  1.
         11    1    4    4    0    0  0.18800335045E+02 -0.28812255334E+02 -0.26009004175E+02  0.43128493521E+02  0.00000000000E+00 0. -1.
          1    1    1    2  501    0 -0.79202649816E+02 -0.65560770768E+02  0.75065349646E+02  0.12730310726E+03  0.00000000000E+00 0. -1.
<scales pt_clust_5="13000.00000" pt_clust_6="13000.00000" pt_clust_7="13000.00000" pt_clust_8="13000.00000" pt_clust_9="89.82693"></scales>
<clustering>
<clus scale="   78.221">  5  6 -1 -1</clus>
<clus scale="   90.891">  2  5  1 -1</clus>
<clus scale="   89.827">  1  9  2 -1</clus>
<clus scale="   91.521">  7  8 -1 -1</clus>
<clus scale="   89.827">  1  5  2 -1</clus>
</clustering>
</event>
<event>
 9    2  0.5615294E-005  0.1137633E+03  0.7546771E-02  0.1257637E+00
         21   -1    0    0  501  502  0.00000000000E+00  0.00000000000E+00  0.13009216386E+03  0.13009216386E+03  0.00000000000E+00 0.  1.
          2   -1    0    0  502    0 -0.00000000000E+00 -0.00000000000E+00 -0.40888598543E+03  0.40888598543E+03  0.00000000000E+00 0. -1.
         23    2    1    2    0    0 -0.40887519425E+02  0.53021983180E+02 -0.29453094070E+03  0.31581586141E+03  0.92239163804E+02 0.  0.
         24    2    1    2    0    0  0.87099961658E+02 -0.66333897376E+01 -0.50711887081E+02  0.12987262154E+03  0.81638208912E+02 0.  0.
        -11    1    4    4    0    0  0.52860895629E+02 -0.30208715655E+02  0.41671620807E+01  0.61026273260E+02  0.00000000000E+00 0.  1.
         12    1    4    4    0    0  0.34239066029E+02  0.23575325917E+02 -0.54879049162E+02  0.68846348281E+02  0.00000000000E+00 0. -1.
        -13    1    3    3    0    0  0.22594408181E+02 -0.96283886957E+01 -0.72141181816E+02  0.76207370141E+02  0.00000000000E+00 0.  1.
         13    1    3    3    0    0 -0.63481927606E+02  0.62650371876E+02 -0.22238975889E+03  0.23960849127E+03  0.00000000000E+00 0. -1.
          1    1    1    2  501    0 -0.46212442234E+02 -0.46388593443E+02  0.66449006211E+02  0.93289666337E+02  0.00000000000E+00 0. -1.
<scales pt_clust_5="13000.00000" pt_clust_6="13000.00000" pt_clust_7="13000.00000" pt_clust_8="13000.00000" pt_clust_9="65.47894"></scales>
<clustering>
<clus scale="   65.479">  1  9  2 -1</clus>
<clus scale="   81.638">  5  6 -1 -1</clus>
<clus scale="   92.239">  7  8 -1 -1</clus>
<clus scale="  105.351">  1  5  2 -1</clus>
<clus scale="   65.479">  1  5  2 -1</clus>
</clustering>
</event>
<event>
 9    2  0.5615294E-005  0.1012140E+03  0.7546771E-02  0.1282169E+00
         -1   -1    0    0    0  501 -0.00000000000E+00  0.00000000000E+00  0.23455034510E+03  0.23455034510E+03  0.00000000000E+00 0.  1.
         21   -1    0    0  501  502  0.00000000000E+00 -0.00000000000E+00 -0.81247182008E+02  0.81247182008E+02  0.00000000000E+00 0. -1.
         23    2    1    2    0    0  0.39804786300E+02  0.23005401378E+02  0.14176919476E+03  0.17523179923E+03  0.92162950106E+02 0.  0.
         24    2    1    2    0    0 -0.41007544253E+02  0.10670129048E+02  0.34824194453E+02  0.99603274225E+02  0.83142151628E+02 0.  0.
        -11    1    4    4    0    0 -0.65514605299E+02  0.17522763989E+02  0.23824518379E+02  0.71880584592E+02  0.00000000000E+00 0.  1.
         12    1    4    4    0    0  0.24507061046E+02 -0.68526349409E+01  0.10999676074E+02  0.27722689633E+02  0.00000000000E+00 0. -1.
        -11    1    3    3    0    0  0.39271937871E+02  0.53722251984E+02  0.12117821103E+03  0.13824805348E+03  0.00000000000E+00 0.  1.
         11    1    3    3    0    0  0.53284842900E+00 -0.30716850606E+02  0.20590983733E+02  0.36983745750E+02  0.00000000000E+00 0. -1.
         -2    1    1    2    0  502  0.12027579527E+01 -0.33675530426E+02 -0.23290226126E+02  0.40962453652E+02  0.00000000000E+00 0.  1.
<scales pt_clust_5="13000.00000" pt_clust_6="13000.00000" pt_clust_7="13000.00000" pt_clust_8="13000.00000" pt_clust_9="33.69700"></scales>
<clustering>
<clus scale="   33.697">  2  9  1 -1</clus>
<clus scale="   83.142">  5  6 -1 -1</clus>
<clus scale="   92.163">  7  8 -1 -1</clus>
<clus scale="   93.075">  2  5  1 -1</clus>
<clus scale="   33.697">  2  5  1 -1</clus>
</clustering>
</event>
<event>
 9    2  0.5615294E-005  0.1948231E+03  0.7546771E-02  0.1154583E+00
          2   -1    0    0  502    0 -0.00000000000E+00  0.00000000000E+00  0.12236198325E+04  0.12236198325E+04  0.00000000000E+00 0. -1.
         21   -1    0    0  501  502  0.00000000000E+00 -0.00000000000E+00 -0.12261848623E+03  0.12261848623E+03  0.00000000000E+00 0. -1.
         24    2    1    2    0    0 -0.18336332183E+02  0.15522739332E+03  0.77207425591E+03  0.79329023884E+03  0.93696220232E+02 0.  0.
         23    2    1    2    0    0  0.44448910349E+02 -0.20978222162E+03  0.39812766527E+03  0.46104152079E+03  0.89829615957E+02 0.  0.
        -11    1    3    3    0    0  0.18227586434E+02  0.13825934091E+03  0.64785359513E+03  0.66269311976E+03  0.00000000000E+00 0.  1.
         12    1    3    3    0    0 -0.36563918617E+02  0.16968052411E+02  0.12422066078E+03  0.13059711908E+03  0.00000000000E+00 0. -1.
        -13    1    4    4    0    0  0.50258333055E+02 -0.57321946242E+02  0.96106962248E+02  0.12267132409E+03  0.00000000000E+00 0.  1.
         13    1    4    4    0    0 -0.58094227061E+01 -0.15246027538E+03  0.30202070302E+03  0.33837019670E+03  0.00000000000E+00 0. -1.
          1    1    1    2  501    0 -0.26112578165E+02  0.54554828306E+02 -0.69200574933E+02  0.91906559076E+02  0.00000000000E+00 0. -1.
<scales pt_clust_5="13000.00000" pt_clust_6="13000.00000" pt_clust_7="13000.00000" pt_clust_8="13000.00000" pt_clust_9="60.48220"></scales>
<clustering>
<clus scale="   60.482">  2  9  1 -1</clus>
<clus scale="   89.830">  7  8 -1 -1</clus>
<clus scale="   93.696">  5  6 -1 -1</clus>
<clus scale="  192.993">  2  7  1 -1</clus>
<clus scale="   60.482">  2  5  1 -1</clus>
</clustering>
</event>
<event>
 9    2  0.5615294E-005  0.9334047E+02  0.7546771E-02  0.1301119E+00
         21   -1    0    0  501  502  0.00000000000E+00  0.00000000000E+00  0.61177958413E+02  0.61177958413E+02  0.00000000000E+00 0.  1.
         -1   -1    0    0    0  501 -0.00000000000E+00 -0.00000000000E+00 -0.26364060689E+03  0.26364060689E+03  0.00000000000E+00 0.  1.
         24    2    1    2    0    0  0.16080571598E+02  0.53429678773E+01 -0.98130141948E+02  0.12857265185E+03  0.81328162129E+02 0.  0.
         23    2    1    2    0    0  0.32923858518E+02 -0.39418832959E+02 -0.78977968506E+02  0.13139646203E+03  0.91595228444E+02 0.  0.
        -11    1    3    3    0    0  0.33535517601E+02 -0.23128908758E+02 -0.81832071672E+02  0.91411516317E+02  0.00000000000E+00 0.  1.
         12    1    3    3    0    0 -0.17454946003E+02  0.28471876636E+02 -0.16298070276E+02  0.37161135529E+02  0.00000000000E+00 0. -1.
        -11    1    4    4    0    0  0.31911756196E+02  0.13653989375E+02  0.17790368067E+01  0.34755669772E+02  0.00000000000E+00 0.  1.
         11    1    4    4    0    0  0.10121023222E+01 -0.53072822334E+02 -0.80757005313E+02  0.96640792260E+02  0.00000000000E+00 0. -1.
         -2    1    1    2    0  502 -0.49004430116E+02  0.34075865082E+02 -0.25354538028E+02  0.64849451429E+02  0.00000000000E+00 0.  1.
<scales pt_clust_5="13000.00000" pt_clust_6="13000.00000" pt_clust_7="13000.00000" pt_clust_8="13000.00000" pt_clust_9="59.68751"></scales>
<clustering>
<clus scale="   59.688">  1  9  2 -1</clus>
<clus scale="   81.328">  5  6 -1 -1</clus>
<clus scale="   83.289">  2  5  1 -1</clus>
<clus scale="   91.595">  7  8 -1 -1</clus>
<clus scale="   59.688">  1  5  2 -1</clus>
</clustering>
</event>
<event>
 9    2  0.5615294E-005  0.8459898E+02  0.7546771E-02  0.1319205E+00
         21   -1    0    0  501  502  0.00000000000E+00  0.00000000000E+00  0.53481775432E+02  0.53481775432E+02  0.00000000000E+00 0.  1.
         -1   -1    0    0    0  501 -0.00000000000E+00 -0.00000000000E+00 -0.26546038273E+03  0.26546038273E+03  0.00000000000E+00 0.  1.
         24    2    1    2    0    0  0.42863150639E+02  0.35911508791E+02 -0.11677325481E+03  0.15214411440E+03  0.79905896915E+02 0.  0.
         23    2    1    2    0    0  0.67668075579E+01 -0.51401713593E+00 -0.50251146948E+02  0.91055085263E+02  0.75629338782E+02 0.  0.
        -13    1    3    3    0    0  0.54262345011E+02  0.21739684904E+02 -0.12017828405E+03  0.13364069718E+03  0.00000000000E+00 0.  1.
         14    1    3    3    0    0 -0.11399194371E+02  0.14171823886E+02  0.34050292438E+01  0.18503417218E+02  0.00000000000E+00 0. -1.
        -13    1    4    4    0    0 -0.12711313385E+02  0.27477080011E+02 -0.48165462454E+02  0.56890062290E+02  0.00000000000E+00 0.  1.
         13    1    4    4    0    0  0.19478120943E+02 -0.27991097147E+02 -0.20856844934E+01  0.34165022973E+02  0.00000000000E+00 0. -1.
         -2    1    1    2    0  502 -0.49629958197E+02 -0.35397491655E+02 -0.44954205543E+02  0.75742958498E+02  0.00000000000E+00 0.  1.
<scales pt_clust_5="13000.00000" pt_clust_6="13000.00000" pt_clust_7="13000.00000" pt_clust_8="13000.00000" pt_clust_9="60.95995"></scales>
<clustering>
<clus scale="   60.960">  1  9  2 -1</clus>
<clus scale="   75.629">  7  8 -1 -1</clus>
<clus scale="   79.906">  5  6 -1 -1</clus>
<clus scale="   80.572">  1  7  2 -1</clus>
<clus scale="   60.960">  1  5  2 -1</clus>
</clustering>
</event>
<event>
 9    2  0.5615294E-005  0.9627765E+02  0.7546771E-02  0.1300657E+00
         -1   -1    0    0    0  501 -0.00000000000E+00  0.00000000000E+00  0.37657538186E+03  0.37657538186E+03  0.00000000000E+00 0.  1.
         21   -1    0    0  501  502  0.00000000000E+00 -0.00000000000E+00 -0.70259506990E+02  0.70259506990E+02  0.00000000000E+00 0. -1.
         23    2    1    2    0    0  0.30879181802E+02 -0.11424341280E+02  0.31462564093E+03  0.32924048684E+03  0.91246724904E+02 0.  0.
         24    2    1    2    0    0 -0.11050849241E+02  0.64881476276E+01 -0.38600980457E+02  0.81055567192E+02  0.70112423663E+02 0.  0.
        -13    1    4    4    0    0  0.25790131165E+02 -0.10886451619E+02 -0.26540334472E+02  0.38575057333E+02  0.00000000000E+00 0.  1.
         14    1    4    4    0    0 -0.36840980406E+02  0.17374599247E+02 -0.12060645985E+02  0.42480509859E+02  0.00000000000E+00 0. -1.
        -13    1    3    3    0    0 -0.26042138438E+02 -0.22575227365E+02  0.72657335225E+02  0.80417176194E+02  0.00000000000E+00 0. -1.
         13    1    3    3    0    0  0.56921320240E+02  0.11150886085E+02  0.24196830570E+03  0.24882331065E+03  0.00000000000E+00 0.  1.
         -2    1    1    2    0  502 -0.19828332561E+02  0.49361936528E+01  0.30291214404E+02  0.36538834820E+02  0.00000000000E+00 0.  1.
<scales pt_clust_5="13000.00000" pt_clust_6="13000.00000" pt_clust_7="13000.00000" pt_clust_8="13000.00000" pt_clust_9="20.43353"></scales>
<clustering>
<clus scale="   20.434">  2  9  1 -1</clus>
<clus scale="   70.112">  5  6 -1 -1</clus>
<clus scale="   76.545">  2  5  1 -1</clus>
<clus scale="   91.247">  7  8 -1 -1</clus>
<clus scale="   20.434">  2  5  1 -1</clus>
</clustering>
</event>
<event>
 9    2  0.5615294E-005  0.3048229E+03  0.7546771E-02  0.1082854E+00
          2   -1    0    0  502    0 -0.00000000000E+00  0.00000000000E+00  0.10834836574E+04  0.10834836574E+04  0.00000000000E+00 0. -1.
         21   -1    0    0  501  502  0.00000000000E+00 -0.00000000000E+00 -0.89978041731E+02  0.89978041731E+02  0.00000000000E+00 0. -1.
         24    2    1    2    0    0  0.99780101834E+02 -0.10517217920E+03  0.12381111203E+03  0.20682897745E+03  0.80198369374E+02 0.  0.
         23    2    1    2    0    0  0.88923937072E+02 -0.51168604155E+02  0.13800615056E+03  0.19499841655E+03  0.91940155681E+02 0.  0.
        -13    1    3    3    0    0  0.25437978801E+02 -0.64972221865E+02  0.94305438588E+02  0.11731153450E+03  0.00000000000E+00 0.  1.
         14    1    3    3    0    0  0.74342123033E+02 -0.40199957339E+02  0.29505673446E+02  0.89517442951E+02  0.00000000000E+00 0. -1.
        -11    1    4    4    0    0  0.59426008955E+02 -0.63787443893E+02  0.48164236727E+02  0.99599609628E+02  0.00000000000E+00 0.  1.
         11    1    4    4    0    0  0.29497928118E+02  0.12618839737E+02  0.89841913838E+02  0.95398806919E+02  0.00000000000E+00 0. -1.
          1    1    1    2  501    0 -0.18870403891E+03  0.15634078336E+03  0.73168835312E+03  0.77163430518E+03  0.00000000000E+00 0. -1.
<scales pt_clust_5="13000.00000" pt_clust_6="13000.00000" pt_clust_7="13000.00000" pt_clust_8="13000.00000" pt_clust_9="245.05451"></scales>
<clustering>
<clus scale="   80.198">  5  6 -1 -1</clus>
<clus scale="   91.940">  7  8 -1 -1</clus>
<clus scale="   97.744">  5  7 -1 -1</clus>
<clus scale="  245.055">  2  9  1 -1</clus>
<clus scale="  245.055">  2  5  1 -1</clus>
</clustering>
</event>
<event>
 9    2  0.5615294E-005  0.1552238E+03  0.7546771E-02  0.1218559E+00
         21   -1    0    0  501  502  0.00000000000E+00  0.00000000000E+00  0.32048998617E+03  0.32048998617E+03  0.00000000000E+00 0.  1.
          2   -1    0    0  502    0 -0.00000000000E+00 -0.00000000000E+00 -0.13655664718E+03  0.13655664718E+03  0.00000000000E+00 0. -1.
         24    2    1    2    0    0  0.16134142323E+02  0.34877897212E+02 -0.30877339590E+02  0.97008948185E+02  0.83549671845E+02 0.  0.
         23    2    1    2    0    0 -0.50749264540E+02  0.10161911693E+03  0.13062926327E+03  0.19597625692E+03  0.91873587498E+02 0.  0.
        -11    1    3    3    0    0  0.41335501784E+02 -0.59770280160E+01 -0.24928594047E+02  0.48639319206E+02  0.00000000000E+00 0.  1.
         12    1    3    3    0    0 -0.25201359461E+02  0.40854925228E+02 -0.59487455429E+01  0.48369628979E+02  0.00000000000E+00 0. -1.
        -13    1    4    4    0    0 -0.46562326261E+02  0.22320015748E+01  0.41870606263E+02  0.62659234967E+02  0.00000000000E+00 0. -1.
         13    1    4    4    0    0 -0.41869382791E+01  0.99387115351E+02  0.88758657003E+02  0.13331702195E+03  0.00000000000E+00 0.  1.
          1    1    1    2  501    0  0.34615122217E+02 -0.13649701414E+03  0.84181415311E+02  0.16406142825E+03  0.00000000000E+00 0. -1.
<scales pt_clust_5="13000.00000" pt_clust_6="13000.00000" pt_clust_7="13000.00000" pt_clust_8="13000.00000" pt_clust_9="125.11464"></scales>
<clustering>
<clus scale="   83.550">  5  6 -1 -1</clus>
<clus scale="   91.874">  7  8 -1 -1</clus>
<clus scale="   91.964">  2  5  1 -1</clus>
<clus scale="  125.115">  1  9  2 -1</clus>
<clus scale="  125.115">  1  5  2 -1</clus>
</clustering>
</event>
<event>
 9    2  0.5615294E-005  0.9345175E+02  0.7546771E-02  0.1299564E+00
          2   -1    0    0  502    0 -0.00000000000E+00  0.00000000000E+00  0.76018320723E+03  0.76018320723E+03  0.00000000000E+00 0. -1.
         21   -1    0    0  501  502  0.00000000000E+00 -0.00000000000E+00 -0.34297423971E+02  0.34297423971E+02  0.00000000000E+00 0. -1.
         24    2    1    2    0    0  0.59427856257E+01  0.18424880323E+02  0.57432707963E+03  0.58050501794E+03  0.82217325102E+02 0.  0.
         23    2    1    2    0    0 -0.10816549307E+02 -0.38508395638E+02  0.16273776280E+03  0.19047938965E+03  0.90547910879E+02 0.  0.
        -13    1    3    3    0    0 -0.74612293939E+01  0.32543935108E+02  0.93475513374E+02  0.99259504617E+02  0.00000000000E+00 0.  1.
         14    1    3    3    0    0  0.13404015020E+02 -0.14119054786E+02  0.48085156625E+03  0.48124551332E+03  0.00000000000E+00 0. -1.
        -11    1    4    4    0    0  0.30485006623E+01  0.28335107569E+02  0.31030530161E+02  0.42131525955E+02  0.00000000000E+00 0.  1.
         11    1    4    4    0    0 -0.13865049969E+02 -0.66843503207E+02  0.13170723264E+03  0.14834786369E+03  0.00000000000E+00 0. -1.
          1    1    1    2  501    0  0.48737636815E+01  0.20083515315E+02 -0.11179059175E+02  0.23496223609E+02  0.00000000000E+00 0. -1.
<scales pt_clust_5="13000.00000" pt_clust_6="13000.00000" pt_clust_7="13000.00000" pt_clust_8="13000.00000" pt_clust_9="20.66643"></scales>
<clustering>
<clus scale="   20.666">  2  9  1 -1</clus>
<clus scale="   82.217">  5  6 -1 -1</clus>
<clus scale="   85.405">  1  5  2 -1</clus>
<clus scale="   90.548">  7  8 -1 -1</clus>
<clus scale="   20.666">  2  5  1 -1</clus>
</clustering>
</event>
<event>
 9    2  0.5615294E-005  0.1350711E+03  0.7546771E-02  0.1243840E+00
         21   -1    0    0  501  502  0.00000000000E+00  0.00000000000E+00  0.12600345691E+03  0.12600345691E+03  0.00000000000E+00 0. -1.
          2   -1    0    0  502    0 -0.00000000000E+00 -0.00000000000E+00 -0.69657832375E+03  0.69657832375E+03  0.00000000000E+00 0. -1.
         24    2    1    2    0    0 -0.10403812674E+02  0.12292958124E+02 -0.19580187161E+03  0.21262559525E+03  0.81313680846E+02 0.  0.
         23    2    1    2    0    0 -0.75587777527E+02 -0.62232422666E+02 -0.45991172332E+03  0.47904741289E+03  0.91549134349E+02 0.  0.
        -11    1    3    3    0    0 -0.47794680172E+01 -0.25780721606E+02 -0.20875313986E+02  0.33515185440E+02  0.00000000000E+00 0.  1.
         12    1    3    3    0    0 -0.56243446563E+01  0.38073679730E+02 -0.17492655762E+03  0.17911040981E+03  0.00000000000E+00 0. -1.
        -13    1    4    4    0    0  0.12784079611E+02 -0.36589609592E+02 -0.18905459475E+03  0.19298671462E+03  0.00000000000E+00 0.  1.
         13    1    4    4    0    0 -0.88371857138E+02 -0.25642813073E+02 -0.27085712857E+03  0.28606069827E+03  0.00000000000E+00 0. -1.
          1    1    1    2  501    0  0.85991590201E+02  0.49939464541E+02  0.85138728083E+02  0.13090877252E+03  0.00000000000E+00 0. -1.
<scales pt_clust_5="13000.00000" pt_clust_6="13000.00000" pt_clust_7="13000.00000" pt_clust_8="13000.00000" pt_clust_9="99.31247"></scales>
<clustering>
<clus scale="   81.314">  5  6 -1 -1</clus>
<clus scale="   82.893">  2  5  1 -1</clus>
<clus scale="   91.549">  7  8 -1 -1</clus>
<clus scale="   99.312">  1  9  2 -1</clus>
<clus scale="   99.312">  1  5  2 -1</clus>
</clustering>
</event>
<event>
 9    2  0.5615294E-005  0.3658273E+03  0.7546771E-02  0.1056574E+00
          2   -1    0    0  502    0 -0.00000000000E+00  0.00000000000E+00  0.58367222006E+03  0.58367222006E+03  0.00000000000E+00 0. -1.
         21   -1    0    0  501  502  0.00000000000E+00 -0.00000000000E+00 -0.40637351065E+03  0.40637351065E+03  0.00000000000E+00 0.  1.
         24    2    1    2    0    0 -0.18289049354E+03 -0.30866653707E+03  0.39862173774E+03  0.54191320915E+03  0.77760354399E+02 0.  0.
         23    2    1    2    0    0  0.16315680007E+03  0.29666229521E+03 -0.16495506389E+03  0.38721562820E+03  0.89983947513E+02 0.  0.
        -13    1    3    3    0    0 -0.76198892301E+02 -0.12664345178E+03  0.22230087928E+03  0.26695039988E+03  0.00000000000E+00 0.  1.
         14    1    3    3    0    0 -0.10669160124E+03 -0.18202308529E+03  0.17632085847E+03  0.27496280927E+03  0.00000000000E+00 0. -1.
        -13    1    4    4    0    0  0.91522162512E+02  0.94628438619E+02 -0.33796984477E+02  0.13591572310E+03  0.00000000000E+00 0.  1.
         13    1    4    4    0    0  0.71634637562E+02  0.20203385659E+03 -0.13115807941E+03  0.25129990510E+03  0.00000000000E+00 0. -1.
          1    1    1    2  501    0  0.19733693469E+02  0.12004241851E+02 -0.56367964445E+02  0.60916893355E+02  0.00000000000E+00 0. -1.
<scales pt_clust_5="13000.00000" pt_clust_6="13000.00000" pt_clust_7="13000.00000" pt_clust_8="13000.00000" pt_clust_9="23.09806"></scales>
<clustering>
<clus scale="   23.098">  2  9  1 -1</clus>
<clus scale="   77.760">  5  6 -1 -1</clus>
<clus scale="   89.984">  7  8 -1 -1</clus>
<clus scale="  363.014">  1  5  2 -1</clus>
<clus scale="   23.098">  2  5  1 -1</clus>
</clustering>
</event>
<event>
 9    2  0.5615294E-005  0.3948083E+03  0.7546771E-02  0.1045592E+00
          2   -1    0    0  502    0 -0.00000000000E+00  0.00000000000E+00  0.49389531990E+03  0.49389531990E+03  0.00000000000E+00 0. -1.
         21   -1    0    0  501  502  0.00000000000E+00 -0.00000000000E+00 -0.27675603988E+03  0.27675603988E+03  0.00000000000E+00 0. -1.
         24    2    1    2    0    0 -0.15793498117E+03 -0.36840421352E+02  0.54478041768E+02  0.18894158320E+03  0.80189711957E+02 0.  0.
         23    2    1    2    0    0 -0.16928392697E+03  0.84176932121E+02  0.13766850215E+03  0.25014138852E+03  0.88742852874E+02 0.  0.
        -13    1    3    3    0    0 -0.69389388247E+02 -0.55600475042E+01  0.63987903567E+02  0.94552911813E+02  0.00000000000E+00 0.  1.
         14    1    3    3    0    0 -0.88545592927E+02 -0.31280373848E+02 -0.95098617983E+01  0.94388671387E+02  0.00000000000E+00 0. -1.
        -11    1    4    4    0    0 -0.65873708103E+02  0.60587975885E+02  0.10747486200E+03  0.13986098171E+03  0.00000000000E+00 0. -1.
         11    1    4    4    0    0 -0.10341021887E+03  0.23588956236E+02  0.30193640147E+02  0.11028040682E+03  0.00000000000E+00 0.  1.
          1    1    1    2  501    0  0.32721890814E+03 -0.47336510768E+02  0.24992736098E+02  0.33156838805E+03  0.00000000000E+00 0. -1.
<scales pt_clust_5="13000.00000" pt_clust_6="13000.00000" pt_clust_7="13000.00000" pt_clust_8="13000.00000" pt_clust_9="330.62510"></scales>
<clustering>
<clus scale="   80.190">  5  6 -1 -1</clus>
<clus scale="   88.743">  7  8 -1 -1</clus>
<clus scale="  152.536">  5  7 -1 -1</clus>
<clus scale="  330.625">  2  9  1 -1</clus>
<clus scale="  330.625">  2  5  1 -1</clus>
</clustering>
</event>
<event>
 9    2  0.5615294E-005  0.1025236E+03  0.7546771E-02  0.1281073E+00
         21   -1    0    0  501  502  0.00000000000E+00  0.00000000000E+00  0.75698356505E+02  0.75698356505E+02  0.00000000000E+00 0. -1.
          2   -1    0    0  502    0 -0.00000000000E+00 -0.00000000000E+00 -0.15543096634E+04  0.15543096634E+04  0.00000000000E+00 0. -1.
         24    2    1    2    0    0  0.17234853661E+01 -0.42817741284E+02 -0.13851777634E+04  0.13881603600E+04  0.80221066972E+02 0.  0.
         23    2    1    2    0    0 -0.20006861913E+02  0.55338507722E+02 -0.14724243629E+03  0.18365446107E+03  0.92660677015E+02 0.  0.
        -13    1    3    3    0    0  0.10651720610E+02 -0.19369348297E+02 -0.87796216420E+02  0.90536216086E+02  0.00000000000E+00 0.  1.
         14    1    3    3    0    0 -0.89282352441E+01 -0.23448392986E+02 -0.12973815470E+04  0.12976241439E+04  0.00000000000E+00 0. -1.
        -11    1    4    4    0    0  0.17587147636E+02  0.67866682265E+02 -0.91956015963E+02  0.11563348648E+03  0.00000000000E+00 0.  1.
         11    1    4    4    0    0 -0.37594009549E+02 -0.12528174543E+02 -0.55286420329E+02  0.68020974590E+02  0.00000000000E+00 0. -1.
          1    1    1    2  501    0  0.18283376547E+02 -0.12520766438E+02  0.53808892764E+02  0.58193198835E+02  0.00000000000E+00 0. -1.
<scales pt_clust_5="13000.00000" pt_clust_6="13000.00000" pt_clust_7="13000.00000" pt_clust_8="13000.00000" pt_clust_9="22.15968"></scales>
<clustering>
<clus scale="   22.160">  1  9  2 -1</clus>
<clus scale="   80.221">  5  6 -1 -1</clus>
<clus scale="   91.436">  2  5  1 -1</clus>
<clus scale="   92.661">  7  8 -1 -1</clus>
<clus scale="   22.160">  1  5  2 -1</clus>
</clustering>
</event>
<event>
 9    2  0.5615294E-005  0.2333914E+03  0.7546771E-02  0.1154015E+00
         21   -1    0    0  501  502  0.00000000000E+00  0.00000000000E+00  0.17356168956E+03  0.17356168956E+03  0.00000000000E+00 0. -1.
          2   -1    0    0  502    0 -0.00000000000E+00 -0.00000000000E+00 -0.56830253441E+03  0.56830253441E+03  0.00000000000E+00 0. -1.
         23    2    1    2    0    0 -0.83817629817E+01 -0.27091717999E+02 -0.10822030039E+02  0.11427785096E+03  0.11017302642E+03 0.  0.
         24    2    1    2    0    0  0.10109013273E+03 -0.18699403420E+03 -0.73247481944E+02  0.23907095738E+03  0.81263431460E+02 0.  0.
        -13    1    4    4    0    0 -0.28797946161E+01 -0.73826598931E+02 -0.22548344380E+02  0.77246927195E+02  0.00000000000E+00 0.  1.
         14    1    4    4    0    0  0.10396992734E+03 -0.11316743527E+03 -0.50699137563E+02  0.16182403019E+03  0.00000000000E+00 0. -1.
        -11    1    3    3    0    0 -0.41587925057E+02 -0.82663106183E+00 -0.43954687517E+02  0.60516554629E+02  0.00000000000E+00 0. -1.
         11    1    3    3    0    0  0.33206162076E+02 -0.26265086937E+02  0.33132657477E+02  0.53761296331E+02  0.00000000000E+00 0.  1.
          1    1    1    2  501    0 -0.92708369746E+02  0.21408575220E+03 -0.31067133287E+03  0.38851541563E+03  0.00000000000E+00 0. -1.
<scales pt_clust_5="13000.00000" pt_clust_6="13000.00000" pt_clust_7="13000.00000" pt_clust_8="13000.00000" pt_clust_9="218.78727"></scales>
<clustering>
<clus scale="   81.263">  5  6 -1 -1</clus>
<clus scale="  110.173">  7  8 -1 -1</clus>
<clus scale="  113.764">  2  7  1 -1</clus>
<clus scale="  218.787">  1  9  2 -1</clus>
<clus scale="  218.787">  1  5  2 -1</clus>
</clustering>
</event>
<event>
 9    2  0.5615294E-005  0.1687319E+03  0.7546771E-02  0.1180600E+00
          2   -1    0    0  502    0 -0.00000000000E+00  0.00000000000E+00  0.26399215497E+03  0.26399215497E+03  0.00000000000E+00 0. -1.
         21   -1    0    0  501  502  0.00000000000E+00 -0.00000000000E+00 -0.23272916420E+03  0.23272916420E+03  0.00000000000E+00 0. -1.
         24    2    1    2    0    0 -0.14167257601E+03  0.39328592027E+02  0.14390662643E+03  0.22081439351E+03  0.80199889694E+02 0.  0.
         23    2    1    2    0    0  0.10564364405E+03 -0.93067718262E+02 -0.28553621309E+02  0.16980740567E+03  0.90537649745E+02 0.  0.
        -13    1    3    3    0    0 -0.59688240043E+02  0.19998180212E+02  0.11659060339E+02  0.64019894558E+02  0.00000000000E+00 0.  1.
         14    1    3    3    0    0 -0.81984335970E+02  0.19330411814E+02  0.13224756609E+03  0.15679449895E+03  0.00000000000E+00 0. -1.
        -11    1    4    4    0    0  0.32780757875E+02  0.98528257283E+01  0.13620920192E+02  0.36840001745E+02  0.00000000000E+00 0.  1.
         11    1    4    4    0    0  0.72862886174E+02 -0.10292054399E+03 -0.42174541501E+02  0.13296740393E+03  0.00000000000E+00 0. -1.
          1    1    1    2  501    0  0.36028931964E+02  0.53739126235E+02 -0.84090014346E+02  0.10609951998E+03  0.00000000000E+00 0. -1.
<scales pt_clust_5="13000.00000" pt_clust_6="13000.00000" pt_clust_7="13000.00000" pt_clust_8="13000.00000" pt_clust_9="64.69913"></scales>
<clustering>
<clus scale="   64.699">  2  9  1 -1</clus>
<clus scale="   80.200">  5  6 -1 -1</clus>
<clus scale="   90.538">  7  8 -1 -1</clus>
<clus scale="  163.418">  1  5  2 -1</clus>
<clus scale="   64.699">  2  5  1 -1</clus>
</clustering>
</event>
<event>
 9    2  0.5615294E-005  0.1031953E+03  0.7546771E-02  0.1281132E+00
         21   -1    0    0  501  502  0.00000000000E+00  0.00000000000E+00  0.14174666735E+03  0.14174666735E+03  0.00000000000E+00 0.  1.
          2   -1    0    0  502    0 -0.00000000000E+00 -0.00000000000E+00 -0.19385106987E+03  0.19385106987E+03  0.00000000000E+00 0. -1.
         24    2    1    2    0    0  0.28147017171E+02 -0.27469769139E+02 -0.14614580887E+03  0.17094654511E+03  0.79481325119E+02 0.  0.
         23    2    1    2    0    0 -0.30409550695E+02  0.50224740425E+02  0.70157161637E+02  0.13158512307E+03  0.94579870797E+02 0.  0.
        -11    1    3    3    0    0 -0.20441995068E+02  0.14016568383E+02 -0.41526169423E+02  0.48360749565E+02  0.00000000000E+00 0.  1.
         12    1    3    3    0    0  0.48589012239E+02 -0.41486337522E+02 -0.10461963945E+03  0.12258579555E+03  0.00000000000E+00 0. -1.
        -11    1    4    4    0    0 -0.56303460468E+02  0.57495633046E+02  0.36127090178E+02  0.88209943457E+02  0.00000000000E+00 0.  1.
         11    1    4    4    0    0  0.25893909773E+02 -0.72708926207E+01  0.34030071459E+02  0.43375179612E+02  0.00000000000E+00 0. -1.
          1    1    1    2  501    0  0.22625335244E+01 -0.22754971286E+02  0.23884244710E+02  0.33066069037E+02  0.00000000000E+00 0. -1.
<scales pt_clust_5="13000.00000" pt_clust_6="13000.00000" pt_clust_7="13000.00000" pt_clust_8="13000.00000" pt_clust_9="22.86718"></scales>
<clustering>
<clus scale="   22.867">  1  9  2 -1</clus>
<clus scale="   79.481">  5  6 -1 -1</clus>
<clus scale="   89.561">  2  5  1 -1</clus>
<clus scale="   94.580">  7  8 -1 -1</clus>
<clus scale="   22.867">  1  5  2 -1</clus>
</clustering>
</event>
<event>
 9    2  0.5615294E-005  0.1028472E+03  0.7546771E-02  0.1280742E+00
         21   -1    0    0  501  502  0.00000000000E+00  0.00000000000E+00  0.48628874276E+02  0.48628874276E+02  0.00000000000E+00 0.  1.
          2   -1    0    0  502    0 -0.00000000000E+00 -0.00000000000E+00 -0.55310668717E+03  0.55310668717E+03  0.00000000000E+00 0. -1.
         23    2    1    2    0    0 -0.50043611082E+02 -0.13122710716E+01 -0.34477673000E+03  0.36046105121E+03  0.92493733990E+02 0.  0.
         24    2    1    2    0    0  0.25760224679E+02 -0.51701201125E+02 -0.15413337490E+03  0.18269882874E+03  0.79279009778E+02 0.  0.
        -11    1    4    4    0    0  0.38582492289E+02 -0.67494493727E+02 -0.12152305417E+03  0.14426353694E+03  0.00000000000E+00 0.  1.
         12    1    4    4    0    0 -0.12822267610E+02  0.15793292601E+02 -0.32610320729E+02  0.38435291802E+02  0.00000000000E+00 0. -1.
        -13    1    3    3    0    0 -0.16423035062E+02 -0.38534322720E+02 -0.73604456561E+02  0.84688996533E+02  0.00000000000E+00 0.  1.
         13    1    3    3    0    0 -0.33620576020E+02  0.37222051649E+02 -0.27117227344E+03  0.27577205468E+03  0.00000000000E+00 0. -1.
          1    1    1    2  501    0  0.24283386404E+02  0.53013472197E+02 -0.55677079906E+01  0.58575681489E+02  0.00000000000E+00 0. -1.
<scales pt_clust_5="13000.00000" pt_clust_6="13000.00000" pt_clust_7="13000.00000" pt_clust_8="13000.00000" pt_clust_9="58.31047"></scales>
<clustering>
<clus scale="   58.310">  1  9  2 -1</clus>
<clus scale="   79.279">  5  6 -1 -1</clus>
<clus scale="   91.146">  1  5  2 -1</clus>
<clus scale="   92.494">  7  8 -1 -1</clus>
<clus scale="   58.310">  1  5  2 -1</clus>
</clustering>
</event>
<event>
 9    2  0.5615294E-005  0.1722985E+03  0.7546771E-02  0.1177315E+00
         21   -1    0    0  501  502  0.00000000000E+00  0.00000000000E+00  0.10812964121E+03  0.10812964121E+03  0.00000000000E+00 0. -1.
          2   -1    0    0  502    0 -0.00000000000E+00 -0.00000000000E+00 -0.12943167406E+04  0.12943167406E+04  0.00000000000E+00 0. -1.
         24    2    1    2    0    0 -0.13383953342E+03 -0.41338933535E+02 -0.10230576199E+04  0.10356961568E+04  0.79985670097E+02 0.  0.
         23    2    1    2    0    0  0.16178706122E+03  0.54481649372E+02 -0.22502506089E+03  0.29757755493E+03  0.93663332576E+02 0.  0.
        -11    1    3    3    0    0 -0.81580466975E+01 -0.30155327730E+02 -0.12634870894E+03  0.13015334712E+03  0.00000000000E+00 0.  1.
         12    1    3    3    0    0 -0.12568148673E+03 -0.11183605805E+02 -0.89670891100E+03  0.90554280971E+03  0.00000000000E+00 0. -1.
        -11    1    4    4    0    0  0.12685638047E+03  0.57448219235E+02 -0.22242765306E+03  0.26242503693E+03  0.00000000000E+00 0. -1.
         11    1    4    4    0    0  0.34930680745E+02 -0.29665698637E+01 -0.25974078311E+01  0.35152517996E+02  0.00000000000E+00 0.  1.
          1    1    1    2  501    0 -0.27947527794E+02 -0.13142715836E+02  0.61895581406E+02  0.69172670087E+02  0.00000000000E+00 0. -1.
<scales pt_clust_5="13000.00000" pt_clust_6="13000.00000" pt_clust_7="13000.00000" pt_clust_8="13000.00000" pt_clust_9="30.88358"></scales>
<clustering>
<clus scale="   30.884">  1  9  2 -1</clus>
<clus scale="   79.986">  5  6 -1 -1</clus>
<clus scale="   93.663">  7  8 -1 -1</clus>
<clus scale="  165.262">  2  5  1 -1</clus>
<clus scale="   30.884">  1  5  2 -1</clus>
</clustering>
</event>
<event>
 9    2  0.5615294E-005  0.1000869E+03  0.7546771E-02  0.1285767E+00
         21   -1    0    0  501  502  0.00000000000E+00  0.00000000000E+00  0.33544278650E+02  0.33544278650E+02  0.00000000000E+00 0. -1.
          2   -1    0    0  502    0 -0.00000000000E+00 -0.00000000000E+00 -0.48283774657E+03  0.48283774657E+03  0.00000000000E+00 0. -1.
         23    2    1    2    0    0 -0.30657832245E+02 -0.11929605831E+02 -0.27486377043E+03  0.29196250527E+03  0.92788975727E+02 0.  0.
         24    2    1    2    0    0  0.48702490469E+02 -0.19775563831E+02 -0.15539183396E+03  0.18327018555E+03  0.81721070401E+02 0.  0.
        -13    1    4    4    0    0  0.16120868109E+02  0.30658544044E+02 -0.77776889998E+02  0.85141490058E+02  0.00000000000E+00 0.  1.
         14    1    4    4    0    0  0.32581622360E+02 -0.50434107875E+02 -0.77614943958E+02  0.98128695489E+02  0.00000000000E+00 0. -1.
        -13    1    3    3    0    0  0.24738372460E+02 -0.61912936286E+00 -0.22842894307E+02  0.33677413996E+02  0.00000000000E+00 0. -1.
         13    1    3    3    0    0 -0.55396204705E+02 -0.11310476468E+02 -0.25202087612E+03  0.25828509128E+03  0.00000000000E+00 0.  1.
          1    1    1    2  501    0 -0.18044658224E+02  0.31705169662E+02 -0.19037863534E+02  0.41149334401E+02  0.00000000000E+00 0. -1.
<scales pt_clust_5="13000.00000" pt_clust_6="13000.00000" pt_clust_7="13000.00000" pt_clust_8="13000.00000" pt_clust_9="36.48051"></scales>
<clustering>
<clus scale="   36.481">  1  9  2 -1</clus>
<clus scale="   81.721">  5  6 -1 -1</clus>
<clus scale="   89.922">  1  5  2 -1</clus>
<clus scale="   92.789">  7  8 -1 -1</clus>
<clus scale="   36.481">  1  5  2 -1</clus>
</clustering>
</event>
<event>
 9    2  0.5615294E-005  0.9527424E+02  0.7546771E-02  0.1294903E+00
          2   -1    0    0  502    0 -0.00000000000E+00  0.00000000000E+00  0.24733683560E+03  0.24733683560E+03  0.00000000000E+00 0. -1.
         21   -1    0    0  501  502  0.00000000000E+00 -0.00000000000E+00 -0.36773112572E+03  0.36773112572E+03  0.00000000000E+00 0. -1.
         24    2    1    2    0    0 -0.18211361847E+02  0.32446127049E+02  0.21980346583E+03  0.23669783191E+03  0.79548068366E+02 0.  0.
         23    2    1    2    0    0  0.61156109327E+02 -0.92980243518E+01 -0.16753185484E+03  0.19894438041E+03  0.87666533793E+02 0.  0.
        -11    1    3    3    0    0 -0.34351828952E+02 -0.45915475857E+01  0.42450592194E+02  0.54801306911E+02  0.00000000000E+00 0.  1.
         12    1    3    3    0    0  0.16140467105E+02  0.37037674635E+02  0.17735287364E+03  0.18189652500E+03  0.00000000000E+00 0. -1.
        -11    1    4    4    0    0 -0.99143461852E+01 -0.31320837060E+02 -0.48935148965E+02  0.58940121298E+02  0.00000000000E+00 0.  1.
         11    1    4    4    0    0  0.71070455512E+02  0.22022812708E+02 -0.11859670587E+03  0.14000425911E+03  0.00000000000E+00 0. -1.
          1    1    1    2  501    0 -0.42944747479E+02 -0.23148102697E+02 -0.17266590111E+03  0.17942574899E+03  0.00000000000E+00 0. -1.
<scales pt_clust_5="13000.00000" pt_clust_6="13000.00000" pt_clust_7="13000.00000" pt_clust_8="13000.00000" pt_clust_9="48.78613"></scales>
<clustering>
<clus scale="   48.786">  2  9  1 -1</clus>
<clus scale="   79.548">  5  6 -1 -1</clus>
<clus scale="   87.667">  7  8 -1 -1</clus>
<clus scale="   87.862">  1  5  2 -1</clus>
<clus scale="   48.786">  2  5  1 -1</clus>
</clustering>
</event>
<event>
 9    2  0.5615294E-005  0.9526808E+02  0.7546771E-02  0.1295631E+00
          2   -1    0    0  502    0 -0.00000000000E+00  0.00000000000E+00  0.18388889273E+03  0.18388889273E+03  0.00000000000E+00 0. -1.
         21   -1    0    0  501  502  0.00000000000E+00 -0.00000000000E+00 -0.25628638768E+03  0.25628638768E+03  0.00000000000E+00 0. -1.
         23    2    1    2    0    0  0.20047416585E+02 -0.31028111077E+02  0.14133812890E+03  0.17184127701E+03  0.90489309942E+02 0.  0.
         24    2    1    2    0    0  0.38379344585E+02 -0.21153043691E+01 -0.88649255240E+02  0.12635241297E+03  0.81417401126E+02 0.  0.
        -11    1    4    4    0    0  0.20431157515E+01 -0.21947188122E+02  0.61711789640E+01  0.22889666626E+02  0.00000000000E+00 0.  1.
         12    1    4    4    0    0  0.36336228834E+02  0.19831883753E+02 -0.94820434204E+02  0.10346274635E+03  0.00000000000E+00 0. -1.
        -13    1    3    3    0    0  0.48576862112E+02 -0.21143795342E+02  0.12857328642E+03  0.13906063999E+03  0.00000000000E+00 0. -1.
         13    1    3    3    0    0 -0.28529445526E+02 -0.98843157352E+01  0.12764842478E+02  0.32780637015E+02  0.00000000000E+00 0.  1.
          1    1    1    2  501    0 -0.58426761171E+02  0.33143415447E+02 -0.12508636861E+03  0.14198159043E+03  0.00000000000E+00 0. -1.
<scales pt_clust_5="13000.00000" pt_clust_6="13000.00000" pt_clust_7="13000.00000" pt_clust_8="13000.00000" pt_clust_9="67.17271"></scales>
<clustering>
<clus scale="   67.173">  2  9  1 -1</clus>
<clus scale="   81.417">  5  6 -1 -1</clus>
<clus scale="   86.698">  2  5  1 -1</clus>
<clus scale="   90.489">  7  8 -1 -1</clus>
<clus scale="   67.173">  2  5  1 -1</clus>
</clustering>
</event>
<event>
 9    2  0.5615294E-005  0.9139747E+02  0.7546771E-02  0.1304004E+00
          2   -1    0    0  502    0 -0.00000000000E+00  0.00000000000E+00  0.35815563263E+03  0.35815563263E+03  0.00000000000E+00 0. -1.
         21   -1    0    0  501  502  0.00000000000E+00 -0.00000000000E+00 -0.21124215758E+03  0.21124215758E+03  0.00000000000E+00 0. -1.
         24    2    1    2    0    0  0.26808832795E+02  0.19317008412E+02  0.23389258111E+03  0.24971465326E+03  0.80992643020E+02 0.  0.
         23    2    1    2    0    0 -0.10981081292E+02  0.35174596522E+02  0.91421265664E+02  0.13247591125E+03  0.88510919440E+02 0.  0.
        -13    1    3    3    0    0  0.51728876220E+02  0.26543814768E+02  0.19030752219E+03  0.19899096396E+03  0.00000000000E+00 0.  1.
         14    1    3    3    0    0 -0.24920043426E+02 -0.72268063560E+01  0.43585058923E+02  0.50723689296E+02  0.00000000000E+00 0. -1.
        -13    1    4    4    0    0  0.31536799807E+02  0.16123305980E+02  0.75231247834E+02  0.83152097920E+02  0.00000000000E+00 0.  1.
         13    1    4    4    0    0 -0.42517881099E+02  0.19051290543E+02  0.16190017830E+02  0.49323813334E+02  0.00000000000E+00 0. -1.
          1    1    1    2  501    0 -0.15827751503E+02 -0.54491604934E+02 -0.17840037172E+03  0.18720722570E+03  0.00000000000E+00 0. -1.
<scales pt_clust_5="13000.00000" pt_clust_6="13000.00000" pt_clust_7="13000.00000" pt_clust_8="13000.00000" pt_clust_9="56.74375"></scales>
<clustering>
<clus scale="   56.744">  2  9  1 -1</clus>
<clus scale="   80.993">  5  6 -1 -1</clus>
<clus scale="   84.138">  1  5  2 -1</clus>
<clus scale="   88.511">  7  8 -1 -1</clus>
<clus scale="   56.744">  2  5  1 -1</clus>
</clustering>
</event>
<event>
 9    2  0.5615294E-005  0.9234034E+02  0.7546771E-02  0.1299029E+00
          2   -1    0    0  502    0 -0.00000000000E+00  0.00000000000E+00  0.30356642440E+03  0.30356642440E+03  0.00000000000E+00 0. -1.
         21   -1    0    0  501  502  0.00000000000E+00 -0.00000000000E+00 -0.11612077209E+03  0.11612077209E+03  0.00000000000E+00 0. -1.
         24    2    1    2    0    0  0.15865342990E+02 -0.26733065248E+02  0.14266906815E+03  0.17252329192E+03  0.91888287407E+02 0.  0.
         23    2    1    2    0    0  0.70500909732E+01 -0.55949178421E+02  0.99923794304E+02  0.14517034928E+03  0.88936220374E+02 0.  0.
        -13    1    3    3    0    0  0.10838820111E+02 -0.37795513208E+02  0.11743710925E+02  0.41035296835E+02  0.00000000000E+00 0.  1.
         14    1    3    3    0    0  0.50265228786E+01  0.11062447959E+02  0.13092535723E+03  0.13148799509E+03  0.00000000000E+00 0. -1.
        -13    1    4    4    0    0 -0.17487563574E+02 -0.71284159995E+02  0.54933501063E+02  0.91678437405E+02  0.00000000000E+00 0. -1.
         13    1    4    4    0    0  0.24537654547E+02  0.15334981574E+02  0.44990293241E+02  0.53491911879E+02  0.00000000000E+00 0.  1.
          1    1    1    2  501    0 -0.22915433963E+02  0.82682243669E+02 -0.55147210151E+02  0.10199355528E+03  0.00000000000E+00 0. -1.
<scales pt_clust_5="13000.00000" pt_clust_6="13000.00000" pt_clust_7="13000.00000" pt_clust_8="13000.00000" pt_clust_9="85.79901"></scales>
<clustering>
<clus scale="   85.799">  2  9  1 -1</clus>
<clus scale="   88.936">  7  8 -1 -1</clus>
<clus scale="   89.403">  2  7  1 -1</clus>
<clus scale="   91.888">  5  6 -1 -1</clus>
<clus scale="   85.799">  2  5  1 -1</clus>
</clustering>
</event>
<event>
 9    2  0.5615294E-005  0.9889245E+02  0.7546771E-02  0.1283179E+00
         21   -1    0    0  501  502  0.00000000000E+00  0.00000000000E+00  0.12080393435E+03  0.12080393435E+03  0.00000000000E+00 0.  1.
          2   -1    0    0  502    0 -0.00000000000E+00 -0.00000000000E+00 -0.38484377248E+03  0.38484377248E+03  0.00000000000E+00 0. -1.
         24    2    1    2    0    0 -0.49717467157E+02 -0.10275910774E+02 -0.31408981363E+03  0.32854870016E+03  0.81941542980E+02 0.  0.
         23    2    1    2    0    0  0.73768093048E+02  0.35377156975E+01 -0.10407350776E+02  0.11168552045E+03  0.83132999126E+02 0.  0.
        -11    1    3    3    0    0 -0.26637943664E+02  0.46194936280E+01 -0.21154479691E+02  0.34328294089E+02  0.00000000000E+00 0.  1.
         12    1    3    3    0    0 -0.23079523492E+02 -0.14895404402E+02 -0.29293533394E+03  0.29422040607E+03  0.00000000000E+00 0. -1.
        -11    1    4    4    0    0  0.55658826447E+02  0.26264527791E+02  0.24520801271E+02  0.66249528878E+02  0.00000000000E+00 0.  1.
         11    1    4    4    0    0  0.18109266602E+02 -0.22726812094E+02 -0.34928152047E+02  0.45435991573E+02  0.00000000000E+00 0. -1.
          1    1    1    2  501    0 -0.24050625892E+02  0.67381950768E+01  0.60457326276E+02  0.65413486217E+02  0.00000000000E+00 0. -1.
<scales pt_clust_5="13000.00000" pt_clust_6="13000.00000" pt_clust_7="13000.00000" pt_clust_8="13000.00000" pt_clust_9="24.97671"></scales>
<clustering>
<clus scale="   24.977">  1  9  2 -1</clus>
<clus scale="   81.942">  5  6 -1 -1</clus>
<clus scale="   83.133">  7  8 -1 -1</clus>
<clus scale="   97.893">  2  5  1 -1</clus>
<clus scale="   24.977">  1  5  2 -1</clus>
</clustering>
</event>
<event>
 9    2  0.1088536E-004  0.1949508E+03  0.7546771E-02  0.1169428E+00
         21   -1    0    0  501  502  0.00000000000E+00  0.00000000000E+00  0.18766577235E+03  0.18766577235E+03  0.00000000000E+00 0. -1.
          2   -1    0    0  502    0 -0.00000000000E+00 -0.00000000000E+00 -0.14320601406E+04  0.14320601406E+04  0.00000000000E+00 0. -1.
         23    2    1    2    0    0  0.37457597876E+02 -0.93277431898E+02  0.58158763145E+02  0.14837481351E+03  0.92352003841E+02 0.  0.
         24    2    1    2    0    0 -0.75442667961E+02 -0.15333687448E+03 -0.52341084017E+02  0.19648183357E+03  0.81619413274E+02 0.  0.
        -13    1    4    4    0    0  0.41148696706E+01 -0.44329124070E+02  0.13228714628E+02  0.46443538668E+02  0.00000000000E+00 0.  1.
         14    1    4    4    0    0 -0.79557537631E+02 -0.10900775041E+03 -0.65569798646E+02  0.15003829491E+03  0.00000000000E+00 0. -1.
        -13    1    3    3    0    0  0.61025460419E+02 -0.81815640988E+02  0.65353300384E+02  0.12119801896E+03  0.00000000000E+00 0. -1.
         13    1    3    3    0    0 -0.23567862544E+02 -0.11461790910E+02 -0.71945372382E+01  0.27176794547E+02  0.00000000000E+00 0.  1.
          1    1    1    2  501    0  0.37985070085E+02  0.24661430638E+03 -0.12502120473E+04  0.12748692658E+04  0.00000000000E+00 0. -1.
<scales pt_clust_5="13000.00000" pt_clust_6="13000.00000" pt_clust_7="13000.00000" pt_clust_8="13000.00000" pt_clust_9="177.04271"></scales>
<clustering>
<clus scale="   81.619">  5  6 -1 -1</clus>
<clus scale="   92.352">  7  8 -1 -1</clus>
<clus scale="  136.502">  2  7  1 -1</clus>
<clus scale="  177.043">  1  9  2 -1</clus>
<clus scale="  177.043">  1  5  2 -1</clus>
</clustering>
</event>
<event>
 9    2  0.5615294E-005  0.1169279E+03  0.7546771E-02  0.1252577E+00
          2   -1    0    0  502    0 -0.00000000000E+00  0.00000000000E+00  0.93671988654E+03  0.93671988654E+03  0.00000000000E+00 0. -1.
         21   -1    0    0  501  502  0.00000000000E+00 -0.00000000000E+00 -0.24468086312E+02  0.24468086312E+02  0.00000000000E+00 0. -1.
         24    2    1    2    0    0 -0.68230749556E+02 -0.17080781031E+02  0.64843293404E+03  0.65714469008E+03  0.80166610827E+02 0.  0.
         23    2    1    2    0    0  0.77186770939E+02 -0.69067710419E+01  0.24164509771E+03  0.27017162822E+03  0.92708437330E+02 0.  0.
        -13    1    3    3    0    0 -0.21938833912E+02  0.30472746497E+02  0.16767673373E+03  0.17182953107E+03  0.00000000000E+00 0.  1.
         14    1    3    3    0    0 -0.46291915643E+02 -0.47553527528E+02  0.48075620031E+03  0.48531515901E+03  0.00000000000E+00 0. -1.
        -11    1    4    4    0    0  0.65937411074E+02  0.13587795620E+02  0.23694673749E+03  0.24632524592E+03  0.00000000000E+00 0.  1.
         11    1    4    4    0    0  0.11249359865E+02 -0.20494566662E+02  0.46983602190E+01  0.23846382299E+02  0.00000000000E+00 0. -1.
          1    1    1    2  501    0 -0.89560213829E+01  0.23987552073E+02  0.22173768474E+02  0.33871654548E+02  0.00000000000E+00 0. -1.
<scales pt_clust_5="13000.00000" pt_clust_6="13000.00000" pt_clust_7="13000.00000" pt_clust_8="13000.00000" pt_clust_9="25.60494"></scales>
<clustering>
<clus scale="   25.605">  2  9  1 -1</clus>
<clus scale="   80.167">  5  6 -1 -1</clus>
<clus scale="   92.708">  7  8 -1 -1</clus>
<clus scale="  107.257">  1  5  2 -1</clus>
<clus scale="   25.605">  2  5  1 -1</clus>
</clustering>
</event>
<event>
 9    2  0.5615294E-005  0.1226590E+03  0.7546771E-02  0.1247707E+00
         21   -1    0    0  501  502  0.00000000000E+00  0.00000000000E+00  0.95160179561E+02  0.95160179561E+02  0.00000000000E+00 0. -1.
          2   -1    0    0  502    0 -0.00000000000E+00 -0.00000000000E+00 -0.87999047741E+03  0.87999047741E+03  0.00000000000E+00 0. -1.
         24    2    1    2    0    0 -0.58482498119E+02  0.11781557109E+02 -0.81544558931E+03  0.82484214092E+03  0.10887626296E+03 0.  0.
         23    2    1    2    0    0  0.32593934642E+02  0.81337698780E+01 -0.16223316074E+02  0.93206036914E+02  0.85414556985E+02 0.  0.
        -13    1    3    3    0    0 -0.52052889762E+02  0.11622288012E+02 -0.14718040648E+03  0.15654600910E+03  0.00000000000E+00 0.  1.
         14    1    3    3    0    0 -0.64296083565E+01  0.15926909627E+00 -0.66826518283E+03  0.66829613182E+03  0.00000000000E+00 0. -1.
        -11    1    4    4    0    0  0.44565874980E+01  0.44810477378E+02 -0.12984643087E+02  0.46866203293E+02  0.00000000000E+00 0. -1.
         11    1    4    4    0    0  0.28137347144E+02 -0.36676707500E+02 -0.32386729870E+01  0.46339833621E+02  0.00000000000E+00 0.  1.
          1    1    1    2  501    0  0.25888563477E+02 -0.19915326987E+02  0.46838607535E+02  0.57102479138E+02  0.00000000000E+00 0. -1.
<scales pt_clust_5="13000.00000" pt_clust_6="13000.00000" pt_clust_7="13000.00000" pt_clust_8="13000.00000" pt_clust_9="32.66249"></scales>
<clustering>
<clus scale="   32.662">  1  9  2 -1</clus>
<clus scale="   85.415">  7  8 -1 -1</clus>
<clus scale="  102.405">  1  7  2 -1</clus>
<clus scale="  108.876">  5  6 -1 -1</clus>
<clus scale="   32.662">  1  5  2 -1</clus>
</clustering>
</event>
<event>
 9    2  0.7288710E-005  0.1822622E+03  0.7546771E-02  0.1191602E+00
         21   -1    0    0  501  502  0.00000000000E+00  0.00000000000E+00  0.14992519407E+03  0.14992519407E+03  0.00000000000E+00 0. -1.
          2   -1    0    0  502    0 -0.00000000000E+00 -0.00000000000E+00 -0.88590976847E+03  0.88590976847E+03  0.00000000000E+00 0. -1.
         23    2    1    2    0    0  0.29209339797E+02  0.24148609509E+02  0.66592733456E+02  0.12140635606E+03  0.94173086756E+02 0.  0.
         24    2    1    2    0    0 -0.16792832569E+03 -0.31856983006E+01 -0.13247812529E+03  0.22980074029E+03  0.83951505726E+02 0.  0.
        -11    1    4    4    0    0 -0.20904452658E+02  0.28987757697E+02 -0.14502753719E+02  0.38569626685E+02  0.00000000000E+00 0.  1.
         12    1    4    4    0    0 -0.14702387303E+03 -0.32173455998E+02 -0.11797537157E+03  0.19123111360E+03  0.00000000000E+00 0. -1.
        -11    1    3    3    0    0  0.28694619405E+02 -0.21211157399E+01  0.84728261070E+02  0.89480492504E+02  0.00000000000E+00 0. -1.
         11    1    3    3    0    0  0.51472039228E+00  0.26269725249E+02 -0.18135527614E+02  0.31925863553E+02  0.00000000000E+00 0.  1.
          1    1    1    2  501    0  0.13871898589E+03 -0.20962911209E+02 -0.67009918257E+03  0.68462786619E+03  0.00000000000E+00 0. -1.
<scales pt_clust_5="13000.00000" pt_clust_6="13000.00000" pt_clust_7="13000.00000" pt_clust_8="13000.00000" pt_clust_9="161.77667"></scales>
<clustering>
<clus scale="   83.952">  5  6 -1 -1</clus>
<clus scale="   94.173">  7  8 -1 -1</clus>
<clus scale="  101.513">  2  7  1 -1</clus>
<clus scale="  161.777">  1  9  2 -1</clus>
<clus scale="  161.777">  1  5  2 -1</clus>
</clustering>
</event>
<event>
 9    2  0.5615294E-005  0.1032539E+03  0.7546771E-02  0.1277160E+00
          2   -1    0    0  502    0 -0.00000000000E+00  0.00000000000E+00  0.72025441270E+03  0.72025441270E+03  0.00000000000E+00 0. -1.
         21   -1    0    0  501  502  0.00000000000E+00 -0.00000000000E+00 -0.34619179256E+02  0.34619179256E+02  0.00000000000E+00 0.  1.
         24    2    1    2    0    0  0.52568055038E+02 -0.41403291516E+02  0.27613292335E+03  0.29551775120E+03  0.81263257123E+02 0.  0.
         23    2    1    2    0    0  0.20133032763E+01  0.27596425402E+02  0.74075134621E+02  0.11923653188E+03  0.89244657428E+02 0.  0.
        -13    1    3    3    0    0  0.25295099921E+02 -0.59418914865E+02  0.23057090772E+03  0.23944392456E+03  0.00000000000E+00 0.  1.
         14    1    3    3    0    0  0.27272955116E+02  0.18015623349E+02  0.45562015631E+02  0.56073826638E+02  0.00000000000E+00 0. -1.
        -13    1    4    4    0    0  0.33827565787E+02  0.31640906993E+02  0.97123014203E+01  0.47326314047E+02  0.00000000000E+00 0.  1.
         13    1    4    4    0    0 -0.31814262511E+02 -0.40444815908E+01  0.64362833201E+02  0.71910217828E+02  0.00000000000E+00 0. -1.
          1    1    1    2  501    0 -0.54581358314E+02  0.13806866114E+02  0.33542717547E+03  0.34011930888E+03  0.00000000000E+00 0. -1.
<scales pt_clust_5="13000.00000" pt_clust_6="13000.00000" pt_clust_7="13000.00000" pt_clust_8="13000.00000" pt_clust_9="56.30060"></scales>
<clustering>
<clus scale="   56.301">  2  9  1 -1</clus>
<clus scale="   81.263">  5  6 -1 -1</clus>
<clus scale="   89.245">  7  8 -1 -1</clus>
<clus scale="   96.439">  1  5  2 -1</clus>
<clus scale="   56.301">  2  5  1 -1</clus>
</clustering>
</event>
<event>
 9    2  0.5615294E-005  0.1001746E+03  0.7546771E-02  0.1287032E+00
         21   -1    0    0  501  502  0.00000000000E+00  0.00000000000E+00  0.33941023068E+02  0.33941023068E+02  0.00000000000E+00 0.  1.
         -1   -1    0    0    0  501 -0.00000000000E+00 -0.00000000000E+00 -0.49126434214E+03  0.49126434214E+03  0.00000000000E+00 0.  1.
         24    2    1    2    0    0  0.37310943774E+02 -0.21335913480E+02 -0.21766654448E+03  0.23565312273E+03  0.79412479725E+02 0.  0.
         23    2    1    2    0    0 -0.42682706761E+01  0.30836451042E+02 -0.81220208739E+02  0.12742814230E+03  0.93124133796E+02 0.  0.
        -13    1    3    3    0    0  0.52352268103E+02  0.34638245273E+01 -0.18340996351E+03  0.19076680206E+03  0.00000000000E+00 0.  1.
         14    1    3    3    0    0 -0.15041324329E+02 -0.24799738008E+02 -0.34256580973E+02  0.44886320665E+02  0.00000000000E+00 0. -1.
        -13    1    4    4    0    0 -0.35220468527E+02 -0.87791776730E+01 -0.65271305928E+02  0.74685331501E+02  0.00000000000E+00 0. -1.
         13    1    4    4    0    0  0.30952197850E+02  0.39615628715E+02 -0.15948902811E+02  0.52742810800E+02  0.00000000000E+00 0.  1.
         -2    1    1    2    0  502 -0.33042673098E+02 -0.95005375613E+01 -0.15843656585E+03  0.16212410017E+03  0.00000000000E+00 0.  1.
<scales pt_clust_5="13000.00000" pt_clust_6="13000.00000" pt_clust_7="13000.00000" pt_clust_8="13000.00000" pt_clust_9="34.38139"></scales>
<clustering>
<clus scale="   34.381">  1  9  2 -1</clus>
<clus scale="   79.412">  5  6 -1 -1</clus>
<clus scale="   87.574">  2  5  1 -1</clus>
<clus scale="   93.124">  7  8 -1 -1</clus>
<clus scale="   34.381">  1  5  2 -1</clus>
</clustering>
</event>
<event>
 9    2  0.5615294E-005  0.1744709E+03  0.7546771E-02  0.1174650E+00
         21   -1    0    0  501  502  0.00000000000E+00  0.00000000000E+00  0.66240847773E+02  0.66240847773E+02  0.00000000000E+00 0.  1.
          2   -1    0    0  502    0 -0.00000000000E+00 -0.00000000000E+00 -0.74256633334E+03  0.74256633334E+03  0.00000000000E+00 0. -1.
         23    2    1    2    0    0  0.47854573518E+02 -0.14330186617E+03 -0.53532422140E+03  0.56373077947E+03  0.91623603121E+02 0.  0.
         24    2    1    2    0    0 -0.23357055403E+02  0.14110726511E+03 -0.14621159753E+03  0.21993495694E+03  0.80850118911E+02 0.  0.
        -11    1    4    4    0    0 -0.86363205697E+01  0.13290356234E+03 -0.88730785556E+02  0.16003466881E+03  0.00000000000E+00 0.  1.
         12    1    4    4    0    0 -0.14720734834E+02  0.82037027757E+01 -0.57480811976E+02  0.59900288135E+02  0.00000000000E+00 0. -1.
        -13    1    3    3    0    0 -0.22961679563E+02 -0.74488122035E+02 -0.23764745288E+03  0.25010404018E+03  0.00000000000E+00 0. -1.
         13    1    3    3    0    0  0.70816253081E+02 -0.68813744137E+02 -0.29767676852E+03  0.31362673930E+03  0.00000000000E+00 0.  1.
          1    1    1    2  501    0 -0.24497518115E+02  0.21946010569E+01  0.52103333681E+01  0.25141444696E+02  0.00000000000E+00 0. -1.
<scales pt_clust_5="13000.00000" pt_clust_6="13000.00000" pt_clust_7="13000.00000" pt_clust_8="13000.00000" pt_clust_9="24.59562"></scales>
<clustering>
<clus scale="   24.596">  1  9  2 -1</clus>
<clus scale="   80.850">  5  6 -1 -1</clus>
<clus scale="   91.624">  7  8 -1 -1</clus>
<clus scale="  169.062">  1  5  2 -1</clus>
<clus scale="   24.596">  1  5  2 -1</clus>
</clustering>
</event>
<event>
 9    2  0.5615294E-005  0.2371473E+03  0.7546771E-02  0.1121708E+00
         21   -1    0    0  501  502  0.00000000000E+00  0.00000000000E+00  0.96645268127E+02  0.96645268127E+02  0.00000000000E+00 0.  1.
          2   -1    0    0  502    0 -0.00000000000E+00 -0.00000000000E+00 -0.49685027665E+03  0.49685027665E+03  0.00000000000E+00 0. -1.
         24    2    1    2    0    0  0.43795021948E+02 -0.74961411315E+02 -0.21113681860E+03  0.24120780833E+03  0.77879609005E+02 0.  0.
         23    2    1    2    0    0  0.38775480136E+02 -0.62301423864E+02 -0.14409728668E+03  0.18591058695E+03  0.91726294138E+02 0.  0.
        -11    1    3    3    0    0  0.47280856303E+02 -0.75140800347E+02 -0.21695861595E+03  0.23441983765E+03  0.00000000000E+00 0.  1.
         12    1    3    3    0    0 -0.34858343554E+01  0.17938903206E+00  0.58217973508E+01  0.67879706814E+01  0.00000000000E+00 0. -1.
        -13    1    4    4    0    0  0.16618871708E+02 -0.84299159246E+02 -0.99398170237E+02  0.13138695290E+03  0.00000000000E+00 0.  1.
         13    1    4    4    0    0  0.22156608429E+02  0.21997735382E+02 -0.44699116448E+02  0.54523634052E+02  0.00000000000E+00 0. -1.
          1    1    1    2  501    0 -0.82570502084E+02  0.13726283518E+03 -0.44970903243E+02  0.16637714950E+03  0.00000000000E+00 0. -1.
<scales pt_clust_5="13000.00000" pt_clust_6="13000.00000" pt_clust_7="13000.00000" pt_clust_8="13000.00000" pt_clust_9="160.18419"></scales>
<clustering>
<clus scale="   77.880">  5  6 -1 -1</clus>
<clus scale="   91.726">  7  8 -1 -1</clus>
<clus scale="   95.496">  5  7 -1 -1</clus>
<clus scale="  160.184">  1  9  2 -1</clus>
<clus scale="  160.184">  1  5  2 -1</clus>
</clustering>
</event>
<event>
 9    2  0.5615294E-005  0.8858865E+02  0.7546771E-02  0.1307157E+00
          2   -1    0    0  502    0 -0.00000000000E+00  0.00000000000E+00  0.48105942517E+03  0.48105942517E+03  0.00000000000E+00 0. -1.
         21   -1    0    0  501  502  0.00000000000E+00 -0.00000000000E+00 -0.80284427130E+02  0.80284427130E+02  0.00000000000E+00 0. -1.
         24    2    1    2    0    0  0.35378738115E+01  0.20727389734E+02  0.40686878122E+03  0.41632301062E+03  0.85676734334E+02 0.  0.
         23    2    1    2    0    0  0.11627645377E+01  0.14561870016E+02  0.31037837511E+02  0.93579757811E+02  0.87065628320E+02 0.  0.
        -13    1    3    3    0    0 -0.23223911435E+02 -0.14201131980E+02  0.51605552301E+02  0.58345138959E+02  0.00000000000E+00 0.  1.
         14    1    3    3    0    0  0.26761785247E+02  0.34928521714E+02  0.35526322892E+03  0.35797787166E+03  0.00000000000E+00 0. -1.
        -13    1    4    4    0    0  0.29715307610E+02  0.26937614017E+02  0.44294255506E+02  0.59754628491E+02  0.00000000000E+00 0. -1.
         13    1    4    4    0    0 -0.28552543072E+02 -0.12375744001E+02 -0.13256417995E+02  0.33825129320E+02  0.00000000000E+00 0.  1.
          1    1    1    2  501    0 -0.47006383492E+01 -0.35289259751E+02 -0.37131620689E+02  0.51441083869E+02  0.00000000000E+00 0. -1.
<scales pt_clust_5="13000.00000" pt_clust_6="13000.00000" pt_clust_7="13000.00000" pt_clust_8="13000.00000" pt_clust_9="35.60095"></scales>
<clustering>
<clus scale="   35.601">  2  9  1 -1</clus>
<clus scale="   85.677">  5  6 -1 -1</clus>
<clus scale="   87.066">  7  8 -1 -1</clus>
<clus scale="   87.224">  1  5  2 -1</clus>
<clus scale="   35.601">  2  5  1 -1</clus>
</clustering>
</event>
<event>
 9    2  0.5615294E-005  0.1179740E+03  0.7546771E-02  0.1250552E+00
          2   -1    0    0  502    0 -0.00000000000E+00  0.00000000000E+00  0.39233426460E+03  0.39233426460E+03  0.00000000000E+00 0. -1.
         21   -1    0    0  501  502  0.00000000000E+00 -0.00000000000E+00 -0.71298127189E+02  0.71298127189E+02  0.00000000000E+00 0.  1.
         24    2    1    2    0    0 -0.96928740558E+02  0.37534736263E+02  0.23193712590E+03  0.26526407781E+03  0.75935258170E+02 0.  0.
         23    2    1    2    0    0  0.17038698303E+02 -0.22579234657E+02  0.29687399601E+02  0.97691476972E+02  0.88668731244E+02 0.  0.
        -13    1    3    3    0    0 -0.68843648993E+02  0.58788243447E+02  0.19024696622E+03  0.21068795345E+03  0.00000000000E+00 0.  1.
         14    1    3    3    0    0 -0.28085091565E+02 -0.21253507183E+02  0.41690159684E+02  0.54576124362E+02  0.00000000000E+00 0. -1.
        -11    1    4    4    0    0  0.31338733590E+02  0.26802232371E+02  0.85979561725E+01  0.42123636280E+02  0.00000000000E+00 0.  1.
         11    1    4    4    0    0 -0.14300035287E+02 -0.49381467028E+02  0.21089443428E+02  0.55567840692E+02  0.00000000000E+00 0. -1.
          1    1    1    2  501    0  0.79890042255E+02 -0.14955501606E+02  0.59411611910E+02  0.10067683701E+03  0.00000000000E+00 0. -1.
<scales pt_clust_5="13000.00000" pt_clust_6="13000.00000" pt_clust_7="13000.00000" pt_clust_8="13000.00000" pt_clust_9="81.27783"></scales>
<clustering>
<clus scale="   75.935">  5  6 -1 -1</clus>
<clus scale="   81.278">  2  9  1 -1</clus>
<clus scale="   88.669">  7  8 -1 -1</clus>
<clus scale="  108.729">  1  5  2 -1</clus>
<clus scale="   81.278">  2  5  1 -1</clus>
</clustering>
</event>
<event>
 9    2  0.5615294E-005  0.1375519E+03  0.7546771E-02  0.1236647E+00
          2   -1    0    0  502    0 -0.00000000000E+00  0.00000000000E+00  0.18966642862E+03  0.18966642862E+03  0.00000000000E+00 0. -1.
         21   -1    0    0  501  502  0.00000000000E+00 -0.00000000000E+00 -0.17583446148E+03  0.17583446148E+03  0.00000000000E+00 0. -1.
         23    2    1    2    0    0 -0.83064872559E+01 -0.20349447700E+01  0.28307444981E+02  0.95139125700E+02  0.90426782907E+02 0.  0.
         24    2    1    2    0    0  0.71654173187E+02  0.88328648431E+02 -0.62719994367E+02  0.15294342691E+03  0.80756569225E+02 0.  0.
        -11    1    4    4    0    0  0.10811973074E+02  0.51965343647E+02  0.69790682711E+01  0.53535064174E+02  0.00000000000E+00 0.  1.
         12    1    4    4    0    0  0.60842200113E+02  0.36363304783E+02 -0.69699062639E+02  0.99408362737E+02  0.00000000000E+00 0. -1.
        -13    1    3    3    0    0  0.98702889715E+01 -0.41181002810E+02  0.30078700140E+02  0.51942523995E+02  0.00000000000E+00 0.  1.
         13    1    3    3    0    0 -0.18176776227E+02  0.39146058040E+02 -0.17712551594E+01  0.43196601706E+02  0.00000000000E+00 0. -1.
          1    1    1    2  501    0 -0.63347685931E+02 -0.86293703661E+02  0.48244516524E+02  0.11741833749E+03  0.00000000000E+00 0. -1.
<scales pt_clust_5="13000.00000" pt_clust_6="13000.00000" pt_clust_7="13000.00000" pt_clust_8="13000.00000" pt_clust_9="111.35036"></scales>
<clustering>
<clus scale="   80.757">  5  6 -1 -1</clus>
<clus scale="   90.427">  7  8 -1 -1</clus>
<clus scale="   90.830">  1  7  2 -1</clus>
<clus scale="  111.350">  2  9  1 -1</clus>
<clus scale="  111.350">  2  5  1 -1</clus>
</clustering>
</event>
<event>
 9    2  0.5615294E-005  0.9588701E+02  0.7546771E-02  0.1293895E+00
          2   -1    0    0  502    0 -0.00000000000E+00  0.00000000000E+00  0.40669507009E+03  0.40669507009E+03  0.00000000000E+00 0. -1.
         21   -1    0    0  501  502  0.00000000000E+00 -0.00000000000E+00 -0.71291181705E+02  0.71291181705E+02  0.00000000000E+00 0.  1.
         24    2    1    2    0    0 -0.18243615994E+02 -0.92927909944E+01  0.24231155206E+03  0.25662057535E+03  0.81975886356E+02 0.  0.
         23    2    1    2    0    0  0.85254343100E+02  0.33883777731E+02  0.67654842291E+02  0.14558823733E+03  0.90566791668E+02 0.  0.
        -13    1    3    3    0    0  0.12941552000E+02 -0.38756382432E+02  0.10140983163E+03  0.10933203967E+03  0.00000000000E+00 0.  1.
         14    1    3    3    0    0 -0.31185167994E+02  0.29463591438E+02  0.14090172043E+03  0.14728853568E+03  0.00000000000E+00 0. -1.
        -13    1    4    4    0    0  0.12212384623E+02 -0.22017041357E+02 -0.80801452796E+01  0.26442034643E+02  0.00000000000E+00 0. -1.
         13    1    4    4    0    0  0.73041958476E+02  0.55900819088E+02  0.75734987571E+02  0.11914620269E+03  0.00000000000E+00 0.  1.
          1    1    1    2  501    0 -0.67010727106E+02 -0.24590986737E+02  0.25437494039E+02  0.75777439116E+02  0.00000000000E+00 0. -1.
<scales pt_clust_5="13000.00000" pt_clust_6="13000.00000" pt_clust_7="13000.00000" pt_clust_8="13000.00000" pt_clust_9="71.38035"></scales>
<clustering>
<clus scale="   71.380">  2  9  1 -1</clus>
<clus scale="   81.976">  5  6 -1 -1</clus>
<clus scale="   87.818">  1  5  2 -1</clus>
<clus scale="   90.567">  7  8 -1 -1</clus>
<clus scale="   71.380">  2  5  1 -1</clus>
</clustering>
</event>
<event>
 9    2  0.5615294E-005  0.2206243E+03  0.7546771E-02  0.1171427E+00
         21   -1    0    0  501  502  0.00000000000E+00  0.00000000000E+00  0.48584818376E+03  0.48584818376E+03  0.00000000000E+00 0. -1.
          2   -1    0    0  502    0 -0.00000000000E+00 -0.00000000000E+00 -0.62916238454E+03  0.62916238454E+03  0.00000000000E+00 0. -1.
         24    2    1    2    0    0  0.31212136588E+02  0.23308280502E+02 -0.12952346314E+03  0.15770596437E+03  0.81100988179E+02 0.  0.
         23    2    1    2    0    0  0.10045188413E+03 -0.17448657980E+03  0.42273359340E+03  0.47694662896E+03  0.90764796775E+02 0.  0.
        -11    1    3    3    0    0  0.23512794024E+02 -0.61316254780E+01 -0.12451824748E+03  0.12686702594E+03  0.00000000000E+00 0.  1.
         12    1    3    3    0    0  0.76993425643E+01  0.29439905980E+02 -0.50052156602E+01  0.30838938436E+02  0.00000000000E+00 0. -1.
        -13    1    4    4    0    0  0.22112313512E+02 -0.12769906667E+03  0.24705662621E+03  0.27898563152E+03  0.00000000000E+00 0. -1.
         13    1    4    4    0    0  0.78339570617E+02 -0.46787513133E+02  0.17567696719E+03  0.19796099744E+03  0.00000000000E+00 0.  1.
          1    1    1    2  501    0 -0.13166402072E+03  0.15117829930E+03 -0.43652433103E+03  0.48035797497E+03  0.00000000000E+00 0. -1.
<scales pt_clust_5="13000.00000" pt_clust_6="13000.00000" pt_clust_7="13000.00000" pt_clust_8="13000.00000" pt_clust_9="201.08927"></scales>
<clustering>
<clus scale="   81.101">  5  6 -1 -1</clus>
<clus scale="   89.971">  2  5  1 -1</clus>
<clus scale="   90.765">  7  8 -1 -1</clus>
<clus scale="  201.089">  1  9  2 -1</clus>
<clus scale="  201.089">  1  5  2 -1</clus>
</clustering>
</event>
<event>
 9    2  0.5615294E-005  0.9186206E+02  0.7546771E-02  0.1302679E+00
          2   -1    0    0  502    0 -0.00000000000E+00  0.00000000000E+00  0.81541115805E+03  0.81541115805E+03  0.00000000000E+00 0. -1.
         21   -1    0    0  501  502  0.00000000000E+00 -0.00000000000E+00 -0.49799812457E+02  0.49799812457E+02  0.00000000000E+00 0. -1.
         24    2    1    2    0    0 -0.16629316002E+02  0.11357041106E+02  0.73448842446E+03  0.73938661099E+03  0.82545734684E+02 0.  0.
         23    2    1    2    0    0  0.13518468044E+01 -0.24295077275E+02  0.52018138819E+01  0.93072296280E+02  0.89684531541E+02 0.  0.
        -11    1    3    3    0    0  0.23107538839E+02 -0.14065396788E+02  0.11646373667E+03  0.11956419070E+03  0.00000000000E+00 0.  1.
         12    1    3    3    0    0 -0.39736854842E+02  0.25422437895E+02  0.61802468779E+03  0.61982242030E+03  0.00000000000E+00 0. -1.
        -13    1    4    4    0    0  0.28786190871E+02 -0.40468227531E+02 -0.18896382243E+02  0.53135632924E+02  0.00000000000E+00 0.  1.
         13    1    4    4    0    0 -0.27434344067E+02  0.16173150255E+02  0.24098196125E+02  0.39936663356E+02  0.00000000000E+00 0. -1.
          1    1    1    2  501    0  0.15277469198E+02  0.12938036169E+02  0.25921107247E+02  0.32752063231E+02  0.00000000000E+00 0. -1.
<scales pt_clust_5="13000.00000" pt_clust_6="13000.00000" pt_clust_7="13000.00000" pt_clust_8="13000.00000" pt_clust_9="20.01984"></scales>
<clustering>
<clus scale="   20.020">  2  9  1 -1</clus>
<clus scale="   82.546">  5  6 -1 -1</clus>
<clus scale="   84.907">  1  5  2 -1</clus>
<clus scale="   89.685">  7  8 -1 -1</clus>
<clus scale="   20.020">  2  5  1 -1</clus>
</clustering>
</event>
<event>
 9    2  0.5615294E-005  0.1198847E+03  0.7546771E-02  0.1246737E+00
          2   -1    0    0  502    0 -0.00000000000E+00  0.00000000000E+00  0.33824542333E+03  0.33824542333E+03  0.00000000000E+00 0. -1.
         21   -1    0    0  501  502  0.00000000000E+00 -0.00000000000E+00 -0.61042909773E+02  0.61042909773E+02  0.00000000000E+00 0.  1.
         24    2    1    2    0    0 -0.33437547486E+02 -0.61377776250E+02  0.14799230212E+03  0.18197918151E+03  0.79557526464E+02 0.  0.
         23    2    1    2    0    0  0.23766312462E+02  0.96988258725E+02  0.83444479212E+02  0.15852019434E+03  0.90521328776E+02 0.  0.
        -11    1    3    3    0    0  0.18680489378E+02 -0.47604104285E+02  0.60548822115E+02  0.79254471721E+02  0.00000000000E+00 0.  1.
         12    1    3    3    0    0 -0.52118036864E+02 -0.13773671965E+02  0.87443480005E+02  0.10272470979E+03  0.00000000000E+00 0. -1.
        -11    1    4    4    0    0  0.56416883994E+02  0.56254766968E+02  0.34017923155E+02  0.86629571753E+02  0.00000000000E+00 0.  1.
         11    1    4    4    0    0 -0.32650571532E+02  0.40733491757E+02  0.49426556057E+02  0.71890622585E+02  0.00000000000E+00 0. -1.
          1    1    1    2  501    0  0.96712350236E+01 -0.35610482475E+02  0.45765732225E+02  0.58788957254E+02  0.00000000000E+00 0. -1.
<scales pt_clust_5="13000.00000" pt_clust_6="13000.00000" pt_clust_7="13000.00000" pt_clust_8="13000.00000" pt_clust_9="36.90041"></scales>
<clustering>
<clus scale="   36.900">  2  9  1 -1</clus>
<clus scale="   79.558">  5  6 -1 -1</clus>
<clus scale="   90.521">  7  8 -1 -1</clus>
<clus scale="  111.837">  1  5  2 -1</clus>
<clus scale="   36.900">  2  5  1 -1</clus>
</clustering>
</event>
<event>
 9    2  0.5615294E-005  0.1053549E+03  0.7546771E-02  0.1271391E+00
         -3   -1    0    0    0  501 -0.00000000000E+00  0.00000000000E+00  0.78547426393E+02  0.78547426393E+02  0.00000000000E+00 0.  1.
         21   -1    0    0  501  502  0.00000000000E+00 -0.00000000000E+00 -0.26503139033E+03  0.26503139033E+03  0.00000000000E+00 0. -1.
         23    2    1    2    0    0  0.27010495337E+02 -0.32510562582E+02 -0.70737919214E+01  0.10084616043E+03  0.91287490943E+02 0.  0.
         24    2    1    2    0    0 -0.35403520821E+02  0.74999418710E+02 -0.12651442930E+03  0.17436815258E+03  0.86718104903E+02 0.  0.
        -13    1    4    4    0    0  0.21552277556E+02  0.20050566010E+02 -0.57674237150E+01  0.29996483818E+02  0.00000000000E+00 0.  1.
         14    1    4    4    0    0 -0.56955798377E+02  0.54948852700E+02 -0.12074700559E+03  0.14437166876E+03  0.00000000000E+00 0. -1.
        -11    1    3    3    0    0 -0.17119454099E+02 -0.39684708567E+02 -0.27984316429E+02  0.51488579012E+02  0.00000000000E+00 0. -1.
         11    1    3    3    0    0  0.44129949436E+02  0.71741459844E+01  0.20910524507E+02  0.49357581414E+02  0.00000000000E+00 0.  1.
         -4    1    1    2    0  502  0.83930254837E+01 -0.42488856128E+02 -0.52895742710E+02  0.68364503719E+02  0.00000000000E+00 0.  1.
<scales pt_clust_5="13000.00000" pt_clust_6="13000.00000" pt_clust_7="13000.00000" pt_clust_8="13000.00000" pt_clust_9="43.30988"></scales>
<clustering>
<clus scale="   43.310">  2  9  1 -1</clus>
<clus scale="   86.718">  5  6 -1 -1</clus>
<clus scale="   91.287">  7  8 -1 -1</clus>
<clus scale="  101.421">  2  5  1 -1</clus>
<clus scale="   43.310">  2  5  1 -1</clus>
</clustering>
</event>
<event>
 9    2  0.5615294E-005  0.2081982E+03  0.7546771E-02  0.1162502E+00
         21   -1    0    0  501  502  0.00000000000E+00  0.00000000000E+00  0.11885292155E+03  0.11885292155E+03  0.00000000000E+00 0. -1.
          2   -1    0    0  502    0 -0.00000000000E+00 -0.00000000000E+00 -0.18783534999E+04  0.18783534999E+04  0.00000000000E+00 0. -1.
         23    2    1    2    0    0  0.66675312110E+02  0.64198884218E+02 -0.61885697655E+02  0.14529148535E+03  0.93341749299E+02 0.  0.
         24    2    1    2    0    0 -0.13801446028E+03 -0.23042171117E+03 -0.16365913416E+04  0.16610139812E+04  0.91619156953E+02 0.  0.
        -13    1    4    4    0    0  0.10146921335E+01 -0.75665995692E+02 -0.41913367437E+03  0.42591009556E+03  0.00000000000E+00 0.  1.
         14    1    4    4    0    0 -0.13902915242E+03 -0.15475571548E+03 -0.12174576673E+04  0.12351038856E+04  0.00000000000E+00 0. -1.
        -13    1    3    3    0    0 -0.19004488354E+02  0.31281838580E+02 -0.32410968591E+02  0.48889619425E+02  0.00000000000E+00 0.  1.
         13    1    3    3    0    0  0.85679800464E+02  0.32917045638E+02 -0.29474729064E+02  0.96401865929E+02  0.00000000000E+00 0. -1.
          1    1    1    2  501    0  0.71339148172E+02  0.16622282696E+03 -0.61023539033E+02  0.19090095489E+03  0.00000000000E+00 0. -1.
<scales pt_clust_5="13000.00000" pt_clust_6="13000.00000" pt_clust_7="13000.00000" pt_clust_8="13000.00000" pt_clust_9="186.95565"></scales>
<clustering>
<clus scale="   91.619">  5  6 -1 -1</clus>
<clus scale="   93.342">  7  8 -1 -1</clus>
<clus scale="  131.453">  2  7  1 -1</clus>
<clus scale="  186.956">  1  9  2 -1</clus>
<clus scale="  186.956">  1  5  2 -1</clus>
</clustering>
</event>
<event>
 9    2  0.5615294E-005  0.1338408E+03  0.7546771E-02  0.1224774E+00
         21   -1    0    0  501  502  0.00000000000E+00  0.00000000000E+00  0.37812199081E+03  0.37812199081E+03  0.00000000000E+00 0. -1.
          2   -1    0    0  502    0 -0.00000000000E+00 -0.00000000000E+00 -0.31123623312E+03  0.31123623312E+03  0.00000000000E+00 0. -1.
         24    2    1    2    0    0  0.81080969322E+02  0.94566294321E+01 -0.16405271176E+03  0.20002654415E+03  0.80210814126E+02 0.  0.
         23    2    1    2    0    0 -0.15955207642E+03  0.24350246918E+02 -0.52655969150E+02  0.19314520956E+03  0.92101146977E+02 0.  0.
        -13    1    3    3    0    0 -0.93579794416E+01  0.19908627091E+02 -0.20690780666E+02  0.30199894312E+02  0.00000000000E+00 0.  1.
         14    1    3    3    0    0  0.90438948764E+02 -0.10451997659E+02 -0.14336193109E+03  0.16982664984E+03  0.00000000000E+00 0. -1.
        -11    1    4    4    0    0 -0.55099246603E+02 -0.34748067849E+02 -0.26441801233E+02  0.70303087044E+02  0.00000000000E+00 0.  1.
         11    1    4    4    0    0 -0.10445282982E+03  0.59098314767E+02 -0.26214167917E+02  0.12284212252E+03  0.00000000000E+00 0. -1.
          1    1    1    2  501    0  0.78471107101E+02 -0.33806876350E+02  0.28359443860E+03  0.29618647022E+03  0.00000000000E+00 0. -1.
<scales pt_clust_5="13000.00000" pt_clust_6="13000.00000" pt_clust_7="13000.00000" pt_clust_8="13000.00000" pt_clust_9="85.44366"></scales>
<clustering>
<clus scale="   80.211">  5  6 -1 -1</clus>
<clus scale="   85.444">  1  9  2 -1</clus>
<clus scale="   92.101">  7  8 -1 -1</clus>
<clus scale="  125.954">  2  5  1 -1</clus>
<clus scale="   85.444">  1  5  2 -1</clus>
</clustering>
</event>
<event>
 9    2  0.1362551E-004  0.1536238E+03  0.7546771E-02  0.1198021E+00
          2   -1    0    0  502    0 -0.00000000000E+00  0.00000000000E+00  0.68279108505E+03  0.68279108505E+03  0.00000000000E+00 0. -1.
         21   -1    0    0  501  502  0.00000000000E+00 -0.00000000000E+00 -0.18407858325E+03  0.18407858325E+03  0.00000000000E+00 0. -1.
         23    2    1    2    0    0 -0.81602010875E+02  0.10509884919E+03  0.21572343167E+03  0.26949388054E+03  0.91573448086E+02 0.  0.
         24    2    1    2    0    0  0.10695034989E-01 -0.84162531234E+02 -0.13078411522E+03  0.17511553490E+03  0.80483749865E+02 0.  0.
        -13    1    4    4    0    0  0.28142856915E+02 -0.26126201033E+02 -0.12487711248E+02  0.40379966666E+02  0.00000000000E+00 0.  1.
         14    1    4    4    0    0 -0.28132161880E+02 -0.58036330200E+02 -0.11829640397E+03  0.13473556824E+03  0.00000000000E+00 0. -1.
        -11    1    3    3    0    0  0.64893690966E+01  0.62483987806E+02  0.71131373673E+02  0.94900120991E+02  0.00000000000E+00 0.  1.
         11    1    3    3    0    0 -0.88091379972E+02  0.42614861386E+02  0.14459205800E+03  0.17459375955E+03  0.00000000000E+00 0. -1.
          1    1    1    2  501    0  0.81591315840E+02 -0.20936317959E+02  0.41377318535E+03  0.42226025286E+03  0.00000000000E+00 0. -1.
<scales pt_clust_5="13000.00000" pt_clust_6="13000.00000" pt_clust_7="13000.00000" pt_clust_8="13000.00000" pt_clust_9="84.23467"></scales>
<clustering>
<clus scale="   80.484">  5  6 -1 -1</clus>
<clus scale="   84.235">  2  9  1 -1</clus>
<clus scale="   91.573">  7  8 -1 -1</clus>
<clus scale="  147.283">  2  5  1 -1</clus>
<clus scale="   84.235">  2  5  1 -1</clus>
</clustering>
</event>
<event>
 9    2  0.5615294E-005  0.1018062E+03  0.7546771E-02  0.1280292E+00
         21   -1    0    0  501  502  0.00000000000E+00  0.00000000000E+00  0.16760118395E+02  0.16760118395E+02  0.00000000000E+00 0. -1.
          2   -1    0    0  502    0 -0.00000000000E+00 -0.00000000000E+00 -0.99030200463E+03  0.99030200463E+03  0.00000000000E+00 0. -1.
         24    2    1    2    0    0 -0.34174987371E+02  0.43970980266E+02 -0.71623044490E+03  0.72281700750E+03  0.79856116011E+02 0.  0.
         23    2    1    2    0    0  0.17995763903E+02 -0.29103136987E+02 -0.17309138673E+03  0.19720582765E+03  0.88083313960E+02 0.  0.
        -11    1    3    3    0    0 -0.46376116463E+02  0.62107000085E+01 -0.21572994922E+03  0.22074584473E+03  0.00000000000E+00 0.  1.
         12    1    3    3    0    0  0.12201129092E+02  0.37760280257E+02 -0.50050049568E+03  0.50207116277E+03  0.00000000000E+00 0. -1.
        -13    1    4    4    0    0 -0.30882626771E+02  0.64339395397E+01 -0.39263745055E+02  0.50366396436E+02  0.00000000000E+00 0. -1.
         13    1    4    4    0    0  0.48878390674E+02 -0.35537076526E+02 -0.13382764167E+03  0.14683943121E+03  0.00000000000E+00 0.  1.
          1    1    1    2  501    0  0.16179223468E+02 -0.14867843279E+02 -0.84220054606E+02  0.87039287874E+02  0.00000000000E+00 0. -1.
<scales pt_clust_5="13000.00000" pt_clust_6="13000.00000" pt_clust_7="13000.00000" pt_clust_8="13000.00000" pt_clust_9="21.97318"></scales>
<clustering>
<clus scale="   21.973">  1  9  2 -1</clus>
<clus scale="   79.856">  5  6 -1 -1</clus>
<clus scale="   88.083">  7  8 -1 -1</clus>
<clus scale="   94.778">  2  5  1 -1</clus>
<clus scale="   21.973">  1  5  2 -1</clus>
</clustering>
</event>
<event>
 9    2  0.5615294E-005  0.1000945E+03  0.7546771E-02  0.1286548E+00
          2   -1    0    0  502    0 -0.00000000000E+00  0.00000000000E+00  0.19208139540E+03  0.19208139540E+03  0.00000000000E+00 0. -1.
         21   -1    0    0  501  502  0.00000000000E+00 -0.00000000000E+00 -0.71063345079E+02  0.71063345079E+02  0.00000000000E+00 0.  1.
         24    2    1    2    0    0  0.18539117014E+02 -0.20654926346E+02  0.62129350943E+02  0.10465141028E+03  0.79508091308E+02 0.  0.
         23    2    1    2    0    0 -0.33518926317E+02  0.51436884348E+02  0.32912063741E+02  0.11551997538E+03  0.92154160402E+02 0.  0.
        -11    1    3    3    0    0 -0.22215436219E+02 -0.31183578278E+02  0.14134252597E+02  0.40813211796E+02  0.00000000000E+00 0.  1.
         12    1    3    3    0    0  0.40754553233E+02  0.10528651932E+02  0.47995098346E+02  0.63838198486E+02  0.00000000000E+00 0. -1.
        -11    1    4    4    0    0 -0.27726338250E+02 -0.10352029953E+02  0.43449788166E+02  0.52571840833E+02  0.00000000000E+00 0. -1.
         11    1    4    4    0    0 -0.57925880669E+01  0.61788914300E+02 -0.10537724425E+02  0.62948134547E+02  0.00000000000E+00 0.  1.
          1    1    1    2  501    0  0.14979809303E+02 -0.30781958002E+02  0.25976635639E+02  0.42973354818E+02  0.00000000000E+00 0. -1.
<scales pt_clust_5="13000.00000" pt_clust_6="13000.00000" pt_clust_7="13000.00000" pt_clust_8="13000.00000" pt_clust_9="34.23339"></scales>
<clustering>
<clus scale="   34.233">  2  9  1 -1</clus>
<clus scale="   79.508">  5  6 -1 -1</clus>
<clus scale="   88.589">  1  5  2 -1</clus>
<clus scale="   92.154">  7  8 -1 -1</clus>
<clus scale="   34.233">  2  5  1 -1</clus>
</clustering>
</event>
<event>
 9    2  0.5615294E-005  0.1399853E+03  0.7546771E-02  0.1215660E+00
          2   -1    0    0  502    0 -0.00000000000E+00  0.00000000000E+00  0.75183879640E+03  0.75183879640E+03  0.00000000000E+00 0. -1.
         21   -1    0    0  501  502  0.00000000000E+00 -0.00000000000E+00 -0.34751466908E+02  0.34751466908E+02  0.00000000000E+00 0. -1.
         24    2    1    2    0    0  0.11165696852E+03  0.33762879969E+02  0.32650202026E+03  0.35576781055E+03  0.79749326676E+02 0.  0.
         23    2    1    2    0    0 -0.79225181426E+02 -0.58407867863E+02  0.23897810381E+03  0.27383856512E+03  0.90492636417E+02 0.  0.
        -13    1    3    3    0    0  0.46050484563E+02 -0.21763996940E+02  0.16683111148E+03  0.17443319194E+03  0.00000000000E+00 0.  1.
         14    1    3    3    0    0  0.65606483961E+02  0.55526876909E+02  0.15967090878E+03  0.18133461861E+03  0.00000000000E+00 0. -1.
        -11    1    4    4    0    0  0.17711416970E+01 -0.28794413056E+02  0.13828572779E+03  0.14126286729E+03  0.00000000000E+00 0.  1.
         11    1    4    4    0    0 -0.80996323123E+02 -0.29613454806E+02  0.10069237602E+03  0.13257569783E+03  0.00000000000E+00 0. -1.
          1    1    1    2  501    0 -0.32431787097E+02  0.24644987894E+02  0.15160720542E+03  0.15698388764E+03  0.00000000000E+00 0. -1.
<scales pt_clust_5="13000.00000" pt_clust_6="13000.00000" pt_clust_7="13000.00000" pt_clust_8="13000.00000" pt_clust_9="40.73325"></scales>
<clustering>
<clus scale="   40.733">  2  9  1 -1</clus>
<clus scale="   79.749">  5  6 -1 -1</clus>
<clus scale="   90.493">  7  8 -1 -1</clus>
<clus scale="  133.293">  1  5  2 -1</clus>
<clus scale="   40.733">  2  5  1 -1</clus>
</clustering>
</event>
<event>
 9    2  0.5615294E-005  0.8674277E+02  0.7546771E-02  0.1311868E+00
         21   -1    0    0  501  502  0.00000000000E+00  0.00000000000E+00  0.38546009889E+02  0.38546009889E+02  0.00000000000E+00 0.  1.
          2   -1    0    0  502    0 -0.00000000000E+00 -0.00000000000E+00 -0.52428625730E+03  0.52428625730E+03  0.00000000000E+00 0. -1.
         24    2    1    2    0    0 -0.26258138313E+02  0.80549202194E+01 -0.39214746347E+03  0.40100539878E+03  0.79191698928E+02 0.  0.
         23    2    1    2    0    0  0.45691886383E+02 -0.20045045086E+02 -0.10023197535E+03  0.13804636125E+03  0.80751449880E+02 0.  0.
        -13    1    3    3    0    0 -0.23175954577E+02 -0.33857930402E+02 -0.16677352955E+03  0.17174659962E+03  0.00000000000E+00 0.  1.
         14    1    3    3    0    0 -0.30821837365E+01  0.41912850621E+02 -0.22537393392E+03  0.22925879916E+03  0.00000000000E+00 0. -1.
        -13    1    4    4    0    0  0.44690939600E+02 -0.40724701452E+02 -0.35568174003E+02  0.70148958600E+02  0.00000000000E+00 0.  1.
         13    1    4    4    0    0  0.10009467835E+01  0.20679656366E+02 -0.64663801347E+02  0.67897402649E+02  0.00000000000E+00 0. -1.
          1    1    1    2  501    0 -0.19433748070E+02  0.11990124867E+02  0.66391914048E+01  0.23780507162E+02  0.00000000000E+00 0. -1.
<scales pt_clust_5="13000.00000" pt_clust_6="13000.00000" pt_clust_7="13000.00000" pt_clust_8="13000.00000" pt_clust_9="22.83492"></scales>
<clustering>
<clus scale="   22.835">  1  9  2 -1</clus>
<clus scale="   79.192">  5  6 -1 -1</clus>
<clus scale="   80.751">  7  8 -1 -1</clus>
<clus scale="   85.293">  2  5  1 -1</clus>
<clus scale="   22.835">  1  5  2 -1</clus>
</clustering>
</event>
<event>
 9    2  0.5615294E-005  0.1306694E+03  0.7546771E-02  0.1247590E+00
          2   -1    0    0  502    0 -0.00000000000E+00  0.00000000000E+00  0.56737938237E+03  0.56737938237E+03  0.00000000000E+00 0. -1.
         21   -1    0    0  501  502  0.00000000000E+00 -0.00000000000E+00 -0.46255685652E+02  0.46255685652E+02  0.00000000000E+00 0. -1.
         24    2    1    2    0    0  0.22540977007E+02  0.18398431943E+02  0.22801353778E+03  0.24330787930E+03  0.79761850404E+02 0.  0.
         23    2    1    2    0    0 -0.10059793194E+03  0.23173673130E+02  0.16911350259E+03  0.21802387647E+03  0.90983904711E+02 0.  0.
        -13    1    3    3    0    0 -0.12018069657E+01  0.23242988632E+02  0.12465579803E+02  0.26402112422E+02  0.00000000000E+00 0.  1.
         14    1    3    3    0    0  0.23742783973E+02 -0.48445566890E+01  0.21554795797E+03  0.21690576688E+03  0.00000000000E+00 0. -1.
        -13    1    4    4    0    0 -0.36620654850E+02  0.46144420383E+02  0.12150886997E+03  0.13503623727E+03  0.00000000000E+00 0.  1.
         13    1    4    4    0    0 -0.63977277093E+02 -0.22970747253E+02  0.47604632613E+02  0.82987639199E+02  0.00000000000E+00 0. -1.
          1    1    1    2  501    0  0.78056954936E+02 -0.41572105073E+02  0.12399665635E+03  0.15230331225E+03  0.00000000000E+00 0. -1.
<scales pt_clust_5="13000.00000" pt_clust_6="13000.00000" pt_clust_7="13000.00000" pt_clust_8="13000.00000" pt_clust_9="93.78922"></scales>
<clustering>
<clus scale="   79.762">  5  6 -1 -1</clus>
<clus scale="   84.903">  1  5  2 -1</clus>
<clus scale="   90.984">  7  8 -1 -1</clus>
<clus scale="   93.789">  2  9  1 -1</clus>
<clus scale="   93.789">  2  5  1 -1</clus>
</clustering>
</event>
<event>
 9    2  0.5615294E-005  0.1421848E+03  0.7546771E-02  0.1212664E+00
         21   -1    0    0  501  502  0.00000000000E+00  0.00000000000E+00  0.58588440435E+02  0.58588440435E+02  0.00000000000E+00 0.  1.
         -3   -1    0    0    0  501 -0.00000000000E+00 -0.00000000000E+00 -0.92457807043E+03  0.92457807043E+03  0.00000000000E+00 0.  1.
         23    2    1    2    0    0 -0.11642928364E+03  0.12762380717E+02 -0.54970174847E+03  0.56962146221E+03  0.92617177081E+02 0.  0.
         24    2    1    2    0    0  0.78954483165E+02  0.97346212547E+02 -0.16829345695E+03  0.22531483671E+03  0.82060907155E+02 0.  0.
        -11    1    4    4    0    0  0.71118630591E+02  0.59118429934E+02 -0.60087821241E+02  0.11028778099E+03  0.00000000000E+00 0.  1.
         12    1    4    4    0    0  0.78358525741E+01  0.38227782613E+02 -0.10820563571E+03  0.11502705572E+03  0.00000000000E+00 0. -1.
        -13    1    3    3    0    0 -0.22181353349E+02  0.18743616801E+02 -0.31335337126E+02  0.42722815450E+02  0.00000000000E+00 0. -1.
         13    1    3    3    0    0 -0.94247930286E+02 -0.59812360843E+01 -0.51836641134E+03  0.52689864676E+03  0.00000000000E+00 0.  1.
         -4    1    1    2    0  502  0.37474800470E+02 -0.11010859326E+03 -0.14799442458E+03  0.18823021194E+03  0.00000000000E+00 0.  1.
<scales pt_clust_5="13000.00000" pt_clust_6="13000.00000" pt_clust_7="13000.00000" pt_clust_8="13000.00000" pt_clust_9="116.31106"></scales>
<clustering>
<clus scale="   82.061">  5  6 -1 -1</clus>
<clus scale="   92.617">  7  8 -1 -1</clus>
<clus scale="  116.311">  1  9  2 -1</clus>
<clus scale="  135.545">  1  5  2 -1</clus>
<clus scale="  116.311">  1  5  2 -1</clus>
</clustering>
</event>
<event>
 9    2  0.5615294E-005  0.1583481E+03  0.7546771E-02  0.1205652E+00
          2   -1    0    0  502    0 -0.00000000000E+00  0.00000000000E+00  0.51608677149E+03  0.51608677149E+03  0.00000000000E+00 0. -1.
         21   -1    0    0  501  502  0.00000000000E+00 -0.00000000000E+00 -0.14138762511E+03  0.14138762511E+03  0.00000000000E+00 0. -1.
         23    2    1    2    0    0 -0.64474822981E+02 -0.21618266879E+02 -0.45204980212E+02  0.12264064024E+03  0.91503465187E+02 0.  0.
         24    2    1    2    0    0  0.12473990549E+02 -0.11356933356E+03  0.34254212762E+03  0.37062458252E+03  0.83509747993E+02 0.  0.
        -13    1    4    4    0    0 -0.11925879176E+02 -0.44289551894E+02  0.45391015680E+02  0.64530111619E+02  0.00000000000E+00 0.  1.
         14    1    4    4    0    0  0.24399869726E+02 -0.69279781664E+02  0.29715111194E+03  0.30609447090E+03  0.00000000000E+00 0. -1.
        -11    1    3    3    0    0 -0.62099910344E+02 -0.46192856770E+02 -0.77537145226E+01  0.77783667760E+02  0.00000000000E+00 0. -1.
         11    1    3    3    0    0 -0.23749126370E+01  0.24574589891E+02 -0.37451265689E+02  0.44856972480E+02  0.00000000000E+00 0.  1.
          1    1    1    2  501    0  0.52000832432E+02  0.13518760044E+03  0.77361998969E+02  0.16420917383E+03  0.00000000000E+00 0. -1.
<scales pt_clust_5="13000.00000" pt_clust_6="13000.00000" pt_clust_7="13000.00000" pt_clust_8="13000.00000" pt_clust_9="134.53717"></scales>
<clustering>
<clus scale="   83.510">  5  6 -1 -1</clus>
<clus scale="   91.503">  7  8 -1 -1</clus>
<clus scale="  114.005">  1  7  2 -1</clus>
<clus scale="  134.537">  2  9  1 -1</clus>
<clus scale="  134.537">  2  5  1 -1</clus>
</clustering>
</event>
<event>
 9    2  0.5615294E-005  0.9253800E+02  0.7546771E-02  0.1303730E+00
          2   -1    0    0  502    0 -0.00000000000E+00  0.00000000000E+00  0.14039300839E+03  0.14039300839E+03  0.00000000000E+00 0. -1.
         21   -1    0    0  501  502  0.00000000000E+00 -0.00000000000E+00 -0.98703596875E+02  0.98703596875E+02  0.00000000000E+00 0. -1.
         24    2    1    2    0    0 -0.17108723952E+01  0.24076573490E+01  0.20831006050E+02  0.83248409602E+02  0.80545906103E+02 0.  0.
         23    2    1    2    0    0  0.18313558576E+02  0.32869303032E+02 -0.18045228793E+02  0.10077001595E+03  0.91723433879E+02 0.  0.
        -11    1    3    3    0    0  0.33286846334E+02 -0.17214319836E+02 -0.11627877613E+01  0.37492652903E+02  0.00000000000E+00 0.  1.
         12    1    3    3    0    0 -0.34997718729E+02  0.19621977185E+02  0.21993793811E+02  0.45755756699E+02  0.00000000000E+00 0. -1.
        -11    1    4    4    0    0 -0.12579952835E+02  0.51372777842E+02 -0.32375145838E+02  0.62012640522E+02  0.00000000000E+00 0. -1.
         11    1    4    4    0    0  0.30893511411E+02 -0.18503474810E+02  0.14329917046E+02  0.38757375426E+02  0.00000000000E+00 0.  1.
          1    1    1    2  501    0 -0.16602686181E+02 -0.35276960381E+02  0.38903634253E+02  0.55078179711E+02  0.00000000000E+00 0. -1.
<scales pt_clust_5="13000.00000" pt_clust_6="13000.00000" pt_clust_7="13000.00000" pt_clust_8="13000.00000" pt_clust_9="38.98865"></scales>
<clustering>
<clus scale="   38.989">  2  9  1 -1</clus>
<clus scale="   80.546">  5  6 -1 -1</clus>
<clus scale="   81.472">  1  5  2 -1</clus>
<clus scale="   91.723">  7  8 -1 -1</clus>
<clus scale="   38.989">  2  5  1 -1</clus>
</clustering>
</event>
<event>
 9    2  0.5615294E-005  0.1305024E+03  0.7546771E-02  0.1249705E+00
          2   -1    0    0  502    0 -0.00000000000E+00  0.00000000000E+00  0.40455482126E+03  0.40455482126E+03  0.00000000000E+00 0. -1.
         21   -1    0    0  501  502  0.00000000000E+00 -0.00000000000E+00 -0.65255377419E+02  0.65255377419E+02  0.00000000000E+00 0. -1.
         24    2    1    2    0    0  0.79779568625E+01 -0.13956545755E+02  0.10692235598E+03  0.13456002914E+03  0.80097304995E+02 0.  0.
         23    2    1    2    0    0 -0.40774704320E+02  0.97366412423E+02  0.19123973796E+03  0.23663417663E+03  0.90996161433E+02 0.  0.
        -13    1    3    3    0    0  0.27908058583E+02  0.14766493378E+02  0.90663264903E+02  0.96003836712E+02  0.00000000000E+00 0.  1.
         14    1    3    3    0    0 -0.19930101720E+02 -0.28723039133E+02  0.16259091080E+02  0.38556192425E+02  0.00000000000E+00 0. -1.
        -11    1    4    4    0    0  0.28779100405E+02  0.32748173907E+02  0.72604867614E+02  0.84688525288E+02  0.00000000000E+00 0.  1.
         11    1    4    4    0    0 -0.69553804725E+02  0.64618238516E+02  0.11863487034E+03  0.15194565134E+03  0.00000000000E+00 0. -1.
          1    1    1    2  501    0  0.32796747458E+02 -0.83409866668E+02  0.41137349905E+02  0.98615992915E+02  0.00000000000E+00 0. -1.
<scales pt_clust_5="13000.00000" pt_clust_6="13000.00000" pt_clust_7="13000.00000" pt_clust_8="13000.00000" pt_clust_9="93.54444"></scales>
<clustering>
<clus scale="   80.097">  5  6 -1 -1</clus>
<clus scale="   81.695">  1  5  2 -1</clus>
<clus scale="   90.996">  7  8 -1 -1</clus>
<clus scale="   93.544">  2  9  1 -1</clus>
<clus scale="   93.544">  2  5  1 -1</clus>
</clustering>
</event>
<event>
 9    2  0.5615294E-005  0.8982488E+02  0.7546771E-02  0.1306424E+00
         21   -1    0    0  501  502  0.00000000000E+00  0.00000000000E+00  0.31507331205E+02  0.31507331205E+02  0.00000000000E+00 0. -1.
          4   -1    0    0  502    0 -0.00000000000E+00 -0.00000000000E+00 -0.60017537225E+03  0.60017537225E+03  0.00000000000E+00 0. -1.
         24    2    1    2    0    0  0.99791600181E+01 -0.26610193415E+01 -0.36140783530E+03  0.37125724709E+03  0.84318772783E+02 0.  0.
         23    2    1    2    0    0  0.59572929219E+01  0.17529045207E+02 -0.21784812187E+03  0.23619463522E+03  0.89371946043E+02 0.  0.
        -13    1    3    3    0    0 -0.26337073713E+02 -0.23576988031E+02 -0.91058308360E+02  0.97678714865E+02  0.00000000000E+00 0.  1.
         14    1    3    3    0    0  0.36316233731E+02  0.20915968689E+02 -0.27034952694E+03  0.27357853223E+03  0.00000000000E+00 0. -1.
        -11    1    4    4    0    0 -0.41453187715E+02  0.12266487485E+02 -0.93469238411E+02  0.10298219271E+03  0.00000000000E+00 0.  1.
         11    1    4    4    0    0  0.47410480637E+02  0.52625577216E+01 -0.12437888346E+03  0.13321244251E+03  0.00000000000E+00 0. -1.
          3    1    1    2  501    0 -0.15936452940E+02 -0.14868025865E+02  0.10587916125E+02  0.24230821144E+02  0.00000000000E+00 0. -1.
<scales pt_clust_5="13000.00000" pt_clust_6="13000.00000" pt_clust_7="13000.00000" pt_clust_8="13000.00000" pt_clust_9="21.79515"></scales>
<clustering>
<clus scale="   21.795">  1  9  2 -1</clus>
<clus scale="   84.319">  5  6 -1 -1</clus>
<clus scale="   84.799">  2  5  1 -1</clus>
<clus scale="   89.372">  7  8 -1 -1</clus>
<clus scale="   21.795">  1  5  2 -1</clus>
</clustering>
</event>
<event>
 9    2  0.5615294E-005  0.9763503E+02  0.7546771E-02  0.1290881E+00
         21   -1    0    0  501  502  0.00000000000E+00  0.00000000000E+00  0.32349675352E+03  0.32349675352E+03  0.00000000000E+00 0. -1.
          2   -1    0    0  502    0 -0.00000000000E+00 -0.00000000000E+00 -0.83748818971E+02  0.83748818971E+02  0.00000000000E+00 0. -1.
         24    2    1    2    0    0  0.33636753068E+02  0.37879973776E+01  0.44921279307E+01  0.86905462987E+02  0.79916207383E+02 0.  0.
         23    2    1    2    0    0 -0.27143898224E+02 -0.81393971826E+02  0.19810002467E+03  0.23405339809E+03  0.90419044043E+02 0.  0.
        -13    1    3    3    0    0  0.57798019790E+02 -0.77219840346E+01 -0.49609867678E+01  0.58522230979E+02  0.00000000000E+00 0.  1.
         14    1    3    3    0    0 -0.24161266721E+02  0.11509981412E+02  0.94531146985E+01  0.28383232008E+02  0.00000000000E+00 0. -1.
        -13    1    4    4    0    0  0.32834356620E+02 -0.18507180855E+02  0.63154462447E+02  0.73546562427E+02  0.00000000000E+00 0.  1.
         13    1    4    4    0    0 -0.59978254844E+02 -0.62886790971E+02  0.13494556222E+03  0.16050683567E+03  0.00000000000E+00 0. -1.
          1    1    1    2  501    0 -0.64928548444E+01  0.77605974448E+02  0.37155781953E+02  0.86286711414E+02  0.00000000000E+00 0. -1.
<scales pt_clust_5="13000.00000" pt_clust_6="13000.00000" pt_clust_7="13000.00000" pt_clust_8="13000.00000" pt_clust_9="77.87715"></scales>
<clustering>
<clus scale="   77.877">  1  9  2 -1</clus>
<clus scale="   79.916">  5  6 -1 -1</clus>
<clus scale="   87.998">  2  5  1 -1</clus>
<clus scale="   90.419">  7  8 -1 -1</clus>
<clus scale="   77.877">  1  5  2 -1</clus>
</clustering>
</event>
<event>
 9    2  0.5615294E-005  0.3336103E+03  0.7546771E-02  0.1099038E+00
          4   -1    0    0  502    0 -0.00000000000E+00  0.00000000000E+00  0.73782168214E+03  0.73782168214E+03  0.00000000000E+00 0. -1.
         21   -1    0    0  501  502  0.00000000000E+00 -0.00000000000E+00 -0.33529666702E+03  0.33529666702E+03  0.00000000000E+00 0.  1.
         24    2    1    2    0    0  0.57257002309E+02 -0.11421790771E+03 -0.76551431435E+02  0.16992245285E+03  0.81788896389E+02 0.  0.
         23    2    1    2    0    0  0.16333145961E+03  0.29643154044E+03  0.62842985581E+01  0.35057170874E+03  0.91171304142E+02 0.  0.
        -11    1    3    3    0    0  0.50407350874E+02 -0.93180739088E+02 -0.18168203993E+02  0.10748783557E+03  0.00000000000E+00 0.  1.
         12    1    3    3    0    0  0.68496514354E+01 -0.21037168623E+02 -0.58383227442E+02  0.62434617280E+02  0.00000000000E+00 0. -1.
        -13    1    4    4    0    0  0.36768259635E+02  0.85390186283E+02  0.41808846705E+02  0.10193806204E+03  0.00000000000E+00 0. -1.
         13    1    4    4    0    0  0.12656319998E+03  0.21104135415E+03 -0.35524548147E+02  0.24863364670E+03  0.00000000000E+00 0.  1.
          3    1    1    2  501    0 -0.22058846192E+03 -0.18221363273E+03  0.47279214799E+03  0.55262418757E+03  0.00000000000E+00 0. -1.
<scales pt_clust_5="13000.00000" pt_clust_6="13000.00000" pt_clust_7="13000.00000" pt_clust_8="13000.00000" pt_clust_9="320.91077"></scales>
<clustering>
<clus scale="   81.789">  5  6 -1 -1</clus>
<clus scale="   91.171">  7  8 -1 -1</clus>
<clus scale="  151.702">  1  5  2 -1</clus>
<clus scale="  320.911">  2  9  1 -1</clus>
<clus scale="  320.911">  2  5  1 -1</clus>
</clustering>
</event>
<event>
 9    2  0.5615294E-005  0.1108737E+03  0.7546771E-02  0.1267838E+00
         21   -1    0    0  501  502  0.00000000000E+00  0.00000000000E+00  0.14262080623E+03  0.14262080623E+03  0.00000000000E+00 0.  1.
          2   -1    0    0  502    0 -0.00000000000E+00 -0.00000000000E+00 -0.33541568767E+03  0.33541568767E+03  0.00000000000E+00 0. -1.
         24    2    1    2    0    0 -0.46332345825E+02 -0.28821971838E+02 -0.19736146118E+03  0.22286178819E+03  0.87968391738E+02 0.  0.
         23    2    1    2    0    0 -0.45677453480E+02  0.74633346789E+01 -0.69329459298E+02  0.13524714784E+03  0.10650392458E+03 0.  0.
        -13    1    3    3    0    0 -0.67048409863E+02  0.11655655837E+01 -0.12944006772E+03  0.14577921299E+03  0.00000000000E+00 0.  1.
         14    1    3    3    0    0  0.20716064037E+02 -0.29987537422E+02 -0.67921393458E+02  0.77082575198E+02  0.00000000000E+00 0. -1.
        -13    1    4    4    0    0  0.20345812754E+01  0.39824343540E+02  0.60669071323E+01  0.40335161107E+02  0.00000000000E+00 0.  1.
         13    1    4    4    0    0 -0.47712034756E+02 -0.32361008861E+02 -0.75396366430E+02  0.94911986735E+02  0.00000000000E+00 0. -1.
          1    1    1    2  501    0  0.92009799306E+02  0.21358637159E+02  0.73896039046E+02  0.11992755787E+03  0.00000000000E+00 0. -1.
<scales pt_clust_5="13000.00000" pt_clust_6="13000.00000" pt_clust_7="13000.00000" pt_clust_8="13000.00000" pt_clust_9="94.45631"></scales>
<clustering>
<clus scale="   87.968">  5  6 -1 -1</clus>
<clus scale="   94.456">  1  9  2 -1</clus>
<clus scale="   93.211">  2  5  1 -1</clus>
<clus scale="  106.504">  7  8 -1 -1</clus>
<clus scale="   94.456">  1  5  2 -1</clus>
</clustering>
</event>
<event>
 9    2  0.5615294E-005  0.1354762E+03  0.7546771E-02  0.1222444E+00
         21   -1    0    0  501  502  0.00000000000E+00  0.00000000000E+00  0.19842153191E+03  0.19842153191E+03  0.00000000000E+00 0. -1.
          2   -1    0    0  502    0 -0.00000000000E+00 -0.00000000000E+00 -0.56569592751E+03  0.56569592751E+03  0.00000000000E+00 0. -1.
         24    2    1    2    0    0 -0.59727584257E+02 -0.93010629934E+02 -0.47567061220E+03  0.49494688569E+03  0.80570011465E+02 0.  0.
         23    2    1    2    0    0  0.38819841818E+02  0.36715576832E+02 -0.35928251679E+02  0.11285096895E+03  0.92679491921E+02 0.  0.
        -11    1    3    3    0    0 -0.60746015824E+02 -0.21314360653E+02 -0.20012667334E+03  0.21022622527E+03  0.00000000000E+00 0.  1.
         12    1    3    3    0    0  0.10184315673E+01 -0.71696269281E+02 -0.27554393885E+03  0.28472066042E+03  0.00000000000E+00 0. -1.
        -11    1    4    4    0    0  0.33541719050E+02  0.66346497260E+02 -0.36342619728E+02  0.82750774160E+02  0.00000000000E+00 0.  1.
         11    1    4    4    0    0  0.52781227681E+01 -0.29630920427E+02  0.41436804856E+00  0.30100194787E+02  0.00000000000E+00 0. -1.
          1    1    1    2  501    0  0.20907742439E+02  0.56295053102E+02  0.14432446827E+03  0.15631960478E+03  0.00000000000E+00 0. -1.
<scales pt_clust_5="13000.00000" pt_clust_6="13000.00000" pt_clust_7="13000.00000" pt_clust_8="13000.00000" pt_clust_9="60.05220"></scales>
<clustering>
<clus scale="   60.052">  1  9  2 -1</clus>
<clus scale="   80.570">  5  6 -1 -1</clus>
<clus scale="   92.679">  7  8 -1 -1</clus>
<clus scale="  127.498">  2  5  1 -1</clus>
<clus scale="   60.052">  1  5  2 -1</clus>
</clustering>
</event>
<event>
 9    2  0.5615294E-005  0.2706116E+03  0.7546771E-02  0.1105857E+00
          2   -1    0    0  502    0 -0.00000000000E+00  0.00000000000E+00  0.86941741186E+03  0.86941741186E+03  0.00000000000E+00 0. -1.
         21   -1    0    0  501  502  0.00000000000E+00 -0.00000000000E+00 -0.45663974144E+03  0.45663974144E+03  0.00000000000E+00 0. -1.
         24    2    1    2    0    0  0.22394372975E+03  0.16685933576E+02 -0.30150310742E+03  0.38432414432E+03  0.79822989447E+02 0.  0.
         23    2    1    2    0    0 -0.24665382053E+03  0.22755260460E+03  0.53471710648E+03  0.63774070016E+03  0.90402000193E+02 0.  0.
        -11    1    3    3    0    0  0.91961722858E+02  0.45582338622E+02 -0.11696281387E+03  0.15561172158E+03  0.00000000000E+00 0.  1.
         12    1    3    3    0    0  0.13198200690E+03 -0.28896405046E+02 -0.18454029356E+03  0.22871242274E+03  0.00000000000E+00 0. -1.
        -13    1    4    4    0    0 -0.77676695955E+02  0.42002084382E+02  0.84063861378E+02  0.12192037146E+03  0.00000000000E+00 0.  1.
         13    1    4    4    0    0 -0.16897712458E+03  0.18555052021E+03  0.45065324510E+03  0.51582032871E+03  0.00000000000E+00 0. -1.
          1    1    1    2  501    0  0.22710090778E+02 -0.24423853817E+03  0.17956367136E+03  0.30399230882E+03  0.00000000000E+00 0. -1.
<scales pt_clust_5="13000.00000" pt_clust_6="13000.00000" pt_clust_7="13000.00000" pt_clust_8="13000.00000" pt_clust_9="255.06490"></scales>
<clustering>
<clus scale="   79.823">  5  6 -1 -1</clus>
<clus scale="   90.402">  7  8 -1 -1</clus>
<clus scale="  238.330">  1  5  2 -1</clus>
<clus scale="  255.065">  2  9  1 -1</clus>
<clus scale="  255.065">  2  5  1 -1</clus>
</clustering>
</event>
<event>
 9    2  0.5615294E-005  0.1116188E+03  0.7546771E-02  0.1271330E+00
         21   -1    0    0  501  502  0.00000000000E+00  0.00000000000E+00  0.10890195622E+03  0.10890195622E+03  0.00000000000E+00 0. -1.
          2   -1    0    0  502    0 -0.00000000000E+00 -0.00000000000E+00 -0.18532871780E+03  0.18532871780E+03  0.00000000000E+00 0. -1.
         23    2    1    2    0    0  0.30104043654E+02  0.20510708753E+02 -0.10650465056E+03  0.15698880735E+03  0.10943172495E+03 0.  0.
         24    2    1    2    0    0  0.97769240546E+01  0.70947517732E+01  0.30346207494E+02  0.88738000524E+02  0.82508282500E+02 0.  0.
        -13    1    4    4    0    0 -0.10922188369E+02 -0.33784487670E+02  0.36149944825E+01  0.35689690262E+02  0.00000000000E+00 0.  1.
         14    1    4    4    0    0  0.20699112423E+02  0.40879239443E+02  0.26731213011E+02  0.53048310262E+02  0.00000000000E+00 0. -1.
        -11    1    3    3    0    0  0.36541627701E+02  0.41557559459E+02 -0.11931461376E+03  0.13152299556E+03  0.00000000000E+00 0. -1.
         11    1    3    3    0    0 -0.64375840468E+01 -0.21046850706E+02  0.12809963205E+02  0.25465811794E+02  0.00000000000E+00 0.  1.
          1    1    1    2  501    0 -0.39880967709E+02 -0.27605460526E+02 -0.26831851307E+00  0.48503866146E+02  0.00000000000E+00 0. -1.
<scales pt_clust_5="13000.00000" pt_clust_6="13000.00000" pt_clust_7="13000.00000" pt_clust_8="13000.00000" pt_clust_9="48.50312"></scales>
<clustering>
<clus scale="   48.503">  1  9  2 -1</clus>
<clus scale="   82.508">  5  6 -1 -1</clus>
<clus scale="   85.388">  1  5  2 -1</clus>
<clus scale="  109.432">  7  8 -1 -1</clus>
<clus scale="   48.503">  1  5  2 -1</clus>
</clustering>
</event>
<event>
 9    2  0.5615294E-005  0.9725209E+02  0.7546771E-02  0.1291005E+00
          2   -1    0    0  502    0 -0.00000000000E+00  0.00000000000E+00  0.64858940890E+03  0.64858940890E+03  0.00000000000E+00 0. -1.
         21   -1    0    0  501  502  0.00000000000E+00 -0.00000000000E+00 -0.22660079399E+02  0.22660079399E+02  0.00000000000E+00 0.  1.
         24    2    1    2    0    0 -0.97267641016E+01  0.38259862332E+02  0.42837556274E+03  0.43792360333E+03  0.81933098259E+02 0.  0.
         23    2    1    2    0    0  0.62167375142E+01 -0.15659854207E+02  0.11470655060E+03  0.14737972811E+03  0.90990728367E+02 0.  0.
        -11    1    3    3    0    0 -0.76298866391E+01  0.50187306858E+02  0.13391097279E+03  0.14321008893E+03  0.00000000000E+00 0.  1.
         12    1    3    3    0    0 -0.20968774625E+01 -0.11927444527E+02  0.29446458995E+03  0.29471351439E+03  0.00000000000E+00 0. -1.
        -11    1    4    4    0    0 -0.13543125548E+02 -0.48461340529E+02  0.85545947457E+02  0.99247301736E+02  0.00000000000E+00 0.  1.
         11    1    4    4    0    0  0.19759863062E+02  0.32801486322E+02  0.29160603142E+02  0.48132426375E+02  0.00000000000E+00 0. -1.
          1    1    1    2  501    0  0.35100265873E+01 -0.22600008125E+02  0.82847216162E+02  0.85946156863E+02  0.00000000000E+00 0. -1.
<scales pt_clust_5="13000.00000" pt_clust_6="13000.00000" pt_clust_7="13000.00000" pt_clust_8="13000.00000" pt_clust_9="22.87097"></scales>
<clustering>
<clus scale="   22.871">  2  9  1 -1</clus>
<clus scale="   81.933">  5  6 -1 -1</clus>
<clus scale="   88.835">  1  5  2 -1</clus>
<clus scale="   90.991">  7  8 -1 -1</clus>
<clus scale="   22.871">  2  5  1 -1</clus>
</clustering>
</event>
<event>
 9    2  0.5615294E-005  0.1166438E+03  0.7546771E-02  0.1253068E+00
         21   -1    0    0  501  502  0.00000000000E+00  0.00000000000E+00  0.22825407758E+03  0.22825407758E+03  0.00000000000E+00 0. -1.
          2   -1    0    0  502    0 -0.00000000000E+00 -0.00000000000E+00 -0.24552797407E+03  0.24552797407E+03  0.00000000000E+00 0. -1.
         24    2    1    2    0    0  0.15653543535E+02  0.67089573091E+02 -0.17767823948E+03  0.20592509147E+03  0.78035519296E+02 0.  0.
         23    2    1    2    0    0 -0.15729554724E+02 -0.99221224132E+02  0.37073321602E+02  0.14040897231E+03  0.90818379859E+02 0.  0.
        -11    1    3    3    0    0  0.20416965452E+02  0.55597432575E+01 -0.39038241718E+01  0.21517506048E+02  0.00000000000E+00 0.  1.
         12    1    3    3    0    0 -0.47634219167E+01  0.61529829834E+02 -0.17377441530E+03  0.18440758542E+03  0.00000000000E+00 0. -1.
        -11    1    4    4    0    0 -0.29942459222E+02 -0.49513564158E+02  0.60441036891E+02  0.83673549228E+02  0.00000000000E+00 0.  1.
         11    1    4    4    0    0  0.14212904498E+02 -0.49707659974E+02 -0.23367715289E+02  0.56735423081E+02  0.00000000000E+00 0. -1.
          1    1    1    2  501    0  0.76011188560E-01  0.32131651041E+02  0.12333102138E+03  0.12744798787E+03  0.00000000000E+00 0. -1.
<scales pt_clust_5="13000.00000" pt_clust_6="13000.00000" pt_clust_7="13000.00000" pt_clust_8="13000.00000" pt_clust_9="32.13174"></scales>
<clustering>
<clus scale="   32.132">  1  9  2 -1</clus>
<clus scale="   78.036">  5  6 -1 -1</clus>
<clus scale="   90.818">  7  8 -1 -1</clus>
<clus scale="  106.992">  2  5  1 -1</clus>
<clus scale="   32.132">  1  5  2 -1</clus>
</clustering>
</event>
<event>
 9    2  0.5615294E-005  0.1009259E+03  0.7546771E-02  0.1283519E+00
         21   -1    0    0  501  502  0.00000000000E+00  0.00000000000E+00  0.14848340386E+02  0.14848340386E+02  0.00000000000E+00 0.  1.
          2   -1    0    0  502    0 -0.00000000000E+00 -0.00000000000E+00 -0.10801561454E+04  0.10801561454E+04  0.00000000000E+00 0. -1.
         24    2    1    2    0    0  0.15658479447E+02 -0.49375331207E+02 -0.74561179334E+03  0.75172130907E+03  0.80404408022E+02 0.  0.
         23    2    1    2    0    0 -0.81326241565E+01  0.20928878664E+02 -0.26641643282E+03  0.28241814010E+03  0.90984243921E+02 0.  0.
        -11    1    3    3    0    0 -0.23787415099E+02 -0.42463193170E+02 -0.26413621085E+03  0.26858313754E+03  0.00000000000E+00 0.  1.
         12    1    3    3    0    0  0.39445894546E+02 -0.69121380371E+01 -0.48147558249E+03  0.48313817153E+03  0.00000000000E+00 0. -1.
        -11    1    4    4    0    0  0.19966627126E+02  0.37891687604E+02 -0.22755415671E+03  0.23154986595E+03  0.00000000000E+00 0. -1.
         11    1    4    4    0    0 -0.28099251282E+02 -0.16962808940E+02 -0.38862276112E+02  0.50868274144E+02  0.00000000000E+00 0.  1.
          1    1    1    2  501    0 -0.75258552907E+01  0.28446452543E+02 -0.53279578863E+02  0.60865036630E+02  0.00000000000E+00 0. -1.
<scales pt_clust_5="13000.00000" pt_clust_6="13000.00000" pt_clust_7="13000.00000" pt_clust_8="13000.00000" pt_clust_9="29.42515"></scales>
<clustering>
<clus scale="   29.425">  1  9  2 -1</clus>
<clus scale="   80.404">  5  6 -1 -1</clus>
<clus scale="   90.984">  7  8 -1 -1</clus>
<clus scale="   91.503">  2  5  1 -1</clus>
<clus scale="   29.425">  1  5  2 -1</clus>
</clustering>
</event>
<event>
 9    2  0.5615294E-005  0.1851062E+03  0.7546771E-02  0.1164022E+00
         21   -1    0    0  501  502  0.00000000000E+00  0.00000000000E+00  0.60814815941E+03  0.60814815941E+03  0.00000000000E+00 0. -1.
          2   -1    0    0  502    0 -0.00000000000E+00 -0.00000000000E+00 -0.19295475201E+03  0.19295475201E+03  0.00000000000E+00 0. -1.
         23    2    1    2    0    0 -0.11167992784E+03  0.42338412966E+01  0.25651286804E+03  0.29443280641E+03  0.91659665764E+02 0.  0.
         24    2    1    2    0    0  0.21531642937E+03  0.28339552633E+02  0.26660679683E+03  0.35353739297E+03  0.82129222000E+02 0.  0.
        -11    1    4    4    0    0  0.41313256399E+02 -0.43178453131E+01  0.10847950476E+03  0.11616037145E+03  0.00000000000E+00 0.  1.
         12    1    4    4    0    0  0.17400317298E+03  0.32657397946E+02  0.15812729207E+03  0.23737702152E+03  0.00000000000E+00 0. -1.
        -13    1    3    3    0    0 -0.10027839343E+03 -0.19961638272E+02  0.24468207229E+03  0.26518585877E+03  0.00000000000E+00 0.  1.
         13    1    3    3    0    0 -0.11401534410E+02  0.24195479569E+02  0.11830795752E+02  0.29246947646E+02  0.00000000000E+00 0. -1.
          1    1    1    2  501    0 -0.10363650154E+03 -0.32573393929E+02 -0.10792625748E+03  0.15313271204E+03  0.00000000000E+00 0. -1.
<scales pt_clust_5="13000.00000" pt_clust_6="13000.00000" pt_clust_7="13000.00000" pt_clust_8="13000.00000" pt_clust_9="108.63500"></scales>
<clustering>
<clus scale="   82.129">  5  6 -1 -1</clus>
<clus scale="   91.660">  7  8 -1 -1</clus>
<clus scale="  108.635">  1  9  2 -1</clus>
<clus scale="  180.577">  1  5  2 -1</clus>
<clus scale="  108.635">  1  5  2 -1</clus>
</clustering>
</event>
<event>
 9    2  0.5615294E-005  0.1031538E+03  0.7546771E-02  0.1278170E+00
          2   -1    0    0  502    0 -0.00000000000E+00  0.00000000000E+00  0.48397313535E+02  0.48397313535E+02  0.00000000000E+00 0. -1.
         21   -1    0    0  501  502  0.00000000000E+00 -0.00000000000E+00 -0.77070806910E+03  0.77070806910E+03  0.00000000000E+00 0.  1.
         24    2    1    2    0    0 -0.42445586693E+02  0.65786405108E+01 -0.52350260394E+02  0.10467672480E+03  0.79823308701E+02 0.  0.
         23    2    1    2    0    0  0.11269299137E+03 -0.20303438263E+02 -0.58762215452E+03  0.60532929817E+03  0.89508786342E+02 0.  0.
        -11    1    3    3    0    0 -0.38823515402E+01 -0.32679340228E+02 -0.32288563729E+02  0.46103831499E+02  0.00000000000E+00 0.  1.
         12    1    3    3    0    0 -0.38563235153E+02  0.39257980739E+02 -0.20061696665E+02  0.58572893306E+02  0.00000000000E+00 0. -1.
        -13    1    4    4    0    0  0.96628133880E+02  0.94864568404E+01 -0.52726761395E+03  0.53613256368E+03  0.00000000000E+00 0.  1.
         13    1    4    4    0    0  0.16064857489E+02 -0.29789895103E+02 -0.60354540568E+02  0.69196734487E+02  0.00000000000E+00 0. -1.
          1    1    1    2  501    0 -0.70247404677E+02  0.13724797752E+02 -0.82338340653E+02  0.10909935966E+03  0.00000000000E+00 0. -1.
<scales pt_clust_5="13000.00000" pt_clust_6="13000.00000" pt_clust_7="13000.00000" pt_clust_8="13000.00000" pt_clust_9="71.57565"></scales>
<clustering>
<clus scale="   71.576">  2  9  1 -1</clus>
<clus scale="   79.823">  5  6 -1 -1</clus>
<clus scale="   89.509">  7  8 -1 -1</clus>
<clus scale="   94.872">  1  5  2 -1</clus>
<clus scale="   71.576">  2  5  1 -1</clus>
</clustering>
</event>
<event>
 9    2  0.5615294E-005  0.1050452E+03  0.7546771E-02  0.1274893E+00
          2   -1    0    0  502    0 -0.00000000000E+00  0.00000000000E+00  0.30100347661E+03  0.30100347661E+03  0.00000000000E+00 0. -1.
         21   -1    0    0  501  502  0.00000000000E+00 -0.00000000000E+00 -0.78747214655E+02  0.78747214655E+02  0.00000000000E+00 0. -1.
         23    2    1    2    0    0  0.39729038926E+02  0.47672098261E+02  0.18931502222E+03  0.21922552493E+03  0.91480203621E+02 0.  0.
         24    2    1    2    0    0  0.21912988894E+02 -0.40142605419E+02  0.58924196237E+01  0.92789861472E+02  0.80520990623E+02 0.  0.
        -11    1    4    4    0    0  0.24317796882E+02  0.38430129926E+01  0.32920209659E+02  0.41107957843E+02  0.00000000000E+00 0.  1.
         12    1    4    4    0    0 -0.24048079883E+01 -0.43985618412E+02 -0.27027790035E+02  0.51681903629E+02  0.00000000000E+00 0. -1.
        -13    1    3    3    0    0  0.41690081636E+01  0.67130883355E+02  0.14053445944E+03  0.15580073947E+03  0.00000000000E+00 0. -1.
         13    1    3    3    0    0  0.35560030763E+02 -0.19458785094E+02  0.48780562782E+02  0.63424785459E+02  0.00000000000E+00 0.  1.
          1    1    1    2  501    0 -0.61642027820E+02 -0.75294928422E+01  0.27048820115E+02  0.67735304870E+02  0.00000000000E+00 0. -1.
<scales pt_clust_5="13000.00000" pt_clust_6="13000.00000" pt_clust_7="13000.00000" pt_clust_8="13000.00000" pt_clust_9="62.10018"></scales>
<clustering>
<clus scale="   62.100">  2  9  1 -1</clus>
<clus scale="   80.521">  5  6 -1 -1</clus>
<clus scale="   91.480">  7  8 -1 -1</clus>
<clus scale="   95.653">  2  5  1 -1</clus>
<clus scale="   62.100">  2  5  1 -1</clus>
</clustering>
</event>
<event>
 9    2  0.5615294E-005  0.1071792E+03  0.7546771E-02  0.1279639E+00
          2   -1    0    0  502    0 -0.00000000000E+00  0.00000000000E+00  0.97294728957E+03  0.97294728957E+03  0.00000000000E+00 0. -1.
         21   -1    0    0  501  502  0.00000000000E+00 -0.00000000000E+00 -0.25764250065E+02  0.25764250065E+02  0.00000000000E+00 0. -1.
         24    2    1    2    0    0  0.29617477918E+01 -0.13613289417E+02  0.76080344729E+03  0.76529064673E+03  0.81570797295E+02 0.  0.
         23    2    1    2    0    0  0.12277198263E+02 -0.13903316179E+02  0.15429630295E+03  0.18849065241E+03  0.10666463868E+03 0.  0.
        -13    1    3    3    0    0 -0.12092597631E+02  0.16817120265E+02  0.56630736521E+02  0.60299973220E+02  0.00000000000E+00 0.  1.
         14    1    3    3    0    0  0.15054345423E+02 -0.30430409681E+02  0.70417271077E+03  0.70499067351E+03  0.00000000000E+00 0. -1.
        -13    1    4    4    0    0  0.32322689242E+02 -0.53925256919E+02  0.79939452328E+02  0.10170056840E+03  0.00000000000E+00 0. -1.
         13    1    4    4    0    0 -0.20045490979E+02  0.40021940740E+02  0.74356850623E+02  0.86790084018E+02  0.00000000000E+00 0.  1.
          1    1    1    2  501    0 -0.15238946055E+02  0.27516605596E+02  0.32083289268E+02  0.44930240492E+02  0.00000000000E+00 0. -1.
<scales pt_clust_5="13000.00000" pt_clust_6="13000.00000" pt_clust_7="13000.00000" pt_clust_8="13000.00000" pt_clust_9="31.45456"></scales>
<clustering>
<clus scale="   31.455">  2  9  1 -1</clus>
<clus scale="   81.571">  5  6 -1 -1</clus>
<clus scale="   82.242">  1  5  2 -1</clus>
<clus scale="  106.665">  7  8 -1 -1</clus>
<clus scale="   31.455">  2  5  1 -1</clus>
</clustering>
</event>
<event>
 9    2  0.5615294E-005  0.8329234E+02  0.7546771E-02  0.1321554E+00
          2   -1    0    0  502    0 -0.00000000000E+00  0.00000000000E+00  0.19553210480E+03  0.19553210480E+03  0.00000000000E+00 0. -1.
         21   -1    0    0  501  502  0.00000000000E+00 -0.00000000000E+00 -0.64786838251E+02  0.64786838251E+02  0.00000000000E+00 0. -1.
         24    2    1    2    0    0  0.47548780172E+01  0.14052601636E+00  0.10257537549E+03  0.13021135480E+03  0.80066601341E+02 0.  0.
         23    2    1    2    0    0 -0.26546358583E+02  0.25538339964E+02  0.75092281313E+01  0.90596377485E+02  0.82428145340E+02 0.  0.
        -11    1    3    3    0    0  0.29658127919E+02 -0.16411796033E+01  0.57963895164E+01  0.30263776261E+02  0.00000000000E+00 0.  1.
         12    1    3    3    0    0 -0.24903249902E+02  0.17817056197E+01  0.96778985971E+02  0.99947578540E+02  0.00000000000E+00 0. -1.
        -13    1    4    4    0    0  0.11168434815E+02  0.42461166858E+02  0.18774939412E+02  0.47751261524E+02  0.00000000000E+00 0.  1.
         13    1    4    4    0    0 -0.37714793397E+02 -0.16922826894E+02 -0.11265711281E+02  0.42845115962E+02  0.00000000000E+00 0. -1.
          1    1    1    2  501    0  0.21791480566E+02 -0.25678865980E+02  0.20660662930E+02  0.39511210763E+02  0.00000000000E+00 0. -1.
<scales pt_clust_5="13000.00000" pt_clust_6="13000.00000" pt_clust_7="13000.00000" pt_clust_8="13000.00000" pt_clust_9="33.67898"></scales>
<clustering>
<clus scale="   33.679">  2  9  1 -1</clus>
<clus scale="   80.067">  5  6 -1 -1</clus>
<clus scale="   80.956">  1  5  2 -1</clus>
<clus scale="   82.428">  7  8 -1 -1</clus>
<clus scale="   33.679">  2  5  1 -1</clus>
</clustering>
</event>
<event>
 9    2  0.5615294E-005  0.1032850E+03  0.7546771E-02  0.1275736E+00
         -1   -1    0    0    0  501 -0.00000000000E+00  0.00000000000E+00  0.31005869594E+03  0.31005869594E+03  0.00000000000E+00 0.  1.
         21   -1    0    0  501  502  0.00000000000E+00 -0.00000000000E+00 -0.78607297908E+02  0.78607297908E+02  0.00000000000E+00 0. -1.
         24    2    1    2    0    0 -0.73512921911E+01  0.34378427613E+02  0.75695666399E+02  0.11923921369E+03  0.85160075083E+02 0.  0.
         23    2    1    2    0    0  0.79688028524E+02 -0.51506610982E+02  0.49807007648E+02  0.14000070008E+03  0.90090760614E+02 0.  0.
        -13    1    3    3    0    0  0.13566447474E+02  0.56685753146E+02  0.63827273489E+02  0.86436357789E+02  0.00000000000E+00 0.  1.
         14    1    3    3    0    0 -0.20917739665E+02 -0.22307325533E+02  0.11868392909E+02  0.32802855902E+02  0.00000000000E+00 0. -1.
        -13    1    4    4    0    0  0.99677826876E+02 -0.38556747450E+02  0.38119225315E+02  0.11346967561E+03  0.00000000000E+00 0. -1.
         13    1    4    4    0    0 -0.19989798352E+02 -0.12949863532E+02  0.11687782333E+02  0.26531024471E+02  0.00000000000E+00 0.  1.
         -2    1    1    2    0  502 -0.72336736333E+02  0.17128183368E+02  0.10594872398E+03  0.12942608007E+03  0.00000000000E+00 0.  1.
<scales pt_clust_5="13000.00000" pt_clust_6="13000.00000" pt_clust_7="13000.00000" pt_clust_8="13000.00000" pt_clust_9="74.33696"></scales>
<clustering>
<clus scale="   74.337">  2  9  1 -1</clus>
<clus scale="   85.160">  5  6 -1 -1</clus>
<clus scale="   90.091">  7  8 -1 -1</clus>
<clus scale="   99.014">  1  5  2 -1</clus>
<clus scale="   74.337">  2  5  1 -1</clus>
</clustering>
</event>
<event>
 9    2  0.5615294E-005  0.1262406E+03  0.7546771E-02  0.1236179E+00
         21   -1    0    0  501  502  0.00000000000E+00  0.00000000000E+00  0.23356400331E+03  0.23356400331E+03  0.00000000000E+00 0.  1.
          2   -1    0    0  502    0 -0.00000000000E+00 -0.00000000000E+00 -0.21691782336E+03  0.21691782336E+03  0.00000000000E+00 0. -1.
         24    2    1    2    0    0  0.38615435752E+02  0.69695267240E+02 -0.90203560096E+02  0.14460971695E+03  0.80166737669E+02 0.  0.
         23    2    1    2    0    0 -0.55723131548E+02 -0.84213225196E+02 -0.51904706634E+02  0.14553989617E+03  0.91053984636E+02 0.  0.
        -13    1    3    3    0    0  0.10991359173E+02  0.69171344642E+02 -0.93457731104E+02  0.11678969303E+03  0.00000000000E+00 0.  1.
         14    1    3    3    0    0  0.27624076579E+02  0.52392259855E+00  0.32541710078E+01  0.27820023916E+02  0.00000000000E+00 0. -1.
        -13    1    4    4    0    0 -0.34408865698E+02 -0.24354470079E+02  0.22428062930E+02  0.47750688563E+02  0.00000000000E+00 0.  1.
         13    1    4    4    0    0 -0.21314265850E+02 -0.59858755117E+02 -0.74332769564E+02  0.97789207604E+02  0.00000000000E+00 0. -1.
          1    1    1    2  501    0  0.17107695795E+02  0.14517957956E+02  0.15875444669E+03  0.16033221355E+03  0.00000000000E+00 0. -1.
<scales pt_clust_5="13000.00000" pt_clust_6="13000.00000" pt_clust_7="13000.00000" pt_clust_8="13000.00000" pt_clust_9="22.43757"></scales>
<clustering>
<clus scale="   22.438">  1  9  2 -1</clus>
<clus scale="   80.167">  5  6 -1 -1</clus>
<clus scale="   91.054">  7  8 -1 -1</clus>
<clus scale="  118.628">  2  5  1 -1</clus>
<clus scale="   22.438">  1  5  2 -1</clus>
</clustering>
</event>
<event>
 9    2  0.5615294E-005  0.4174712E+03  0.7546771E-02  0.1038114E+00
          2   -1    0    0  502    0 -0.00000000000E+00  0.00000000000E+00  0.16790304918E+04  0.16790304918E+04  0.00000000000E+00 0. -1.
         21   -1    0    0  501  502  0.00000000000E+00 -0.00000000000E+00 -0.19726083760E+03  0.19726083760E+03  0.00000000000E+00 0.  1.
         23    2    1    2    0    0 -0.17923431684E+03  0.25460248195E+03  0.34058211236E+03  0.47040070368E+03  0.91286815116E+02 0.  0.
         24    2    1    2    0    0  0.37549770371E+03 -0.41097720493E+03  0.69394294063E+03  0.89305526781E+03  0.78039208405E+02 0.  0.
        -11    1    4    4    0    0  0.34372114613E+03 -0.37799490221E+03  0.66604316892E+03  0.83942711134E+03  0.00000000000E+00 0.  1.
         12    1    4    4    0    0  0.31776557580E+02 -0.32982302720E+02  0.27899771706E+02  0.53628156463E+02  0.00000000000E+00 0. -1.
        -11    1    3    3    0    0 -0.70128041328E+02  0.78432496733E+02  0.58488101360E+02  0.12037631297E+03  0.00000000000E+00 0.  1.
         11    1    3    3    0    0 -0.10910627552E+03  0.17616998522E+03  0.28209401100E+03  0.35002439071E+03  0.00000000000E+00 0. -1.
          1    1    1    2  501    0 -0.19626338686E+03  0.15637472298E+03  0.44724460120E+03  0.51283535790E+03  0.00000000000E+00 0. -1.
<scales pt_clust_5="13000.00000" pt_clust_6="13000.00000" pt_clust_7="13000.00000" pt_clust_8="13000.00000" pt_clust_9="250.94309"></scales>
<clustering>
<clus scale="   78.039">  5  6 -1 -1</clus>
<clus scale="   91.287">  7  8 -1 -1</clus>
<clus scale="  250.943">  2  9  1 -1</clus>
<clus scale="  414.776">  2  5  1 -1</clus>
<clus scale="  250.943">  2  5  1 -1</clus>
</clustering>
</event>
<event>
 9    2  0.5615294E-005  0.9776653E+02  0.7546771E-02  0.1297438E+00
          2   -1    0    0  502    0 -0.00000000000E+00  0.00000000000E+00  0.14677307806E+03  0.14677307806E+03  0.00000000000E+00 0. -1.
         21   -1    0    0  501  502  0.00000000000E+00 -0.00000000000E+00 -0.18300087090E+03  0.18300087090E+03  0.00000000000E+00 0. -1.
         24    2    1    2    0    0 -0.24115390643E+02 -0.25045683990E+02  0.10802184898E+03  0.13340101851E+03  0.70130403761E+02 0.  0.
         23    2    1    2    0    0  0.29774087509E+02 -0.83080587029E+01 -0.12201613804E+03  0.15589056771E+03  0.91969620161E+02 0.  0.
        -11    1    3    3    0    0  0.55660311003E+01  0.21884800214E+02  0.27393136819E+02  0.35500832771E+02  0.00000000000E+00 0.  1.
         12    1    3    3    0    0 -0.29681421744E+02 -0.46930484203E+02  0.80628712157E+02  0.97900185743E+02  0.00000000000E+00 0. -1.
        -13    1    4    4    0    0  0.56960773156E+02 -0.24632159322E+02 -0.98467412270E+02  0.11639202821E+03  0.00000000000E+00 0. -1.
         13    1    4    4    0    0 -0.27186685647E+02  0.16324100619E+02 -0.23548725774E+02  0.39498539505E+02  0.00000000000E+00 0.  1.
          1    1    1    2  501    0 -0.56586968655E+01  0.33353742693E+02 -0.22233503774E+02  0.40482362726E+02  0.00000000000E+00 0. -1.
<scales pt_clust_5="13000.00000" pt_clust_6="13000.00000" pt_clust_7="13000.00000" pt_clust_8="13000.00000" pt_clust_9="33.83036"></scales>
<clustering>
<clus scale="   33.830">  2  9  1 -1</clus>
<clus scale="   70.130">  5  6 -1 -1</clus>
<clus scale="   77.577">  1  5  2 -1</clus>
<clus scale="   91.970">  7  8 -1 -1</clus>
<clus scale="   33.830">  2  5  1 -1</clus>
</clustering>
</event>
<event>
 9    2  0.5615294E-005  0.1006993E+03  0.7546771E-02  0.1286463E+00
         21   -1    0    0  501  502  0.00000000000E+00  0.00000000000E+00  0.93701045665E+02  0.93701045665E+02  0.00000000000E+00 0. -1.
          4   -1    0    0  502    0 -0.00000000000E+00 -0.00000000000E+00 -0.19886891084E+03  0.19886891084E+03  0.00000000000E+00 0. -1.
         24    2    1    2    0    0  0.32696568329E+02 -0.16546627796E+02 -0.11336377783E+03  0.14293182239E+03  0.78963936427E+02 0.  0.
         23    2    1    2    0    0 -0.48119127773E+02 -0.21612105595E+02  0.12471400424E+02  0.10825910477E+03  0.93712135666E+02 0.  0.
        -11    1    3    3    0    0 -0.17323728180E+02  0.12048210962E+02 -0.74819031232E+01  0.22388609152E+02  0.00000000000E+00 0.  1.
         12    1    3    3    0    0  0.50020296509E+02 -0.28594838758E+02 -0.10588187471E+03  0.12054321324E+03  0.00000000000E+00 0. -1.
        -13    1    4    4    0    0  0.53417950315E+01  0.22028092856E+02 -0.21586969865E+02  0.31301260630E+02  0.00000000000E+00 0.  1.
         13    1    4    4    0    0 -0.53460922805E+02 -0.43640198452E+02  0.34058370289E+02  0.76957844141E+02  0.00000000000E+00 0. -1.
          3    1    1    2  501    0  0.15422559444E+02  0.38158733391E+02 -0.42754877693E+01  0.41379029345E+02  0.00000000000E+00 0. -1.
<scales pt_clust_5="13000.00000" pt_clust_6="13000.00000" pt_clust_7="13000.00000" pt_clust_8="13000.00000" pt_clust_9="41.15755"></scales>
<clustering>
<clus scale="   41.158">  1  9  2 -1</clus>
<clus scale="   78.964">  5  6 -1 -1</clus>
<clus scale="   87.142">  2  5  1 -1</clus>
<clus scale="   93.712">  7  8 -1 -1</clus>
<clus scale="   41.158">  1  5  2 -1</clus>
</clustering>
</event>
<event>
 9    2  0.5615294E-005  0.9113023E+02  0.7546771E-02  0.1305068E+00
          2   -1    0    0  502    0 -0.00000000000E+00  0.00000000000E+00  0.51972777023E+03  0.51972777023E+03  0.00000000000E+00 0. -1.
         21   -1    0    0  501  502  0.00000000000E+00 -0.00000000000E+00 -0.54646052507E+02  0.54646052507E+02  0.00000000000E+00 0. -1.
         24    2    1    2    0    0 -0.12552549571E+02  0.11097999855E+02  0.37490503347E+03  0.38420753008E+03  0.82346280694E+02 0.  0.
         23    2    1    2    0    0  0.90684072655E+01  0.27591824277E+02  0.11106059989E+03  0.14606210158E+03  0.90311327598E+02 0.  0.
        -13    1    3    3    0    0  0.24392509948E+02  0.82180892339E+01  0.42095674686E+02  0.49341436537E+02  0.00000000000E+00 0.  1.
         14    1    3    3    0    0 -0.36945059519E+02  0.28799106211E+01  0.33280935879E+03  0.33486609354E+03  0.00000000000E+00 0. -1.
        -13    1    4    4    0    0  0.35862992568E+02 -0.18461699213E+02  0.36348678526E+02  0.54297467753E+02  0.00000000000E+00 0.  1.
         13    1    4    4    0    0 -0.26794585303E+02  0.46053523490E+02  0.74711921360E+02  0.91764633823E+02  0.00000000000E+00 0. -1.
          1    1    1    2  501    0  0.34841423059E+01 -0.38689824132E+02 -0.20883915634E+02  0.44104191084E+02  0.00000000000E+00 0. -1.
<scales pt_clust_5="13000.00000" pt_clust_6="13000.00000" pt_clust_7="13000.00000" pt_clust_8="13000.00000" pt_clust_9="38.84639"></scales>
<clustering>
<clus scale="   38.846">  2  9  1 -1</clus>
<clus scale="   82.346">  5  6 -1 -1</clus>
<clus scale="   83.244">  1  5  2 -1</clus>
<clus scale="   90.311">  7  8 -1 -1</clus>
<clus scale="   38.846">  2  5  1 -1</clus>
</clustering>
</event>
<event>
 9    2  0.5615294E-005  0.1930203E+03  0.7546771E-02  0.1157786E+00
         21   -1    0    0  501  502  0.00000000000E+00  0.00000000000E+00  0.29397392810E+02  0.29397392810E+02  0.00000000000E+00 0. -1.
          2   -1    0    0  502    0 -0.00000000000E+00 -0.00000000000E+00 -0.21273286024E+04  0.21273286024E+04  0.00000000000E+00 0. -1.
         24    2    1    2    0    0 -0.82938600037E+02  0.16131731152E+03 -0.15875045151E+04  0.15993732240E+04  0.70157235283E+02 0.  0.
         23    2    1    2    0    0  0.36638194830E+02 -0.13086389418E+03 -0.32526055422E+03  0.36407153147E+03  0.91027115621E+02 0.  0.
        -13    1    3    3    0    0  0.86418335902E+01  0.35046708527E+02 -0.21181663740E+03  0.21487028865E+03  0.00000000000E+00 0.  1.
         14    1    3    3    0    0 -0.91580433627E+02  0.12627060300E+03 -0.13756878777E+04  0.13845029353E+04  0.00000000000E+00 0. -1.
        -13    1    4    4    0    0  0.56177498258E+02 -0.10996817156E+03 -0.19579928867E+03  0.23148708713E+03  0.00000000000E+00 0. -1.
         13    1    4    4    0    0 -0.19539303427E+02 -0.20895722612E+02 -0.12946126555E+03  0.13258444434E+03  0.00000000000E+00 0.  1.
          1    1    1    2  501    0  0.46300405206E+02 -0.30453417348E+02 -0.18516614030E+03  0.19328123982E+03  0.00000000000E+00 0. -1.
<scales pt_clust_5="13000.00000" pt_clust_6="13000.00000" pt_clust_7="13000.00000" pt_clust_8="13000.00000" pt_clust_9="55.41785"></scales>
<clustering>
<clus scale="   55.418">  1  9  2 -1</clus>
<clus scale="   70.157">  5  6 -1 -1</clus>
<clus scale="   91.027">  7  8 -1 -1</clus>
<clus scale="  184.100">  2  5  1 -1</clus>
<clus scale="   55.418">  1  5  2 -1</clus>
</clustering>
</event>
<event>
 9    2  0.5615294E-005  0.1273959E+03  0.7546771E-02  0.1234381E+00
          2   -1    0    0  502    0 -0.00000000000E+00  0.00000000000E+00  0.85108041366E+03  0.85108041366E+03  0.00000000000E+00 0. -1.
         21   -1    0    0  501  502  0.00000000000E+00 -0.00000000000E+00 -0.45922774467E+02  0.45922774467E+02  0.00000000000E+00 0. -1.
         24    2    1    2    0    0 -0.11285391132E+03  0.49155218167E+02  0.58803988325E+03  0.60607494200E+03  0.79897999071E+02 0.  0.
         23    2    1    2    0    0  0.24453639018E+02 -0.25035960101E+02  0.14312428183E+03  0.17315141919E+03  0.90950943692E+02 0.  0.
        -13    1    3    3    0    0 -0.50543256419E+02 -0.60014902130E+01  0.11484359647E+03  0.12561723729E+03  0.00000000000E+00 0.  1.
         14    1    3    3    0    0 -0.62310654898E+02  0.55156708380E+02  0.47319628678E+03  0.48045770471E+03  0.00000000000E+00 0. -1.
        -13    1    4    4    0    0 -0.32276150363E+02  0.35361225258E+01  0.34933924324E+02  0.47693113900E+02  0.00000000000E+00 0. -1.
         13    1    4    4    0    0  0.56729789381E+02 -0.28572082627E+02  0.10819035750E+03  0.12545830529E+03  0.00000000000E+00 0.  1.
          1    1    1    2  501    0  0.88400272299E+02 -0.24119258066E+02  0.73993474113E+02  0.11777682694E+03  0.00000000000E+00 0. -1.
<scales pt_clust_5="13000.00000" pt_clust_6="13000.00000" pt_clust_7="13000.00000" pt_clust_8="13000.00000" pt_clust_9="91.63158"></scales>
<clustering>
<clus scale="   79.898">  5  6 -1 -1</clus>
<clus scale="   90.951">  7  8 -1 -1</clus>
<clus scale="   91.632">  2  9  1 -1</clus>
<clus scale="  119.755">  1  5  2 -1</clus>
<clus scale="   91.632">  2  5  1 -1</clus>
</clustering>
</event>
<event>
 9    2  0.5615294E-005  0.9493777E+02  0.7546771E-02  0.1297152E+00
          4   -1    0    0  502    0 -0.00000000000E+00  0.00000000000E+00  0.28140247048E+03  0.28140247048E+03  0.00000000000E+00 0. -1.
         21   -1    0    0  501  502  0.00000000000E+00 -0.00000000000E+00 -0.10159887370E+03  0.10159887370E+03  0.00000000000E+00 0.  1.
         24    2    1    2    0    0  0.33774224783E+01  0.26138974867E+02  0.23244214136E+03  0.24743789187E+03  0.80631930771E+02 0.  0.
         23    2    1    2    0    0 -0.26233927582E+02 -0.34174325908E+02 -0.40082783075E+02  0.10827547256E+03  0.90889190505E+02 0.  0.
        -13    1    3    3    0    0 -0.56380865525E+01 -0.28327304006E+02  0.95969479858E+02  0.10022158069E+03  0.00000000000E+00 0.  1.
         14    1    3    3    0    0  0.90155090308E+01  0.54466278872E+02  0.13647266151E+03  0.14721631117E+03  0.00000000000E+00 0. -1.
        -11    1    4    4    0    0 -0.89995957436E+01 -0.19167595801E+02  0.28773900984E+02  0.35725716650E+02  0.00000000000E+00 0. -1.
         11    1    4    4    0    0 -0.17234331838E+02 -0.15006730107E+02 -0.68856684059E+02  0.72549755906E+02  0.00000000000E+00 0.  1.
          3    1    1    2  501    0  0.22856505104E+02  0.80353510409E+01 -0.12555761512E+02  0.27287979754E+02  0.00000000000E+00 0. -1.
<scales pt_clust_5="13000.00000" pt_clust_6="13000.00000" pt_clust_7="13000.00000" pt_clust_8="13000.00000" pt_clust_9="24.22781"></scales>
<clustering>
<clus scale="   24.228">  2  9  1 -1</clus>
<clus scale="   80.632">  5  6 -1 -1</clus>
<clus scale="   85.169">  1  5  2 -1</clus>
<clus scale="   90.889">  7  8 -1 -1</clus>
<clus scale="   24.228">  2  5  1 -1</clus>
</clustering>
</event>
<event>
 9    2  0.5615294E-005  0.1739151E+03  0.7546771E-02  0.1187249E+00
         -1   -1    0    0    0  501 -0.00000000000E+00  0.00000000000E+00  0.25942165148E+03  0.25942165148E+03  0.00000000000E+00 0.  1.
         21   -1    0    0  501  502  0.00000000000E+00 -0.00000000000E+00 -0.24939067485E+03  0.24939067485E+03  0.00000000000E+00 0.  1.
         24    2    1    2    0    0  0.91749918410E+02  0.41076669937E+02  0.91082598850E+02  0.15762850173E+03  0.80283026862E+02 0.  0.
         23    2    1    2    0    0 -0.95599696095E+02  0.11701769329E+03 -0.79376518774E+01  0.17695896665E+03  0.91755256659E+02 0.  0.
        -11    1    3    3    0    0  0.10118111813E+03  0.38353112187E+02  0.97702205775E+02  0.14578854857E+03  0.00000000000E+00 0.  1.
         12    1    3    3    0    0 -0.94311997192E+01  0.27235577497E+01 -0.66196069251E+01  0.11839953159E+02  0.00000000000E+00 0. -1.
        -13    1    4    4    0    0  0.51121283688E+01  0.30383814824E+02 -0.29166771334E+02  0.42426531909E+02  0.00000000000E+00 0. -1.
         13    1    4    4    0    0 -0.10071182446E+03  0.86633878462E+02  0.21229119457E+02  0.13453243474E+03  0.00000000000E+00 0.  1.
         -2    1    1    2    0  502  0.38497776845E+01 -0.15809436322E+03 -0.73113970337E+02  0.17422485796E+03  0.00000000000E+00 0.  1.
<scales pt_clust_5="13000.00000" pt_clust_6="13000.00000" pt_clust_7="13000.00000" pt_clust_8="13000.00000" pt_clust_9="147.74106"></scales>
<clustering>
<clus scale="   80.283">  5  6 -1 -1</clus>
<clus scale="   91.755">  7  8 -1 -1</clus>
<clus scale="  128.650">  1  5  2 -1</clus>
<clus scale="  147.741">  2  9  1 -1</clus>
<clus scale="  147.741">  2  5  1 -1</clus>
</clustering>
</event>
<event>
 9    2  0.5615294E-005  0.9569303E+02  0.7546771E-02  0.1296896E+00
         -3   -1    0    0    0  501 -0.00000000000E+00  0.00000000000E+00  0.31946070958E+03  0.31946070958E+03  0.00000000000E+00 0.  1.
         21   -1    0    0  501  502  0.00000000000E+00 -0.00000000000E+00 -0.52626557766E+02  0.52626557766E+02  0.00000000000E+00 0. -1.
         24    2    1    2    0    0 -0.12851065414E+01 -0.20419412412E+02  0.19495926325E+03  0.21151463417E+03  0.79440054368E+02 0.  0.
         23    2    1    2    0    0 -0.63957640946E+00  0.41115318170E+02  0.88314922616E+02  0.13407169661E+03  0.92113060029E+02 0.  0.
        -13    1    3    3    0    0  0.32561961481E+02 -0.11552626950E+02  0.15313691968E+03  0.15698617994E+03  0.00000000000E+00 0.  1.
         14    1    3    3    0    0 -0.33847068023E+02 -0.88667854623E+01  0.41822343572E+02  0.54528454224E+02  0.00000000000E+00 0. -1.
        -13    1    4    4    0    0  0.42764308495E+02  0.92058194137E+01  0.56685163473E+02  0.71601263607E+02  0.00000000000E+00 0.  1.
         13    1    4    4    0    0 -0.43403884904E+02  0.31909498756E+02  0.31629759143E+02  0.62470432999E+02  0.00000000000E+00 0. -1.
         -4    1    1    2    0  502  0.19246829509E+01 -0.20695905758E+02 -0.16440034051E+02  0.26500936573E+02  0.00000000000E+00 0.  1.
<scales pt_clust_5="13000.00000" pt_clust_6="13000.00000" pt_clust_7="13000.00000" pt_clust_8="13000.00000" pt_clust_9="20.78521"></scales>
<clustering>
<clus scale="   20.785">  2  9  1 -1</clus>
<clus scale="   79.440">  5  6 -1 -1</clus>
<clus scale="   83.565">  1  5  2 -1</clus>
<clus scale="   92.113">  7  8 -1 -1</clus>
<clus scale="   20.785">  2  5  1 -1</clus>
</clustering>
</event>
<event>
 9    2  0.5615294E-005  0.1195382E+03  0.7546771E-02  0.1244235E+00
         -3   -1    0    0    0  501 -0.00000000000E+00  0.00000000000E+00  0.11609225878E+03  0.11609225878E+03  0.00000000000E+00 0.  1.
         21   -1    0    0  501  502  0.00000000000E+00 -0.00000000000E+00 -0.44857718512E+03  0.44857718512E+03  0.00000000000E+00 0. -1.
         23    2    1    2    0    0 -0.74879651377E+02  0.81174013646E+01  0.64551032690E+02  0.13443197021E+03  0.90731826817E+02 0.  0.
         24    2    1    2    0    0  0.89407331969E+02  0.23992674074E+02 -0.31652083064E+03  0.34234665309E+03  0.91904707352E+02 0.  0.
        -11    1    4    4    0    0  0.76533223768E+01  0.35354596313E+02 -0.40754166589E+02  0.54492411565E+02  0.00000000000E+00 0.  1.
         12    1    4    4    0    0  0.81754009593E+02 -0.11361922239E+02 -0.27576666405E+03  0.28785424152E+03  0.00000000000E+00 0. -1.
        -11    1    3    3    0    0  0.18812235747E+02 -0.94269554078E+01  0.37566141365E+01  0.21374747995E+02  0.00000000000E+00 0. -1.
         11    1    3    3    0    0 -0.93691887124E+02  0.17544356772E+02  0.60794418554E+02  0.11305722221E+03  0.00000000000E+00 0.  1.
         -4    1    1    2    0  502 -0.14527680592E+02 -0.32110075438E+02 -0.80515128386E+02  0.87890820607E+02  0.00000000000E+00 0.  1.
<scales pt_clust_5="13000.00000" pt_clust_6="13000.00000" pt_clust_7="13000.00000" pt_clust_8="13000.00000" pt_clust_9="35.24359"></scales>
<clustering>
<clus scale="   35.244">  2  9  1 -1</clus>
<clus scale="   90.732">  7  8 -1 -1</clus>
<clus scale="   91.905">  5  6 -1 -1</clus>
<clus scale="  118.639">  1  7  2 -1</clus>
<clus scale="   35.244">  2  5  1 -1</clus>
</clustering>
</event>
<event>
 9    2  0.5615294E-005  0.1736275E+03  0.7546771E-02  0.1205341E+00
          2   -1    0    0  502    0 -0.00000000000E+00  0.00000000000E+00  0.21760388032E+03  0.21760388032E+03  0.00000000000E+00 0. -1.
         21   -1    0    0  501  502  0.00000000000E+00 -0.00000000000E+00 -0.30158526432E+03  0.30158526432E+03  0.00000000000E+00 0.  1.
         24    2    1    2    0    0 -0.20100938670E+02 -0.19586329278E+02  0.11115321631E+03  0.14118905240E+03  0.82411400866E+02 0.  0.
         23    2    1    2    0    0  0.90918528343E+02  0.13471426151E+03 -0.13707861438E+03  0.23089445233E+03  0.90042159822E+02 0.  0.
        -13    1    3    3    0    0  0.21166194259E+02  0.12296975414E+02  0.82599599895E+01  0.25835059952E+02  0.00000000000E+00 0.  1.
         14    1    3    3    0    0 -0.41267132928E+02 -0.31883304691E+02  0.10289325632E+03  0.11535399245E+03  0.00000000000E+00 0. -1.
        -11    1    4    4    0    0  0.60786354256E+02  0.18494610717E+02 -0.64809503851E+02  0.90759590561E+02  0.00000000000E+00 0.  1.
         11    1    4    4    0    0  0.30132174088E+02  0.11621965080E+03 -0.72269110524E+02  0.14013486177E+03  0.00000000000E+00 0. -1.
          1    1    1    2  501    0 -0.70817589673E+02 -0.11512793224E+03 -0.58055985939E+02  0.14710563990E+03  0.00000000000E+00 0. -1.
<scales pt_clust_5="13000.00000" pt_clust_6="13000.00000" pt_clust_7="13000.00000" pt_clust_8="13000.00000" pt_clust_9="148.45518"></scales>
<clustering>
<clus scale="   82.411">  5  6 -1 -1</clus>
<clus scale="   87.059">  1  5  2 -1</clus>
<clus scale="   90.042">  7  8 -1 -1</clus>
<clus scale="  148.455">  2  9  1 -1</clus>
<clus scale="  148.455">  2  5  1 -1</clus>
</clustering>
</event>
<event>
 9    2  0.5814262E-005  0.9883822E+02  0.7546771E-02  0.1288451E+00
         21   -1    0    0  501  502  0.00000000000E+00  0.00000000000E+00  0.41284435505E+02  0.41284435505E+02  0.00000000000E+00 0. -1.
          2   -1    0    0  502    0 -0.00000000000E+00 -0.00000000000E+00 -0.67444426131E+03  0.67444426131E+03  0.00000000000E+00 0. -1.
         24    2    1    2    0    0  0.37129624973E+02 -0.83963935644E+01 -0.19525077155E+03  0.21460331584E+03  0.80514662665E+02 0.  0.
         23    2    1    2    0    0 -0.69211375909E+01  0.66152881462E+02 -0.83044737683E+02  0.14032481587E+03  0.91490543883E+02 0.  0.
        -11    1    3    3    0    0 -0.12810916273E+02  0.24514041173E+02 -0.44182357510E+02  0.52126178697E+02  0.00000000000E+00 0.  1.
         12    1    3    3    0    0  0.49940541245E+02 -0.32910434737E+02 -0.15106841404E+03  0.16247713715E+03  0.00000000000E+00 0. -1.
        -13    1    4    4    0    0  0.81744232366E+01  0.80360336301E+02 -0.35063746265E+02  0.88057203839E+02  0.00000000000E+00 0. -1.
         13    1    4    4    0    0 -0.15095560827E+02 -0.14207454839E+02 -0.47980991418E+02  0.52267612029E+02  0.00000000000E+00 0.  1.
          1    1    1    2  501    0 -0.30208487382E+02 -0.57756487898E+02 -0.35486431657E+03  0.36080056511E+03  0.00000000000E+00 0. -1.
<scales pt_clust_5="13000.00000" pt_clust_6="13000.00000" pt_clust_7="13000.00000" pt_clust_8="13000.00000" pt_clust_9="65.17951"></scales>
<clustering>
<clus scale="   65.180">  1  9  2 -1</clus>
<clus scale="   80.515">  5  6 -1 -1</clus>
<clus scale="   88.775">  2  5  1 -1</clus>
<clus scale="   91.491">  7  8 -1 -1</clus>
<clus scale="   65.180">  1  5  2 -1</clus>
</clustering>
</event>
<event>
 9    2  0.5615294E-005  0.1913364E+03  0.7546771E-02  0.1186769E+00
         21   -1    0    0  501  502  0.00000000000E+00  0.00000000000E+00  0.86103559761E+02  0.86103559761E+02  0.00000000000E+00 0. -1.
          2   -1    0    0  502    0 -0.00000000000E+00 -0.00000000000E+00 -0.75455853107E+03  0.75455853107E+03  0.00000000000E+00 0. -1.
         23    2    1    2    0    0  0.27709813787E+02 -0.43876664458E+02 -0.61041700330E+02  0.11515623679E+03  0.82715622632E+02 0.  0.
         24    2    1    2    0    0  0.15996996116E+02  0.18639567064E+03 -0.17640721545E+03  0.26944865121E+03  0.80522171211E+02 0.  0.
        -13    1    4    4    0    0  0.22760844002E+02  0.91128875650E+01 -0.34183544409E+02  0.42066797451E+02  0.00000000000E+00 0.  1.
         14    1    4    4    0    0 -0.67638478860E+01  0.17728278308E+03 -0.14222367104E+03  0.22738185376E+03  0.00000000000E+00 0. -1.
        -13    1    3    3    0    0  0.33606590187E+02  0.14238831529E+02 -0.10677957780E+02  0.38028489448E+02  0.00000000000E+00 0. -1.
         13    1    3    3    0    0 -0.58967764003E+01 -0.58115495987E+02 -0.50363742551E+02  0.77127747338E+02  0.00000000000E+00 0.  1.
          1    1    1    2  501    0 -0.43706809903E+02 -0.14251900619E+03 -0.43100605553E+03  0.45605720284E+03  0.00000000000E+00 0. -1.
<scales pt_clust_5="13000.00000" pt_clust_6="13000.00000" pt_clust_7="13000.00000" pt_clust_8="13000.00000" pt_clust_9="173.56798"></scales>
<clustering>
<clus scale="   80.522">  5  6 -1 -1</clus>
<clus scale="   82.716">  7  8 -1 -1</clus>
<clus scale="   97.647">  2  7  1 -1</clus>
<clus scale="  173.568">  1  9  2 -1</clus>
<clus scale="  173.568">  1  5  2 -1</clus>
</clustering>
</event>
<event>
 9    2  0.5615294E-005  0.9776929E+02  0.7546771E-02  0.1289799E+00
         -1   -1    0    0    0  501 -0.00000000000E+00  0.00000000000E+00  0.24315767436E+03  0.24315767436E+03  0.00000000000E+00 0.  1.
         21   -1    0    0  501  502  0.00000000000E+00 -0.00000000000E+00 -0.66896652589E+02  0.66896652589E+02  0.00000000000E+00 0. -1.
         23    2    1    2    0    0 -0.28837512080E+02 -0.64837706509E+01  0.92247363964E+02  0.13176121405E+03  0.89318531020E+02 0.  0.
         24    2    1    2    0    0  0.51471451429E+02  0.37960974148E+02  0.21500275905E+02  0.10473339249E+03  0.80102907362E+02 0.  0.
        -11    1    4    4    0    0  0.26802841434E+02  0.32077336116E+01  0.47626335495E+02  0.54744403336E+02  0.00000000000E+00 0.  1.
         12    1    4    4    0    0  0.24668609995E+02  0.34753240537E+02 -0.26126059590E+02  0.49988989153E+02  0.00000000000E+00 0. -1.
        -11    1    3    3    0    0 -0.10537777672E+02  0.40089729082E+02  0.57319477701E+02  0.70737215524E+02  0.00000000000E+00 0.  1.
         11    1    3    3    0    0 -0.18299734408E+02 -0.46573499733E+02  0.34927886262E+02  0.61023998521E+02  0.00000000000E+00 0. -1.
         -2    1    1    2    0  502 -0.22633939349E+02 -0.31477203498E+02  0.62513381898E+02  0.73559720410E+02  0.00000000000E+00 0.  1.
<scales pt_clust_5="13000.00000" pt_clust_6="13000.00000" pt_clust_7="13000.00000" pt_clust_8="13000.00000" pt_clust_9="38.76998"></scales>
<clustering>
<clus scale="   38.770">  2  9  1 -1</clus>
<clus scale="   80.103">  5  6 -1 -1</clus>
<clus scale="   89.319">  7  8 -1 -1</clus>
<clus scale="   89.429">  2  5  1 -1</clus>
<clus scale="   38.770">  2  5  1 -1</clus>
</clustering>
</event>
<event>
 9    2  0.5615294E-005  0.1463547E+03  0.7546771E-02  0.1208991E+00
          2   -1    0    0  502    0 -0.00000000000E+00  0.00000000000E+00  0.88436633775E+03  0.88436633775E+03  0.00000000000E+00 0. -1.
         21   -1    0    0  501  502  0.00000000000E+00 -0.00000000000E+00 -0.67456349849E+02  0.67456349849E+02  0.00000000000E+00 0. -1.
         24    2    1    2    0    0  0.91609402870E+02  0.54466761808E+02  0.33360418158E+03  0.35887783777E+03  0.78375006484E+02 0.  0.
         23    2    1    2    0    0 -0.12960459076E+03  0.45833090099E+02  0.45019332835E+03  0.48069454563E+03  0.97443271785E+02 0.  0.
        -13    1    3    3    0    0  0.81852230698E+02  0.51753004584E+02  0.33494346373E+03  0.34866213595E+03  0.00000000000E+00 0.  1.
         14    1    3    3    0    0  0.97571721718E+01  0.27137572243E+01 -0.13392821452E+01  0.10215701823E+02  0.00000000000E+00 0. -1.
        -13    1    4    4    0    0 -0.49210831501E+02  0.28031145457E+02  0.33109262807E+03  0.33590144301E+03  0.00000000000E+00 0. -1.
         13    1    4    4    0    0 -0.80393759255E+02  0.17801944641E+02  0.11910070028E+03  0.14479310262E+03  0.00000000000E+00 0.  1.
          1    1    1    2  501    0  0.37995187886E+02 -0.10029985191E+03  0.33112477977E+02  0.11225030420E+03  0.00000000000E+00 0. -1.
<scales pt_clust_5="13000.00000" pt_clust_6="13000.00000" pt_clust_7="13000.00000" pt_clust_8="13000.00000" pt_clust_9="107.25528"></scales>
<clustering>
<clus scale="   78.375">  5  6 -1 -1</clus>
<clus scale="   97.443">  7  8 -1 -1</clus>
<clus scale="  107.255">  2  9  1 -1</clus>
<clus scale="  134.414">  1  5  2 -1</clus>
<clus scale="  107.255">  2  5  1 -1</clus>
</clustering>
</event>
<event>
 9    2  0.5615294E-005  0.2928626E+03  0.7546771E-02  0.1089253E+00
         21   -1    0    0  501  502  0.00000000000E+00  0.00000000000E+00  0.85355090844E+03  0.85355090844E+03  0.00000000000E+00 0. -1.
          2   -1    0    0  502    0 -0.00000000000E+00 -0.00000000000E+00 -0.12946311836E+03  0.12946311836E+03  0.00000000000E+00 0. -1.
         23    2    1    2    0    0  0.30024384136E+03  0.20027259788E+02  0.21423246899E+03  0.38074090489E+03  0.92307261221E+02 0.  0.
         24    2    1    2    0    0 -0.23948902246E+03 -0.34983185365E+02  0.43660570076E+03  0.50593862857E+03  0.82283308176E+02 0.  0.
        -13    1    4    4    0    0 -0.75764781580E+02 -0.66236306891E+01  0.22108507580E+03  0.23380073856E+03  0.00000000000E+00 0.  1.
         14    1    4    4    0    0 -0.16372424088E+03 -0.28359554676E+02  0.21552062496E+03  0.27213789001E+03  0.00000000000E+00 0. -1.
        -11    1    3    3    0    0  0.55508856148E+02  0.28529729062E+02  0.12924547025E+02  0.63735566735E+02  0.00000000000E+00 0.  1.
         11    1    3    3    0    0  0.24473498522E+03 -0.85024692738E+01  0.20130792196E+03  0.31700533815E+03  0.00000000000E+00 0. -1.
          1    1    1    2  501    0 -0.60754818899E+02  0.14955925577E+02  0.73249620326E+02  0.96334493341E+02  0.00000000000E+00 0. -1.
<scales pt_clust_5="13000.00000" pt_clust_6="13000.00000" pt_clust_7="13000.00000" pt_clust_8="13000.00000" pt_clust_9="62.56858"></scales>
<clustering>
<clus scale="   62.569">  1  9  2 -1</clus>
<clus scale="   82.283">  5  6 -1 -1</clus>
<clus scale="   92.307">  7  8 -1 -1</clus>
<clus scale="  289.859">  1  5  2 -1</clus>
<clus scale="   62.569">  1  5  2 -1</clus>
</clustering>
</event>
<event>
 9    2  0.5615294E-005  0.2477174E+03  0.7546771E-02  0.1115499E+00
         21   -1    0    0  501  502  0.00000000000E+00  0.00000000000E+00  0.24410689453E+03  0.24410689453E+03  0.00000000000E+00 0. -1.
          2   -1    0    0  502    0 -0.00000000000E+00 -0.00000000000E+00 -0.49303893444E+03  0.49303893444E+03  0.00000000000E+00 0. -1.
         24    2    1    2    0    0 -0.22791649056E+03  0.14273213158E+03 -0.25137539926E+03  0.37663229217E+03  0.79648628980E+02 0.  0.
         23    2    1    2    0    0  0.12604457137E+03 -0.56639412464E+02  0.10099857146E+03  0.19467333046E+03  0.92745550510E+02 0.  0.
        -11    1    3    3    0    0 -0.50172931571E+02  0.13789393614E+02 -0.15339057497E+02  0.54247185398E+02  0.00000000000E+00 0.  1.
         12    1    3    3    0    0 -0.17774355898E+03  0.12894273796E+03 -0.23603634176E+03  0.32238510677E+03  0.00000000000E+00 0. -1.
        -11    1    4    4    0    0  0.31490000864E+02 -0.56020251389E+02  0.13128365752E+02  0.65591483498E+02  0.00000000000E+00 0.  1.
         11    1    4    4    0    0  0.94554570503E+02 -0.61916107496E+00  0.87870205710E+02  0.12908184696E+03  0.00000000000E+00 0. -1.
          1    1    1    2  501    0  0.10187191919E+03 -0.86092719112E+02 -0.98555212117E+02  0.16584020634E+03  0.00000000000E+00 0. -1.
<scales pt_clust_5="13000.00000" pt_clust_6="13000.00000" pt_clust_7="13000.00000" pt_clust_8="13000.00000" pt_clust_9="133.37864"></scales>
<clustering>
<clus scale="   79.649">  5  6 -1 -1</clus>
<clus scale="   92.746">  7  8 -1 -1</clus>
<clus scale="  133.379">  1  9  2 -1</clus>
<clus scale="  243.117">  2  5  1 -1</clus>
<clus scale="  133.379">  1  5  2 -1</clus>
</clustering>
</event>
<event>
 9    2  0.5615294E-005  0.1176761E+03  0.7546771E-02  0.1250124E+00
         -3   -1    0    0    0  501 -0.00000000000E+00  0.00000000000E+00  0.47139102041E+03  0.47139102041E+03  0.00000000000E+00 0.  1.
         21   -1    0    0  501  502  0.00000000000E+00 -0.00000000000E+00 -0.50817733968E+02  0.50817733968E+02  0.00000000000E+00 0.  1.
         24    2    1    2    0    0  0.98113127773E+02  0.21468880876E+02  0.23966412583E+03  0.27242682757E+03  0.81794770494E+02 0.  0.
         23    2    1    2    0    0 -0.40406532931E+02  0.16517690089E+02  0.88564377682E+02  0.13445374467E+03  0.91261374480E+02 0.  0.
        -11    1    3    3    0    0  0.92854776556E+02 -0.23348215928E+01  0.22631334115E+03  0.24463276416E+03  0.00000000000E+00 0.  1.
         12    1    3    3    0    0  0.52583512170E+01  0.23803702469E+02  0.13350784683E+02  0.27794063403E+02  0.00000000000E+00 0. -1.
        -13    1    4    4    0    0 -0.59743778597E+02 -0.16693792619E+02  0.46859736149E+02  0.77742116417E+02  0.00000000000E+00 0.  1.
         13    1    4    4    0    0  0.19337245666E+02  0.33211482708E+02  0.41704641533E+02  0.56711628252E+02  0.00000000000E+00 0. -1.
         -4    1    1    2    0  502 -0.57706594843E+02 -0.37986570966E+02  0.92344782927E+02  0.11532818214E+03  0.00000000000E+00 0.  1.
<scales pt_clust_5="13000.00000" pt_clust_6="13000.00000" pt_clust_7="13000.00000" pt_clust_8="13000.00000" pt_clust_9="69.08712"></scales>
<clustering>
<clus scale="   69.087">  2  9  1 -1</clus>
<clus scale="   81.795">  5  6 -1 -1</clus>
<clus scale="   91.261">  7  8 -1 -1</clus>
<clus scale="  110.496">  1  5  2 -1</clus>
<clus scale="   69.087">  2  5  1 -1</clus>
</clustering>
</event>
<event>
 9    2  0.5615294E-005  0.1150404E+03  0.7546771E-02  0.1254976E+00
          2   -1    0    0  502    0 -0.00000000000E+00  0.00000000000E+00  0.27224321593E+03  0.27224321593E+03  0.00000000000E+00 0. -1.
         21   -1    0    0  501  502  0.00000000000E+00 -0.00000000000E+00 -0.11097287548E+03  0.11097287548E+03  0.00000000000E+00 0.  1.
         24    2    1    2    0    0  0.67636889707E+02  0.34960245284E+02  0.10281576766E+03  0.15110864655E+03  0.80410032857E+02 0.  0.
         23    2    1    2    0    0 -0.65351522008E+02  0.14167573777E+02 -0.42193577001E+02  0.12008594886E+03  0.90381389663E+02 0.  0.
        -11    1    3    3    0    0 -0.48694273299E+01  0.19621242304E+02 -0.44792176932E+01  0.20706710584E+02  0.00000000000E+00 0.  1.
         12    1    3    3    0    0  0.72506317037E+02  0.15339002981E+02  0.10729498535E+03  0.13040193597E+03  0.00000000000E+00 0. -1.
        -11    1    4    4    0    0 -0.79501971183E+02 -0.10046701338E+01 -0.54097016152E+02  0.96166833891E+02  0.00000000000E+00 0.  1.
         11    1    4    4    0    0  0.14150449175E+02  0.15172243911E+02  0.11903439151E+02  0.23919114966E+02  0.00000000000E+00 0. -1.
          1    1    1    2  501    0 -0.22853676992E+01 -0.49127819061E+02  0.10064814979E+03  0.11202149601E+03  0.00000000000E+00 0. -1.
<scales pt_clust_5="13000.00000" pt_clust_6="13000.00000" pt_clust_7="13000.00000" pt_clust_8="13000.00000" pt_clust_9="49.18097"></scales>
<clustering>
<clus scale="   49.181">  2  9  1 -1</clus>
<clus scale="   80.410">  5  6 -1 -1</clus>
<clus scale="   90.381">  7  8 -1 -1</clus>
<clus scale="  107.384">  1  5  2 -1</clus>
<clus scale="   49.181">  2  5  1 -1</clus>
</clustering>
</event>
<event>
 9    2  0.5615294E-005  0.9326189E+02  0.7546771E-02  0.1301452E+00
         21   -1    0    0  501  502  0.00000000000E+00  0.00000000000E+00  0.29908318639E+02  0.29908318639E+02  0.00000000000E+00 0. -1.
          2   -1    0    0  502    0 -0.00000000000E+00 -0.00000000000E+00 -0.97186665128E+03  0.97186665128E+03  0.00000000000E+00 0. -1.
         24    2    1    2    0    0 -0.31154493258E+02  0.28101379603E+02 -0.63632965170E+03  0.64265410538E+03  0.79552394966E+02 0.  0.
         23    2    1    2    0    0 -0.31454114731E+02  0.27582617649E+02 -0.20741698214E+03  0.23002367973E+03  0.90215999836E+02 0.  0.
        -11    1    3    3    0    0  0.10945913005E+02 -0.17990186071E+02 -0.76188931533E+02  0.79045639314E+02  0.00000000000E+00 0.  1.
         12    1    3    3    0    0 -0.42100406262E+02  0.46091565674E+02 -0.56014072016E+03  0.56360846606E+03  0.00000000000E+00 0. -1.
        -11    1    4    4    0    0  0.30688340474E+02 -0.50487265484E-01 -0.52044342758E+02  0.60418460781E+02  0.00000000000E+00 0.  1.
         11    1    4    4    0    0 -0.62142455205E+02  0.27633104914E+02 -0.15537263939E+03  0.16960521895E+03  0.00000000000E+00 0. -1.
          1    1    1    2  501    0  0.62608607989E+02 -0.55683997251E+02 -0.98211698803E+02  0.12909718481E+03  0.00000000000E+00 0. -1.
<scales pt_clust_5="13000.00000" pt_clust_6="13000.00000" pt_clust_7="13000.00000" pt_clust_8="13000.00000" pt_clust_9="83.78869"></scales>
<clustering>
<clus scale="   79.552">  5  6 -1 -1</clus>
<clus scale="   83.789">  1  9  2 -1</clus>
<clus scale="   82.991">  2  5  1 -1</clus>
<clus scale="   90.216">  7  8 -1 -1</clus>
<clus scale="   83.789">  1  5  2 -1</clus>
</clustering>
</event>
<event>
 9    2  0.5615294E-005  0.1348093E+03  0.7546771E-02  0.1238975E+00
          2   -1    0    0  502    0 -0.00000000000E+00  0.00000000000E+00  0.69138373848E+03  0.69138373848E+03  0.00000000000E+00 0. -1.
         21   -1    0    0  501  502  0.00000000000E+00 -0.00000000000E+00 -0.56529620922E+02  0.56529620922E+02  0.00000000000E+00 0.  1.
         23    2    1    2    0    0 -0.21286556589E+02  0.58408793171E+01  0.95815719178E+02  0.13284411750E+03  0.89329021881E+02 0.  0.
         24    2    1    2    0    0  0.36914130813E+02  0.10174049944E+03  0.11520120227E+03  0.17751245365E+03  0.80781012115E+02 0.  0.
        -11    1    4    4    0    0  0.17042371846E+02  0.10318598612E+03  0.11767736350E+03  0.15743491370E+03  0.00000000000E+00 0.  1.
         12    1    4    4    0    0  0.19871758967E+02 -0.14454866815E+01 -0.24761612367E+01  0.20077539955E+02  0.00000000000E+00 0. -1.
        -11    1    3    3    0    0 -0.42266237801E+02 -0.24810353085E+02  0.76826648454E+02  0.91128054905E+02  0.00000000000E+00 0.  1.
         11    1    3    3    0    0  0.20979681211E+02  0.30651232402E+02  0.18989070724E+02  0.41716062596E+02  0.00000000000E+00 0. -1.
          1    1    1    2  501    0 -0.15627574224E+02 -0.10758137876E+03  0.42383719611E+03  0.43755678824E+03  0.00000000000E+00 0. -1.
<scales pt_clust_5="13000.00000" pt_clust_6="13000.00000" pt_clust_7="13000.00000" pt_clust_8="13000.00000" pt_clust_9="107.92584"></scales>
<clustering>
<clus scale="   80.781">  5  6 -1 -1</clus>
<clus scale="   89.329">  7  8 -1 -1</clus>
<clus scale="   92.016">  1  7  2 -1</clus>
<clus scale="  107.926">  2  9  1 -1</clus>
<clus scale="  107.926">  2  5  1 -1</clus>
</clustering>
</event>
<event>
 9    2  0.5615294E-005  0.1460896E+03  0.7546771E-02  0.1207619E+00
         21   -1    0    0  501  502  0.00000000000E+00  0.00000000000E+00  0.11172821002E+03  0.11172821002E+03  0.00000000000E+00 0. -1.
          2   -1    0    0  502    0 -0.00000000000E+00 -0.00000000000E+00 -0.29231146455E+03  0.29231146455E+03  0.00000000000E+00 0. -1.
         23    2    1    2    0    0  0.12862300998E+03 -0.62737077683E+02 -0.11940819506E+03  0.20721423388E+03  0.90551654127E+02 0.  0.
         24    2    1    2    0    0 -0.61223109711E+02  0.60876683664E+02 -0.22552511987E+02  0.11912145883E+03  0.78911763258E+02 0.  0.
        -13    1    4    4    0    0 -0.20510687728E+02  0.49458112381E+02  0.21829817129E+02  0.57821571297E+02  0.00000000000E+00 0.  1.
         14    1    4    4    0    0 -0.40712421983E+02  0.11418571283E+02 -0.44382329116E+02  0.61299887533E+02  0.00000000000E+00 0. -1.
        -11    1    3    3    0    0  0.61290312470E+02 -0.31657364091E+02 -0.28225826428E+01  0.69040988381E+02  0.00000000000E+00 0. -1.
         11    1    3    3    0    0  0.67332697506E+02 -0.31079713592E+02 -0.11658561241E+03  0.13817324550E+03  0.00000000000E+00 0.  1.
          1    1    1    2  501    0 -0.67399900265E+02  0.18603940188E+01 -0.38622547491E+02  0.77703981856E+02  0.00000000000E+00 0. -1.
<scales pt_clust_5="13000.00000" pt_clust_6="13000.00000" pt_clust_7="13000.00000" pt_clust_8="13000.00000" pt_clust_9="67.42560"></scales>
<clustering>
<clus scale="   67.426">  1  9  2 -1</clus>
<clus scale="   78.912">  5  6 -1 -1</clus>
<clus scale="   90.552">  7  8 -1 -1</clus>
<clus scale="  139.175">  1  5  2 -1</clus>
<clus scale="   67.426">  1  5  2 -1</clus>
</clustering>
</event>
<event>
 9    2  0.5615294E-005  0.9899024E+02  0.7546771E-02  0.1286627E+00
          2   -1    0    0  502    0 -0.00000000000E+00  0.00000000000E+00  0.22879948886E+03  0.22879948886E+03  0.00000000000E+00 0. -1.
         21   -1    0    0  501  502  0.00000000000E+00 -0.00000000000E+00 -0.11801406009E+03  0.11801406009E+03  0.00000000000E+00 0. -1.
         24    2    1    2    0    0  0.50775440335E+02 -0.91087760641E+01  0.16257515851E+03  0.18807876944E+03  0.79257972512E+02 0.  0.
         23    2    1    2    0    0 -0.26393545074E+02 -0.19971381065E+02  0.80025476892E+00  0.93882340648E+02  0.87850886134E+02 0.  0.
        -11    1    3    3    0    0 -0.54315693635E+01  0.23221677658E+02  0.18832059968E+02  0.30387410908E+02  0.00000000000E+00 0.  1.
         12    1    3    3    0    0  0.56207009698E+02 -0.32330453723E+02  0.14374309855E+03  0.15769135854E+03  0.00000000000E+00 0. -1.
        -11    1    4    4    0    0  0.14734071779E+01  0.33382927020E+02 -0.31239081520E+01  0.33561131495E+02  0.00000000000E+00 0.  1.
         11    1    4    4    0    0 -0.27866952252E+02 -0.53354308084E+02  0.39241629209E+01  0.60321209152E+02  0.00000000000E+00 0. -1.
          1    1    1    2  501    0 -0.24381895261E+02  0.29080157129E+02 -0.52589984510E+02  0.64852438859E+02  0.00000000000E+00 0. -1.
<scales pt_clust_5="13000.00000" pt_clust_6="13000.00000" pt_clust_7="13000.00000" pt_clust_8="13000.00000" pt_clust_9="37.94908"></scales>
<clustering>
<clus scale="   37.949">  2  9  1 -1</clus>
<clus scale="   79.258">  5  6 -1 -1</clus>
<clus scale="   87.851">  7  8 -1 -1</clus>
<clus scale="   91.450">  1  5  2 -1</clus>
<clus scale="   37.949">  2  5  1 -1</clus>
</clustering>
</event>
<event>
 9    2  0.5615294E-005  0.1148131E+03  0.7546771E-02  0.1255634E+00
          2   -1    0    0  502    0 -0.00000000000E+00  0.00000000000E+00  0.97969342648E+03  0.97969342648E+03  0.00000000000E+00 0. -1.
         21   -1    0    0  501  502  0.00000000000E+00 -0.00000000000E+00 -0.43520154120E+02  0.43520154120E+02  0.00000000000E+00 0. -1.
         24    2    1    2    0    0  0.44366249203E+02 -0.49784256952E+02  0.74595002637E+03  0.75326197008E+03  0.80717516211E+02 0.  0.
         23    2    1    2    0    0 -0.70171240383E+02  0.49408174718E+02  0.20497443824E+03  0.24022558354E+03  0.91261382589E+02 0.  0.
        -13    1    3    3    0    0  0.12133592329E+02 -0.18758336260E+02  0.39369600433E+02  0.45266595633E+02  0.00000000000E+00 0.  1.
         14    1    3    3    0    0  0.32232656875E+02 -0.31025920693E+02  0.70658042593E+03  0.70799537445E+03  0.00000000000E+00 0. -1.
        -13    1    4    4    0    0 -0.62418412712E+02  0.74512019544E+01  0.18028485341E+03  0.19092984844E+03  0.00000000000E+00 0. -1.
         13    1    4    4    0    0 -0.77528276704E+01  0.41956972764E+02  0.24689584825E+02  0.49295735102E+02  0.00000000000E+00 0.  1.
          1    1    1    2  501    0  0.25804991179E+02  0.37608223452E+00 -0.14751192240E+02  0.29726026982E+02  0.00000000000E+00 0. -1.
<scales pt_clust_5="13000.00000" pt_clust_6="13000.00000" pt_clust_7="13000.00000" pt_clust_8="13000.00000" pt_clust_9="25.80773"></scales>
<clustering>
<clus scale="   25.808">  2  9  1 -1</clus>
<clus scale="   80.718">  5  6 -1 -1</clus>
<clus scale="   91.261">  7  8 -1 -1</clus>
<clus scale="  106.624">  1  5  2 -1</clus>
<clus scale="   25.808">  2  5  1 -1</clus>
</clustering>
</event>
<event>
 9    2  0.5615294E-005  0.1209428E+03  0.7546771E-02  0.1243119E+00
         21   -1    0    0  501  502  0.00000000000E+00  0.00000000000E+00  0.55036976596E+02  0.55036976596E+02  0.00000000000E+00 0.  1.
          2   -1    0    0  502    0 -0.00000000000E+00 -0.00000000000E+00 -0.44115299616E+03  0.44115299616E+03  0.00000000000E+00 0. -1.
         24    2    1    2    0    0  0.59256142131E+02  0.46813156818E+02 -0.16064856978E+03  0.19875307899E+03  0.89398329969E+02 0.  0.
         23    2    1    2    0    0 -0.42764904211E+02 -0.66218731394E+02 -0.73196709856E+02  0.14305128728E+03  0.94298223952E+02 0.  0.
        -11    1    3    3    0    0 -0.50566924564E+00  0.56366044218E+02 -0.82265348947E+02  0.99724491874E+02  0.00000000000E+00 0.  1.
         12    1    3    3    0    0  0.59761811377E+02 -0.95528873994E+01 -0.78383220836E+02  0.99028587112E+02  0.00000000000E+00 0. -1.
        -13    1    4    4    0    0 -0.19830075966E+02 -0.23474179564E+02  0.20916472857E+02  0.37172138166E+02  0.00000000000E+00 0.  1.
         13    1    4    4    0    0 -0.22934828245E+02 -0.42744551829E+02 -0.94113182713E+02  0.10587914912E+03  0.00000000000E+00 0. -1.
          1    1    1    2  501    0 -0.16491237920E+02  0.19405574576E+02 -0.15227073993E+03  0.15438560649E+03  0.00000000000E+00 0. -1.
<scales pt_clust_5="13000.00000" pt_clust_6="13000.00000" pt_clust_7="13000.00000" pt_clust_8="13000.00000" pt_clust_9="25.46641"></scales>
<clustering>
<clus scale="   25.466">  1  9  2 -1</clus>
<clus scale="   89.398">  5  6 -1 -1</clus>
<clus scale="   94.298">  7  8 -1 -1</clus>
<clus scale="  117.163">  2  5  1 -1</clus>
<clus scale="   25.466">  1  5  2 -1</clus>
</clustering>
</event>
<event>
 9    2  0.5615294E-005  0.2069728E+03  0.7546771E-02  0.1144663E+00
         -1   -1    0    0    0  501 -0.00000000000E+00  0.00000000000E+00  0.47480523446E+03  0.47480523446E+03  0.00000000000E+00 0.  1.
         21   -1    0    0  501  502  0.00000000000E+00 -0.00000000000E+00 -0.27705947493E+03  0.27705947493E+03  0.00000000000E+00 0.  1.
         24    2    1    2    0    0  0.10343645665E+03  0.15944214421E+03  0.39749589805E+03  0.44832137967E+03  0.82874438686E+02 0.  0.
         23    2    1    2    0    0 -0.59647692120E+02 -0.14248567120E+03 -0.17509943692E+03  0.25050904868E+03  0.90746663788E+02 0.  0.
        -11    1    3    3    0    0  0.11543984742E+03  0.14004445220E+03  0.32402389969E+03  0.37138968017E+03  0.00000000000E+00 0.  1.
         12    1    3    3    0    0 -0.12003390771E+02  0.19397692013E+02  0.73471998353E+02  0.76931699496E+02  0.00000000000E+00 0. -1.
        -11    1    4    4    0    0  0.17367905518E+02 -0.50056755550E+02 -0.85159470824E+02  0.10029685134E+03  0.00000000000E+00 0.  1.
         11    1    4    4    0    0 -0.77015597638E+02 -0.92428915645E+02 -0.89939966095E+02  0.15021219734E+03  0.00000000000E+00 0. -1.
         -2    1    1    2    0  502 -0.43788764532E+02 -0.16956473017E+02 -0.24650701599E+02  0.53034281043E+02  0.00000000000E+00 0.  1.
<scales pt_clust_5="13000.00000" pt_clust_6="13000.00000" pt_clust_7="13000.00000" pt_clust_8="13000.00000" pt_clust_9="46.95719"></scales>
<clustering>
<clus scale="   46.957">  2  9  1 -1</clus>
<clus scale="   82.874">  5  6 -1 -1</clus>
<clus scale="   90.747">  7  8 -1 -1</clus>
<clus scale="  203.644">  1  5  2 -1</clus>
<clus scale="   46.957">  2  5  1 -1</clus>
</clustering>
</event>
<event>
 9    2  0.5615294E-005  0.1010466E+03  0.7546771E-02  0.1282579E+00
         21   -1    0    0  501  502  0.00000000000E+00  0.00000000000E+00  0.70042932276E+02  0.70042932276E+02  0.00000000000E+00 0.  1.
         -1   -1    0    0    0  501 -0.00000000000E+00 -0.00000000000E+00 -0.20307038607E+03  0.20307038607E+03  0.00000000000E+00 0.  1.
         23    2    1    2    0    0 -0.49793377003E+02  0.40629992451E+01 -0.83857882775E+02  0.13258112250E+03  0.89720238434E+02 0.  0.
         24    2    1    2    0    0  0.38944541258E+02  0.31302796216E+02 -0.37131284342E+02  0.10163030550E+03  0.80333332902E+02 0.  0.
        -13    1    4    4    0    0  0.88147697012E+01  0.33563550785E+02 -0.56092551414E+02  0.65958975359E+02  0.00000000000E+00 0.  1.
         14    1    4    4    0    0  0.30129771557E+02 -0.22607545696E+01  0.18961267072E+02  0.35671330145E+02  0.00000000000E+00 0. -1.
        -13    1    3    3    0    0 -0.41988059752E+02  0.44337628727E+02 -0.43023542791E+02  0.74698378277E+02  0.00000000000E+00 0. -1.
         13    1    3    3    0    0 -0.78053172509E+01 -0.40274629482E+02 -0.40834339984E+02  0.57882744227E+02  0.00000000000E+00 0.  1.
         -2    1    1    2    0  502  0.10848835745E+02 -0.35365795461E+02 -0.12038286673E+02  0.38901890335E+02  0.00000000000E+00 0.  1.
<scales pt_clust_5="13000.00000" pt_clust_6="13000.00000" pt_clust_7="13000.00000" pt_clust_8="13000.00000" pt_clust_9="36.99239"></scales>
<clustering>
<clus scale="   36.992">  1  9  2 -1</clus>
<clus scale="   80.333">  5  6 -1 -1</clus>
<clus scale="   89.720">  7  8 -1 -1</clus>
<clus scale="   92.812">  1  5  2 -1</clus>
<clus scale="   36.992">  1  5  2 -1</clus>
</clustering>
</event>
<event>
 9    2  0.5615294E-005  0.1180001E+03  0.7546771E-02  0.1249486E+00
         -3   -1    0    0    0  501 -0.00000000000E+00  0.00000000000E+00  0.39312975119E+03  0.39312975119E+03  0.00000000000E+00 0.  1.
         21   -1    0    0  501  502  0.00000000000E+00 -0.00000000000E+00 -0.52096564583E+02  0.52096564583E+02  0.00000000000E+00 0.  1.
         23    2    1    2    0    0  0.18511636089E+02 -0.57702830562E+02  0.14144785881E+03  0.17855097458E+03  0.90557475871E+02 0.  0.
         24    2    1    2    0    0 -0.62737292101E+02  0.76968661081E+02  0.13748673643E+03  0.18804127781E+03  0.81220544539E+02 0.  0.
        -11    1    4    4    0    0 -0.40793441299E+02  0.67747054270E+02  0.14317979494E+03  0.16356717853E+03  0.00000000000E+00 0.  1.
         12    1    4    4    0    0 -0.21943850802E+02  0.92216068109E+01 -0.56930585019E+01  0.24474099274E+02  0.00000000000E+00 0. -1.
        -13    1    3    3    0    0  0.47659547685E+02 -0.59430151914E+02  0.79724622856E+02  0.11026962833E+03  0.00000000000E+00 0.  1.
         13    1    3    3    0    0 -0.29147911596E+02  0.17273213527E+01  0.61723235949E+02  0.68281346249E+02  0.00000000000E+00 0. -1.
         -4    1    1    2    0  502  0.44225656012E+02 -0.19265830520E+02  0.62098591365E+02  0.78634063387E+02  0.00000000000E+00 0.  1.
<scales pt_clust_5="13000.00000" pt_clust_6="13000.00000" pt_clust_7="13000.00000" pt_clust_8="13000.00000" pt_clust_9="48.23985"></scales>
<clustering>
<clus scale="   48.240">  2  9  1 -1</clus>
<clus scale="   81.221">  5  6 -1 -1</clus>
<clus scale="   90.557">  7  8 -1 -1</clus>
<clus scale="  110.996">  2  5  1 -1</clus>
<clus scale="   48.240">  2  5  1 -1</clus>
</clustering>
</event>
<event>
 9    2  0.5615294E-005  0.1204801E+03  0.7546771E-02  0.1246347E+00
         21   -1    0    0  501  502  0.00000000000E+00  0.00000000000E+00  0.31397695902E+02  0.31397695902E+02  0.00000000000E+00 0. -1.
          2   -1    0    0  502    0 -0.00000000000E+00 -0.00000000000E+00 -0.95326563928E+03  0.95326563928E+03  0.00000000000E+00 0. -1.
         24    2    1    2    0    0 -0.36644178323E+02  0.83608946522E+02 -0.66649606475E+03  0.67728208020E+03  0.78490509569E+02 0.  0.
         23    2    1    2    0    0  0.17492789569E+01 -0.32702973469E+02 -0.96091352109E+02  0.13656158918E+03  0.91339888547E+02 0.  0.
        -11    1    3    3    0    0 -0.20334583581E+02  0.82616980943E+01 -0.36532551626E+02  0.42618989583E+02  0.00000000000E+00 0.  1.
         12    1    3    3    0    0 -0.16309594742E+02  0.75347248428E+02 -0.62996351312E+03  0.63466309062E+03  0.00000000000E+00 0. -1.
        -13    1    4    4    0    0 -0.40024207813E+02 -0.64965944166E+00 -0.62118551684E+02  0.73899078017E+02  0.00000000000E+00 0.  1.
         13    1    4    4    0    0  0.41773486770E+02 -0.32053314028E+02 -0.33972800425E+02  0.62662511167E+02  0.00000000000E+00 0. -1.
          1    1    1    2  501    0  0.34894899366E+02 -0.50905973053E+02 -0.15928052652E+03  0.17081966579E+03  0.00000000000E+00 0. -1.
<scales pt_clust_5="13000.00000" pt_clust_6="13000.00000" pt_clust_7="13000.00000" pt_clust_8="13000.00000" pt_clust_9="61.71768"></scales>
<clustering>
<clus scale="   61.718">  1  9  2 -1</clus>
<clus scale="   78.491">  5  6 -1 -1</clus>
<clus scale="   91.340">  7  8 -1 -1</clus>
<clus scale="  111.055">  2  5  1 -1</clus>
<clus scale="   61.718">  1  5  2 -1</clus>
</clustering>
</event>
<event>
 9    2  0.5615294E-005  0.1175383E+03  0.7546771E-02  0.1250203E+00
         -1   -1    0    0    0  501 -0.00000000000E+00  0.00000000000E+00  0.22152547818E+03  0.22152547818E+03  0.00000000000E+00 0.  1.
         21   -1    0    0  501  502  0.00000000000E+00 -0.00000000000E+00 -0.11092864112E+03  0.11092864112E+03  0.00000000000E+00 0. -1.
         24    2    1    2    0    0  0.86935898416E+02 -0.21255393266E+02  0.12493255515E+03  0.17436161804E+03  0.82366184393E+02 0.  0.
         23    2    1    2    0    0 -0.45541683535E+02 -0.11270083309E+02  0.28335630027E+01  0.10271947655E+03  0.91335656054E+02 0.  0.
        -13    1    3    3    0    0  0.54318187764E+02  0.28850244155E+02  0.69843611495E+02  0.93064129375E+02  0.00000000000E+00 0.  1.
         14    1    3    3    0    0  0.32617710652E+02 -0.50105637420E+02  0.55088943656E+02  0.81297488661E+02  0.00000000000E+00 0. -1.
        -11    1    4    4    0    0 -0.25435472360E+01  0.23841068470E+02  0.32020139222E+02  0.40001943630E+02  0.00000000000E+00 0.  1.
         11    1    4    4    0    0 -0.42998136299E+02 -0.35111151780E+02 -0.29186576219E+02  0.62717532922E+02  0.00000000000E+00 0. -1.
         -2    1    1    2    0  502 -0.41394214881E+02  0.32525476575E+02 -0.17169281093E+02  0.55373024708E+02  0.00000000000E+00 0.  1.
<scales pt_clust_5="13000.00000" pt_clust_6="13000.00000" pt_clust_7="13000.00000" pt_clust_8="13000.00000" pt_clust_9="52.64397"></scales>
<clustering>
<clus scale="   52.644">  2  9  1 -1</clus>
<clus scale="   82.366">  5  6 -1 -1</clus>
<clus scale="   91.336">  7  8 -1 -1</clus>
<clus scale="  110.712">  1  5  2 -1</clus>
<clus scale="   52.644">  2  5  1 -1</clus>
</clustering>
</event>
<event>
 9    2  0.5615294E-005  0.1686426E+03  0.7546771E-02  0.1181197E+00
         21   -1    0    0  501  502  0.00000000000E+00  0.00000000000E+00  0.16371377250E+03  0.16371377250E+03  0.00000000000E+00 0.  1.
          2   -1    0    0  502    0 -0.00000000000E+00 -0.00000000000E+00 -0.40954011089E+03  0.40954011089E+03  0.00000000000E+00 0. -1.
         24    2    1    2    0    0 -0.43996694648E+02  0.13565249841E+03 -0.24361911776E+03  0.29239519634E+03  0.76206081384E+02 0.  0.
         23    2    1    2    0    0  0.22563037099E+02 -0.14129767580E+03 -0.89048889957E+02  0.19123310346E+03  0.90367423480E+02 0.  0.
        -13    1    3    3    0    0 -0.46781298094E+02  0.57391908271E+02 -0.69827906946E+02  0.10177552542E+03  0.00000000000E+00 0.  1.
         14    1    3    3    0    0  0.27846034457E+01  0.78260590143E+02 -0.17379121081E+03  0.19061967092E+03  0.00000000000E+00 0. -1.
        -13    1    4    4    0    0 -0.30759650835E+02 -0.81198864017E+02 -0.61075509726E+02  0.10615851132E+03  0.00000000000E+00 0. -1.
         13    1    4    4    0    0  0.53322687934E+02 -0.60098811779E+02 -0.27973380232E+02  0.85074592138E+02  0.00000000000E+00 0.  1.
          1    1    1    2  501    0  0.21433657549E+02  0.56451773820E+01  0.86841669320E+02  0.89625583590E+02  0.00000000000E+00 0. -1.
<scales pt_clust_5="13000.00000" pt_clust_6="13000.00000" pt_clust_7="13000.00000" pt_clust_8="13000.00000" pt_clust_9="22.16460"></scales>
<clustering>
<clus scale="   22.165">  1  9  2 -1</clus>
<clus scale="   76.206">  5  6 -1 -1</clus>
<clus scale="   90.367">  7  8 -1 -1</clus>
<clus scale="  161.497">  2  5  1 -1</clus>
<clus scale="   22.165">  1  5  2 -1</clus>
</clustering>
</event>
<event>
 9    2  0.5615294E-005  0.9693026E+02  0.7546771E-02  0.1289844E+00
          2   -1    0    0  502    0 -0.00000000000E+00  0.00000000000E+00  0.16428085770E+03  0.16428085770E+03  0.00000000000E+00 0. -1.
         21   -1    0    0  501  502  0.00000000000E+00 -0.00000000000E+00 -0.15203829832E+03  0.15203829832E+03  0.00000000000E+00 0.  1.
         24    2    1    2    0    0  0.24811132048E+02 -0.14526857699E+02  0.99404030016E+02  0.13368810704E+03  0.84644709887E+02 0.  0.
         23    2    1    2    0    0 -0.66709357843E+02  0.14329935658E+02 -0.41198496094E+02  0.12043703695E+03  0.90289967929E+02 0.  0.
        -13    1    3    3    0    0 -0.85173998772E+01  0.26506338822E+02  0.95433165251E+01  0.29431394611E+02  0.00000000000E+00 0.  1.
         14    1    3    3    0    0  0.33328531925E+02 -0.41033196521E+02  0.89860713491E+02  0.10425671243E+03  0.00000000000E+00 0. -1.
        -11    1    4    4    0    0 -0.72890304666E+02  0.33597049446E+02 -0.53777502421E+02  0.96611479714E+02  0.00000000000E+00 0.  1.
         11    1    4    4    0    0  0.61809468239E+01 -0.19267113788E+02  0.12579006327E+02  0.23825557234E+02  0.00000000000E+00 0. -1.
          1    1    1    2  501    0  0.41898225795E+02  0.19692204077E+00 -0.45962974544E+02  0.62194012027E+02  0.00000000000E+00 0. -1.
<scales pt_clust_5="13000.00000" pt_clust_6="13000.00000" pt_clust_7="13000.00000" pt_clust_8="13000.00000" pt_clust_9="41.89869"></scales>
<clustering>
<clus scale="   41.899">  2  9  1 -1</clus>
<clus scale="   84.645">  5  6 -1 -1</clus>
<clus scale="   90.290">  7  8 -1 -1</clus>
<clus scale="   91.695">  1  5  2 -1</clus>
<clus scale="   41.899">  2  5  1 -1</clus>
</clustering>
</event>
<event>
 9    2  0.5615294E-005  0.2279668E+03  0.7546771E-02  0.1128775E+00
         21   -1    0    0  501  502  0.00000000000E+00  0.00000000000E+00  0.35210536872E+03  0.35210536872E+03  0.00000000000E+00 0. -1.
          2   -1    0    0  502    0 -0.00000000000E+00 -0.00000000000E+00 -0.13330277121E+04  0.13330277121E+04  0.00000000000E+00 0. -1.
         24    2    1    2    0    0 -0.97556368853E+02 -0.18935859739E+03 -0.11405305746E+04  0.11630915698E+04  0.81228595010E+02 0.  0.
         23    2    1    2    0    0 -0.64984392873E+02  0.22012086627E+03 -0.53000906516E+02  0.25265617007E+03  0.91377661940E+02 0.  0.
        -11    1    3    3    0    0 -0.48016465757E+01 -0.41633230247E+02 -0.10645489301E+03  0.11440728087E+03  0.00000000000E+00 0.  1.
         12    1    3    3    0    0 -0.92754722278E+02 -0.14772536715E+03 -0.10340756816E+04  0.10486842889E+04  0.00000000000E+00 0. -1.
        -13    1    4    4    0    0 -0.28206305866E+02  0.14053642217E+03 -0.75690530995E+02  0.16209607685E+03  0.00000000000E+00 0. -1.
         13    1    4    4    0    0 -0.36778087006E+02  0.79584444092E+02  0.22689624480E+02  0.90560093222E+02  0.00000000000E+00 0.  1.
          1    1    1    2  501    0  0.16254076173E+03 -0.30762268873E+02  0.21260913779E+03  0.26938534088E+03  0.00000000000E+00 0. -1.
<scales pt_clust_5="13000.00000" pt_clust_6="13000.00000" pt_clust_7="13000.00000" pt_clust_8="13000.00000" pt_clust_9="165.42617"></scales>
<clustering>
<clus scale="   81.229">  5  6 -1 -1</clus>
<clus scale="   91.378">  7  8 -1 -1</clus>
<clus scale="  165.426">  1  9  2 -1</clus>
<clus scale="  224.092">  2  5  1 -1</clus>
<clus scale="  165.426">  1  5  2 -1</clus>
</clustering>
</event>
<event>
 9    2  0.5615294E-005  0.1387752E+03  0.7546771E-02  0.1216627E+00
         21   -1    0    0  501  502  0.00000000000E+00  0.00000000000E+00  0.15321366915E+03  0.15321366915E+03  0.00000000000E+00 0.  1.
          2   -1    0    0  502    0 -0.00000000000E+00 -0.00000000000E+00 -0.85306009462E+03  0.85306009462E+03  0.00000000000E+00 0. -1.
         24    2    1    2    0    0 -0.29581906443E+02  0.91881004301E+02 -0.79779703217E+03  0.80966416691E+03  0.98786388269E+02 0.  0.
         23    2    1    2    0    0  0.34279749664E+02 -0.11213780836E+03  0.80163101565E+02  0.16924532854E+03  0.92021025195E+02 0.  0.
        -13    1    3    3    0    0 -0.27047006377E+02 -0.23267996052E+01 -0.59790784037E+02  0.65665001379E+02  0.00000000000E+00 0.  1.
         14    1    3    3    0    0 -0.25349000663E+01  0.94207803906E+02 -0.73800624813E+03  0.74399916554E+03  0.00000000000E+00 0. -1.
        -13    1    4    4    0    0 -0.11647456417E+01 -0.10863063982E+03  0.77658941169E+02  0.13353982059E+03  0.00000000000E+00 0.  1.
         13    1    4    4    0    0  0.35444495306E+02 -0.35071685478E+01  0.25041603960E+01  0.35705507950E+02  0.00000000000E+00 0. -1.
          1    1    1    2  501    0 -0.46978432205E+01  0.20256804063E+02  0.17787505128E+02  0.27364268315E+02  0.00000000000E+00 0. -1.
<scales pt_clust_5="13000.00000" pt_clust_6="13000.00000" pt_clust_7="13000.00000" pt_clust_8="13000.00000" pt_clust_9="20.79442"></scales>
<clustering>
<clus scale="   20.794">  1  9  2 -1</clus>
<clus scale="   92.021">  7  8 -1 -1</clus>
<clus scale="   98.786">  5  6 -1 -1</clus>
<clus scale="  134.044">  1  7  2 -1</clus>
<clus scale="   20.794">  1  5  2 -1</clus>
</clustering>
</event>
<event>
 9    2  0.5615294E-005  0.1307737E+03  0.7546771E-02  0.1227530E+00
         21   -1    0    0  501  502  0.00000000000E+00  0.00000000000E+00  0.11087968648E+03  0.11087968648E+03  0.00000000000E+00 0.  1.
         -1   -1    0    0    0  501 -0.00000000000E+00 -0.00000000000E+00 -0.22397731001E+03  0.22397731001E+03  0.00000000000E+00 0.  1.
         23    2    1    2    0    0  0.75601236559E+02  0.60432048615E+02 -0.91391518957E+02  0.16129024237E+03  0.91074437009E+02 0.  0.
         24    2    1    2    0    0 -0.54800477000E+02 -0.70702001372E+02  0.19935197507E+02  0.12589976798E+03  0.86321921903E+02 0.  0.
        -13    1    4    4    0    0 -0.53601812384E+02 -0.38285682367E+02  0.49195723757E+02  0.82214153290E+02  0.00000000000E+00 0.  1.
         14    1    4    4    0    0 -0.11986646157E+01 -0.32416319004E+02 -0.29260526250E+02  0.43685614692E+02  0.00000000000E+00 0. -1.
        -11    1    3    3    0    0  0.12632147283E+02  0.32146264204E+02 -0.85257335093E+02  0.91987861343E+02  0.00000000000E+00 0. -1.
         11    1    3    3    0    0  0.62969089276E+02  0.28285784411E+02 -0.61341838637E+01  0.69302381024E+02  0.00000000000E+00 0.  1.
         -2    1    1    2    0  502 -0.20800759560E+02  0.10269952757E+02 -0.41641302091E+02  0.47666986140E+02  0.00000000000E+00 0.  1.
<scales pt_clust_5="13000.00000" pt_clust_6="13000.00000" pt_clust_7="13000.00000" pt_clust_8="13000.00000" pt_clust_9="23.19793"></scales>
<clustering>
<clus scale="   23.198">  1  9  2 -1</clus>
<clus scale="   86.322">  5  6 -1 -1</clus>
<clus scale="   91.074">  7  8 -1 -1</clus>
<clus scale="  127.510">  1  5  2 -1</clus>
<clus scale="   23.198">  1  5  2 -1</clus>
</clustering>
</event>
<event>
 9    2  0.5615294E-005  0.3950190E+03  0.7546771E-02  0.1070591E+00
         21   -1    0    0  501  502  0.00000000000E+00  0.00000000000E+00  0.40882617638E+03  0.40882617638E+03  0.00000000000E+00 0.  1.
          2   -1    0    0  502    0 -0.00000000000E+00 -0.00000000000E+00 -0.90178666175E+03  0.90178666175E+03  0.00000000000E+00 0. -1.
         23    2    1    2    0    0 -0.17374024792E+03  0.11019834567E+02 -0.36704521497E+03  0.41576893524E+03  0.88512751464E+02 0.  0.
         24    2    1    2    0    0  0.42952398391E+03  0.68155530551E+02  0.18924752072E+03  0.48129627208E+03  0.81825719209E+02 0.  0.
        -13    1    4    4    0    0  0.38130279519E+03  0.73299191293E+02  0.14156404735E+03  0.41328558233E+03  0.00000000000E+00 0.  1.
         14    1    4    4    0    0  0.48221188724E+02 -0.51436607421E+01  0.47683473373E+02  0.68010689753E+02  0.00000000000E+00 0. -1.
        -11    1    3    3    0    0 -0.38026617608E+02  0.34430448106E+02 -0.15183162028E+03  0.16026328438E+03  0.00000000000E+00 0. -1.
         11    1    3    3    0    0 -0.13571363031E+03 -0.23410613539E+02 -0.21521359470E+03  0.25550565086E+03  0.00000000000E+00 0.  1.
          1    1    1    2  501    0 -0.25578373599E+03 -0.79175365118E+02 -0.31516279112E+03  0.41354763080E+03  0.00000000000E+00 0. -1.
<scales pt_clust_5="13000.00000" pt_clust_6="13000.00000" pt_clust_7="13000.00000" pt_clust_8="13000.00000" pt_clust_9="386.45139"></scales>
<clustering>
<clus scale="   81.826">  5  6 -1 -1</clus>
<clus scale="   88.513">  7  8 -1 -1</clus>
<clus scale="  195.299">  2  7  1 -1</clus>
<clus scale="  386.451">  1  9  2 -1</clus>
<clus scale="  386.451">  1  5  2 -1</clus>
</clustering>
</event>
<event>
 9    2  0.5615294E-005  0.2508822E+03  0.7546771E-02  0.1113956E+00
         21   -1    0    0  501  502  0.00000000000E+00  0.00000000000E+00  0.48304900864E+02  0.48304900864E+02  0.00000000000E+00 0. -1.
          4   -1    0    0  502    0 -0.00000000000E+00 -0.00000000000E+00 -0.16754179769E+04  0.16754179769E+04  0.00000000000E+00 0. -1.
         23    2    1    2    0    0  0.19924495131E+03  0.71292441190E+02 -0.64209830163E+03  0.68229623208E+03  0.91960625105E+02 0.  0.
         24    2    1    2    0    0 -0.25622976547E+03 -0.35061024047E+02 -0.83700527227E+03  0.87874045279E+03  0.68731284283E+02 0.  0.
        -11    1    4    4    0    0 -0.10125916898E+03 -0.31305672844E+02 -0.43898609425E+03  0.45159966275E+03  0.00000000000E+00 0.  1.
         12    1    4    4    0    0 -0.15497059649E+03 -0.37553512021E+01 -0.39801917802E+03  0.42714079003E+03  0.00000000000E+00 0. -1.
        -11    1    3    3    0    0  0.13800177583E+03  0.65976771145E+01 -0.44605050442E+03  0.46695724854E+03  0.00000000000E+00 0.  1.
         11    1    3    3    0    0  0.61243175481E+02  0.64694764076E+02 -0.19604779721E+03  0.21533898354E+03  0.00000000000E+00 0. -1.
          3    1    1    2  501    0  0.56984814162E+02 -0.36231417144E+02 -0.14800950210E+03  0.16268619285E+03  0.00000000000E+00 0. -1.
<scales pt_clust_5="13000.00000" pt_clust_6="13000.00000" pt_clust_7="13000.00000" pt_clust_8="13000.00000" pt_clust_9="67.52766"></scales>
<clustering>
<clus scale="   67.528">  1  9  2 -1</clus>
<clus scale="   68.731">  5  6 -1 -1</clus>
<clus scale="   91.961">  7  8 -1 -1</clus>
<clus scale="  243.329">  1  5  2 -1</clus>
<clus scale="   67.528">  1  5  2 -1</clus>
</clustering>
</event>
<event>
 9    2  0.5615294E-005  0.9670646E+02  0.7546771E-02  0.1292734E+00
          2   -1    0    0  502    0 -0.00000000000E+00  0.00000000000E+00  0.76228715911E+02  0.76228715911E+02  0.00000000000E+00 0. -1.
         21   -1    0    0  501  502  0.00000000000E+00 -0.00000000000E+00 -0.24536549157E+03  0.24536549157E+03  0.00000000000E+00 0. -1.
         24    2    1    2    0    0  0.17437030877E+02 -0.65958541888E+01 -0.63661082347E+02  0.10494868971E+03  0.81326125745E+02 0.  0.
         23    2    1    2    0    0 -0.15100289868E+02  0.62056850001E+02 -0.11530128815E+03  0.16027243262E+03  0.91180009994E+02 0.  0.
        -11    1    3    3    0    0 -0.66543904778E+01 -0.35712281169E+02 -0.72411803072E+01  0.37041633754E+02  0.00000000000E+00 0.  1.
         12    1    3    3    0    0  0.24091421355E+02  0.29116426980E+02 -0.56419902039E+02  0.67907055960E+02  0.00000000000E+00 0. -1.
        -13    1    4    4    0    0  0.33568331837E+02  0.10657473081E+02 -0.63303503321E+02  0.72441342944E+02  0.00000000000E+00 0.  1.
         13    1    4    4    0    0 -0.48668621705E+02  0.51399376920E+02 -0.51997784829E+02  0.87831089676E+02  0.00000000000E+00 0. -1.
          1    1    1    2  501    0 -0.23367410084E+01 -0.55460995812E+02  0.98255948390E+01  0.56373085147E+02  0.00000000000E+00 0. -1.
<scales pt_clust_5="13000.00000" pt_clust_6="13000.00000" pt_clust_7="13000.00000" pt_clust_8="13000.00000" pt_clust_9="55.51023"></scales>
<clustering>
<clus scale="   55.510">  2  9  1 -1</clus>
<clus scale="   81.326">  5  6 -1 -1</clus>
<clus scale="   87.477">  1  5  2 -1</clus>
<clus scale="   91.180">  7  8 -1 -1</clus>
<clus scale="   55.510">  2  5  1 -1</clus>
</clustering>
</event>
<event>
 9    2  0.5615294E-005  0.1297383E+03  0.7546771E-02  0.1230383E+00
         21   -1    0    0  501  502  0.00000000000E+00  0.00000000000E+00  0.35040053031E+02  0.35040053031E+02  0.00000000000E+00 0. -1.
          2   -1    0    0  502    0 -0.00000000000E+00 -0.00000000000E+00 -0.67766247365E+03  0.67766247365E+03  0.00000000000E+00 0. -1.
         24    2    1    2    0    0  0.75116789978E+02 -0.41642117992E+02 -0.24521672442E+03  0.27190149666E+03  0.80141024618E+02 0.  0.
         23    2    1    2    0    0 -0.70750505302E+02  0.81400802225E+02 -0.23715221501E+03  0.27563143339E+03  0.89998829926E+02 0.  0.
        -13    1    3    3    0    0  0.26748477306E+02  0.87374402910E+01 -0.16193334412E+02  0.32466105101E+02  0.00000000000E+00 0.  1.
         14    1    3    3    0    0  0.48368312672E+02 -0.50379558283E+02 -0.22902339001E+03  0.23943539156E+03  0.00000000000E+00 0. -1.
        -13    1    4    4    0    0 -0.75474608736E+02  0.27693271607E+02 -0.17958707007E+03  0.19676089447E+03  0.00000000000E+00 0.  1.
         13    1    4    4    0    0  0.47241034334E+01  0.53707530618E+02 -0.57565144934E+02  0.78870538921E+02  0.00000000000E+00 0. -1.
          1    1    1    2  501    0 -0.43662846761E+01 -0.39758684233E+02 -0.16025348120E+03  0.16516959663E+03  0.00000000000E+00 0. -1.
<scales pt_clust_5="13000.00000" pt_clust_6="13000.00000" pt_clust_7="13000.00000" pt_clust_8="13000.00000" pt_clust_9="39.99774"></scales>
<clustering>
<clus scale="   39.998">  1  9  2 -1</clus>
<clus scale="   80.141">  5  6 -1 -1</clus>
<clus scale="   89.999">  7  8 -1 -1</clus>
<clus scale="  123.105">  2  5  1 -1</clus>
<clus scale="   39.998">  1  5  2 -1</clus>
</clustering>
</event>
<event>
 9    2  0.5615294E-005  0.1128378E+03  0.7546771E-02  0.1256083E+00
          2   -1    0    0  502    0 -0.00000000000E+00  0.00000000000E+00  0.17954792863E+03  0.17954792863E+03  0.00000000000E+00 0. -1.
         21   -1    0    0  501  502  0.00000000000E+00 -0.00000000000E+00 -0.22663745446E+03  0.22663745446E+03  0.00000000000E+00 0. -1.
         24    2    1    2    0    0  0.42345112149E+02 -0.42504293347E+02  0.52081453108E+02  0.12069391151E+03  0.90856034703E+02 0.  0.
         23    2    1    2    0    0 -0.57140476014E+02  0.88925455338E+02 -0.15748513692E+03  0.20950220857E+03  0.88976606146E+02 0.  0.
        -11    1    3    3    0    0  0.43016294342E+02 -0.44035312951E+02 -0.66694440373E+01  0.61919236505E+02  0.00000000000E+00 0.  1.
         12    1    3    3    0    0 -0.67118219272E+00  0.15310196036E+01  0.58750897146E+02  0.58774675005E+02  0.00000000000E+00 0. -1.
        -11    1    4    4    0    0 -0.87643729026E+01  0.57517418374E+02 -0.21913385858E+02  0.62171248408E+02  0.00000000000E+00 0.  1.
         11    1    4    4    0    0 -0.48376103111E+02  0.31408036964E+02 -0.13557175106E+03  0.14733096016E+03  0.00000000000E+00 0. -1.
          1    1    1    2  501    0  0.14795363865E+02 -0.46421161991E+02  0.58314157980E+02  0.75989263014E+02  0.00000000000E+00 0. -1.
<scales pt_clust_5="13000.00000" pt_clust_6="13000.00000" pt_clust_7="13000.00000" pt_clust_8="13000.00000" pt_clust_9="48.72196"></scales>
<clustering>
<clus scale="   48.722">  2  9  1 -1</clus>
<clus scale="   88.977">  7  8 -1 -1</clus>
<clus scale="   90.856">  5  6 -1 -1</clus>
<clus scale="  111.330">  2  7  1 -1</clus>
<clus scale="   48.722">  2  5  1 -1</clus>
</clustering>
</event>
<event>
 9    2  0.5615294E-005  0.9713121E+02  0.7546771E-02  0.1291523E+00
          2   -1    0    0  502    0 -0.00000000000E+00  0.00000000000E+00  0.74912708561E+03  0.74912708561E+03  0.00000000000E+00 0. -1.
         21   -1    0    0  501  502  0.00000000000E+00 -0.00000000000E+00 -0.17433361710E+02  0.17433361710E+02  0.00000000000E+00 0. -1.
         24    2    1    2    0    0 -0.38805570634E+02 -0.12384431258E+02  0.42205783080E+03  0.43148835489E+03  0.79938360097E+02 0.  0.
         23    2    1    2    0    0  0.33328569939E+02 -0.12731643323E+02  0.19439535561E+03  0.21699924958E+03  0.89589238853E+02 0.  0.
        -13    1    3    3    0    0  0.61366180675E+01  0.28196729170E+02  0.11999900434E+03  0.12341991193E+03  0.00000000000E+00 0.  1.
         14    1    3    3    0    0 -0.44942188702E+02 -0.40581160428E+02  0.30205882646E+03  0.30806844296E+03  0.00000000000E+00 0. -1.
        -13    1    4    4    0    0 -0.36279040046E+01  0.34718317287E+02  0.89782441073E+02  0.96329694112E+02  0.00000000000E+00 0.  1.
         13    1    4    4    0    0  0.36956473943E+02 -0.47449960609E+02  0.10461291454E+03  0.12066955546E+03  0.00000000000E+00 0. -1.
          1    1    1    2  501    0  0.54770006954E+01  0.25116074581E+02  0.11524053749E+03  0.11807284285E+03  0.00000000000E+00 0. -1.
<scales pt_clust_5="13000.00000" pt_clust_6="13000.00000" pt_clust_7="13000.00000" pt_clust_8="13000.00000" pt_clust_9="25.70633"></scales>
<clustering>
<clus scale="   25.706">  2  9  1 -1</clus>
<clus scale="   79.938">  5  6 -1 -1</clus>
<clus scale="   88.308">  1  5  2 -1</clus>
<clus scale="   89.589">  7  8 -1 -1</clus>
<clus scale="   25.706">  2  5  1 -1</clus>
</clustering>
</event>
<event>
 9    2  0.7882350E-005  0.9455136E+02  0.7546771E-02  0.1296593E+00
         -1   -1    0    0    0  501 -0.00000000000E+00  0.00000000000E+00  0.50461277208E+03  0.50461277208E+03  0.00000000000E+00 0.  1.
         21   -1    0    0  501  502  0.00000000000E+00 -0.00000000000E+00 -0.47821555586E+02  0.47821555586E+02  0.00000000000E+00 0. -1.
         23    2    1    2    0    0 -0.80141555849E+01  0.27240990618E+02  0.40308995170E+03  0.41390682444E+03  0.89616136345E+02 0.  0.
         24    2    1    2    0    0  0.33515812142E+02 -0.28082307594E+02  0.62204874056E+02  0.11163226812E+03  0.81733660543E+02 0.  0.
        -13    1    4    4    0    0  0.25141492372E+02  0.26157588231E+02  0.15066468891E+02  0.39285016808E+02  0.00000000000E+00 0.  1.
         14    1    4    4    0    0  0.83743197694E+01 -0.54239895825E+02  0.47138405166E+02  0.72347251311E+02  0.00000000000E+00 0. -1.
        -13    1    3    3    0    0  0.20224680471E+02  0.48167952657E+02  0.31061615282E+03  0.31497870365E+03  0.00000000000E+00 0.  1.
         13    1    3    3    0    0 -0.28238836056E+02 -0.20926962039E+02  0.92473798884E+02  0.98928120785E+02  0.00000000000E+00 0. -1.
         -2    1    1    2    0  502 -0.25501656557E+02  0.84131697564E+00 -0.85036092586E+01  0.26895235114E+02  0.00000000000E+00 0.  1.
<scales pt_clust_5="13000.00000" pt_clust_6="13000.00000" pt_clust_7="13000.00000" pt_clust_8="13000.00000" pt_clust_9="25.51553"></scales>
<clustering>
<clus scale="   25.516">  2  9  1 -1</clus>
<clus scale="   81.734">  5  6 -1 -1</clus>
<clus scale="   87.117">  2  5  1 -1</clus>
<clus scale="   89.616">  7  8 -1 -1</clus>
<clus scale="   25.516">  2  5  1 -1</clus>
</clustering>
</event>
<event>
 9    2  0.5615294E-005  0.1505353E+03  0.7546771E-02  0.1217513E+00
         21   -1    0    0  501  502  0.00000000000E+00  0.00000000000E+00  0.13115033144E+03  0.13115033144E+03  0.00000000000E+00 0. -1.
          2   -1    0    0  502    0 -0.00000000000E+00 -0.00000000000E+00 -0.40727756548E+03  0.40727756548E+03  0.00000000000E+00 0. -1.
         23    2    1    2    0    0  0.35179941182E+02  0.40272645624E+02 -0.18778691220E+02  0.10477051222E+03  0.88117573385E+02 0.  0.
         24    2    1    2    0    0 -0.12932988337E+03 -0.10547357798E+03 -0.25785172708E+03  0.31913390942E+03  0.86648973443E+02 0.  0.
        -13    1    4    4    0    0 -0.32735138898E+02 -0.57758200430E+02 -0.43912736975E+02  0.79598539586E+02  0.00000000000E+00 0.  1.
         14    1    4    4    0    0 -0.96594744476E+02 -0.47715377552E+02 -0.21393899010E+03  0.23953536983E+03  0.00000000000E+00 0. -1.
        -13    1    3    3    0    0  0.24118808625E+02 -0.16960733390E+02  0.19211036605E+02  0.35191580443E+02  0.00000000000E+00 0.  1.
         13    1    3    3    0    0  0.11061132557E+02  0.57233379014E+02 -0.37989727825E+02  0.69578931775E+02  0.00000000000E+00 0. -1.
          1    1    1    2  501    0  0.94149942193E+02  0.65200932358E+02  0.50318425345E+00  0.11452347528E+03  0.00000000000E+00 0. -1.
<scales pt_clust_5="13000.00000" pt_clust_6="13000.00000" pt_clust_7="13000.00000" pt_clust_8="13000.00000" pt_clust_9="123.09689"></scales>
<clustering>
<clus scale="   86.649">  5  6 -1 -1</clus>
<clus scale="   88.118">  7  8 -1 -1</clus>
<clus scale="  103.074">  2  7  1 -1</clus>
<clus scale="  123.097">  1  9  2 -1</clus>
<clus scale="  123.097">  1  5  2 -1</clus>
</clustering>
</event>
<event>
 9    2  0.5615294E-005  0.9199135E+02  0.7546771E-02  0.1303587E+00
         21   -1    0    0  501  502  0.00000000000E+00  0.00000000000E+00  0.59085868665E+02  0.59085868665E+02  0.00000000000E+00 0. -1.
         -3   -1    0    0    0  501 -0.00000000000E+00 -0.00000000000E+00 -0.31454778315E+03  0.31454778315E+03  0.00000000000E+00 0.  1.
         24    2    1    2    0    0  0.26463540306E+01 -0.25376566097E+02 -0.22057606061E+03  0.23644515518E+03  0.81249859056E+02 0.  0.
         23    2    1    2    0    0  0.35989890616E+01 -0.14626616977E+02 -0.30458801988E+02  0.96459419133E+02  0.90276188856E+02 0.  0.
        -13    1    3    3    0    0  0.25288933233E+02 -0.45871409173E+02 -0.16386697793E+03  0.17203517890E+03  0.00000000000E+00 0.  1.
         14    1    3    3    0    0 -0.22642579203E+02  0.20494843076E+02 -0.56709082679E+02  0.64409976276E+02  0.00000000000E+00 0. -1.
        -11    1    4    4    0    0  0.95652113398E+01  0.21733927739E+02 -0.49560682688E+02  0.54955601638E+02  0.00000000000E+00 0.  1.
         11    1    4    4    0    0 -0.59662222782E+01 -0.36360544716E+02  0.19101880700E+02  0.41503817494E+02  0.00000000000E+00 0. -1.
         -4    1    1    2    0  502 -0.62453430922E+01  0.40003183073E+02 -0.44270518945E+01  0.40729077510E+02  0.00000000000E+00 0.  1.
<scales pt_clust_5="13000.00000" pt_clust_6="13000.00000" pt_clust_7="13000.00000" pt_clust_8="13000.00000" pt_clust_9="40.48776"></scales>
<clustering>
<clus scale="   40.488">  1  9  2 -1</clus>
<clus scale="   81.250">  5  6 -1 -1</clus>
<clus scale="   83.151">  2  5  1 -1</clus>
<clus scale="   90.276">  7  8 -1 -1</clus>
<clus scale="   40.488">  1  5  2 -1</clus>
</clustering>
</event>
<event>
 9    2  0.5615294E-005  0.1626097E+03  0.7546771E-02  0.1208949E+00
         21   -1    0    0  501  502  0.00000000000E+00  0.00000000000E+00  0.87337235224E+03  0.87337235224E+03  0.00000000000E+00 0. -1.
          2   -1    0    0  502    0 -0.00000000000E+00 -0.00000000000E+00 -0.11905265051E+03  0.11905265051E+03  0.00000000000E+00 0. -1.
         24    2    1    2    0    0 -0.20562408313E+02  0.51400985037E+02  0.32214379113E+02  0.10324281606E+03  0.80971840462E+02 0.  0.
         23    2    1    2    0    0  0.10931476452E+03  0.53130410667E+02 -0.27403068811E+01  0.15147968565E+03  0.90366075515E+02 0.  0.
        -11    1    3    3    0    0 -0.27205593418E+02  0.52913480369E+02 -0.10129899283E+02  0.60353919322E+02  0.00000000000E+00 0.  1.
         12    1    3    3    0    0  0.66431851049E+01 -0.15124953321E+01  0.42344278396E+02  0.42888896738E+02  0.00000000000E+00 0. -1.
        -11    1    4    4    0    0 -0.74551050788E+01  0.30677443283E+02  0.64270843307E+01  0.32217875956E+02  0.00000000000E+00 0.  1.
         11    1    4    4    0    0  0.11676986960E+03  0.22452967384E+02 -0.91673912118E+01  0.11926180970E+03  0.00000000000E+00 0. -1.
          1    1    1    2  501    0 -0.88752356208E+02 -0.10453139570E+03  0.72484562950E+03  0.73770250103E+03  0.00000000000E+00 0. -1.
<scales pt_clust_5="13000.00000" pt_clust_6="13000.00000" pt_clust_7="13000.00000" pt_clust_8="13000.00000" pt_clust_9="135.18833"></scales>
<clustering>
<clus scale="   80.972">  5  6 -1 -1</clus>
<clus scale="   90.366">  7  8 -1 -1</clus>
<clus scale="   98.088">  2  5  1 -1</clus>
<clus scale="  135.188">  1  9  2 -1</clus>
<clus scale="  135.188">  1  5  2 -1</clus>
</clustering>
</event>
<event>
 9    2  0.5615294E-005  0.1141390E+03  0.7546771E-02  0.1256220E+00
          2   -1    0    0  502    0 -0.00000000000E+00  0.00000000000E+00  0.98601960675E+02  0.98601960675E+02  0.00000000000E+00 0. -1.
         21   -1    0    0  501  502  0.00000000000E+00 -0.00000000000E+00 -0.18438850005E+03  0.18438850005E+03  0.00000000000E+00 0. -1.
         23    2    1    2    0    0 -0.76755877281E+02  0.13170106383E+02  0.19071332424E+01  0.11996302576E+03  0.91228142555E+02 0.  0.
         24    2    1    2    0    0  0.49488337216E+02 -0.31763944372E+02 -0.50120069586E+02  0.11301718404E+03  0.82479202412E+02 0.  0.
        -11    1    4    4    0    0  0.44865836003E+01 -0.38750472705E+02  0.73447715806E+01  0.39694763342E+02  0.00000000000E+00 0.  1.
         12    1    4    4    0    0  0.45001753616E+02  0.69865283328E+01 -0.57464841167E+02  0.73322420698E+02  0.00000000000E+00 0. -1.
        -11    1    3    3    0    0 -0.47412315256E+02 -0.57417248644E+00 -0.43387941571E+02  0.64271072698E+02  0.00000000000E+00 0.  1.
         11    1    3    3    0    0 -0.29343562025E+02  0.13744278870E+02  0.45295074814E+02  0.55691953066E+02  0.00000000000E+00 0. -1.
          1    1    1    2  501    0  0.27267540065E+02  0.18593837988E+02 -0.37573603029E+02  0.50010250919E+02  0.00000000000E+00 0. -1.
<scales pt_clust_5="13000.00000" pt_clust_6="13000.00000" pt_clust_7="13000.00000" pt_clust_8="13000.00000" pt_clust_9="33.00378"></scales>
<clustering>
<clus scale="   33.004">  2  9  1 -1</clus>
<clus scale="   82.479">  5  6 -1 -1</clus>
<clus scale="   91.228">  7  8 -1 -1</clus>
<clus scale="  107.275">  2  5  1 -1</clus>
<clus scale="   33.004">  2  5  1 -1</clus>
</clustering>
</event>
<event>
 9    2  0.5615294E-005  0.1867049E+03  0.7546771E-02  0.1163216E+00
         21   -1    0    0  501  502  0.00000000000E+00  0.00000000000E+00  0.36021482727E+03  0.36021482727E+03  0.00000000000E+00 0. -1.
          2   -1    0    0  502    0 -0.00000000000E+00 -0.00000000000E+00 -0.22202151210E+03  0.22202151210E+03  0.00000000000E+00 0. -1.
         23    2    1    2    0    0 -0.15160959325E+03 -0.34510961627E+02  0.44448404976E+02  0.18471279052E+03  0.89256254917E+02 0.  0.
         24    2    1    2    0    0  0.27420203053E+02  0.17663018520E+03  0.49077846941E+02  0.20357503794E+03  0.84166924353E+02 0.  0.
        -13    1    4    4    0    0 -0.30355937564E+01  0.15097777587E+03  0.16084038809E+02  0.15186243756E+03  0.00000000000E+00 0.  1.
         14    1    4    4    0    0  0.30455796809E+02  0.25652409324E+02  0.32993808132E+02  0.51712600384E+02  0.00000000000E+00 0. -1.
        -11    1    3    3    0    0 -0.49142307844E+01 -0.20588696803E+02  0.29910800162E+02  0.36642871975E+02  0.00000000000E+00 0.  1.
         11    1    3    3    0    0 -0.14669536246E+03 -0.13922264824E+02  0.14537604814E+02  0.14806991855E+03  0.00000000000E+00 0. -1.
          1    1    1    2  501    0  0.12418939019E+03 -0.14211922357E+03  0.44667063250E+02  0.19394851091E+03  0.00000000000E+00 0. -1.
<scales pt_clust_5="13000.00000" pt_clust_6="13000.00000" pt_clust_7="13000.00000" pt_clust_8="13000.00000" pt_clust_9="166.65740"></scales>
<clustering>
<clus scale="   84.167">  5  6 -1 -1</clus>
<clus scale="   89.256">  7  8 -1 -1</clus>
<clus scale="  179.285">  2  7  1 -1</clus>
<clus scale="  166.657">  1  9  2 -1</clus>
<clus scale="  166.657">  1  5  2 -1</clus>
</clustering>
</event>
<event>
 9    2  0.5615294E-005  0.1044274E+03  0.7546771E-02  0.1277720E+00
         -1   -1    0    0    0  501 -0.00000000000E+00  0.00000000000E+00  0.15001889603E+03  0.15001889603E+03  0.00000000000E+00 0.  1.
         21   -1    0    0  501  502  0.00000000000E+00 -0.00000000000E+00 -0.18081950420E+03  0.18081950420E+03  0.00000000000E+00 0. -1.
         23    2    1    2    0    0 -0.16707360976E+02 -0.49554173116E+02  0.10424372047E+03  0.14890689657E+03  0.92583792337E+02 0.  0.
         24    2    1    2    0    0  0.16017930366E+02  0.19419907858E+02 -0.12572947274E+03  0.15038287775E+03  0.78571004119E+02 0.  0.
        -11    1    4    4    0    0 -0.20980537754E+01  0.31727545763E+02 -0.11098014292E+02  0.33677958830E+02  0.00000000000E+00 0.  1.
         12    1    4    4    0    0  0.18115984142E+02 -0.12307637905E+02 -0.11463145845E+03  0.11670491892E+03  0.00000000000E+00 0. -1.
        -13    1    3    3    0    0 -0.48332365417E+02 -0.29199268575E+02  0.26150227927E+02  0.62229006523E+02  0.00000000000E+00 0. -1.
         13    1    3    3    0    0  0.31625004441E+02 -0.20354904541E+02  0.78093492544E+02  0.86677890045E+02  0.00000000000E+00 0.  1.
         -2    1    1    2    0  502  0.68943060969E+00  0.30134265258E+02 -0.93148558967E+01  0.31548625923E+02  0.00000000000E+00 0.  1.
<scales pt_clust_5="13000.00000" pt_clust_6="13000.00000" pt_clust_7="13000.00000" pt_clust_8="13000.00000" pt_clust_9="30.14215"></scales>
<clustering>
<clus scale="   30.142">  2  9  1 -1</clus>
<clus scale="   78.571">  5  6 -1 -1</clus>
<clus scale="   92.232">  2  5  1 -1</clus>
<clus scale="   92.584">  7  8 -1 -1</clus>
<clus scale="   30.142">  2  5  1 -1</clus>
</clustering>
</event>
<event>
 9    2  0.5615294E-005  0.1596728E+03  0.7546771E-02  0.1206956E+00
         -1   -1    0    0    0  501 -0.00000000000E+00  0.00000000000E+00  0.18482575912E+03  0.18482575912E+03  0.00000000000E+00 0.  1.
         21   -1    0    0  501  502  0.00000000000E+00 -0.00000000000E+00 -0.25379465243E+03  0.25379465243E+03  0.00000000000E+00 0.  1.
         23    2    1    2    0    0 -0.50085899800E+01 -0.57485013044E+02 -0.53896019267E+02  0.12080823266E+03  0.91434323361E+02 0.  0.
         24    2    1    2    0    0 -0.11477555519E+03  0.10893569833E+03  0.28276527537E+02  0.18042737234E+03  0.81939369296E+02 0.  0.
        -11    1    4    4    0    0 -0.93501888826E+02  0.32718006142E+02  0.14985821208E+02  0.10018805307E+03  0.00000000000E+00 0.  1.
         12    1    4    4    0    0 -0.21273666366E+02  0.76217692191E+02  0.13290706329E+02  0.80239319279E+02  0.00000000000E+00 0. -1.
        -11    1    3    3    0    0 -0.31840407968E+01  0.25182146115E+02 -0.14224200162E+02  0.29096502694E+02  0.00000000000E+00 0.  1.
         11    1    3    3    0    0 -0.18245491831E+01 -0.82667159159E+02 -0.39671819105E+02  0.91711729971E+02  0.00000000000E+00 0. -1.
         -2    1    1    2    0  502  0.11978414517E+03 -0.51450685289E+02 -0.43349401573E+02  0.13738480654E+03  0.00000000000E+00 0.  1.
<scales pt_clust_5="13000.00000" pt_clust_6="13000.00000" pt_clust_7="13000.00000" pt_clust_8="13000.00000" pt_clust_9="137.04500"></scales>
<clustering>
<clus scale="   81.939">  5  6 -1 -1</clus>
<clus scale="   91.434">  7  8 -1 -1</clus>
<clus scale="  108.120">  1  7  2 -1</clus>
<clus scale="  137.045">  2  9  1 -1</clus>
<clus scale="  137.045">  2  5  1 -1</clus>
</clustering>
</event>
<event>
 9    2  0.5615294E-005  0.1038513E+03  0.7546771E-02  0.1303482E+00
         21   -1    0    0  501  502  0.00000000000E+00  0.00000000000E+00  0.10096099359E+03  0.10096099359E+03  0.00000000000E+00 0.  1.
         -1   -1    0    0    0  501 -0.00000000000E+00 -0.00000000000E+00 -0.13700125040E+03  0.13700125040E+03  0.00000000000E+00 0.  1.
         24    2    1    2    0    0 -0.13386371164E+02 -0.12191452925E+02  0.33712087543E+01  0.58002670713E+02  0.55001075480E+02 0.  0.
         23    2    1    2    0    0 -0.49653053756E+02 -0.14707554148E+02  0.20472394200E+01  0.99857451618E+02  0.85355618199E+02 0.  0.
        -11    1    3    3    0    0 -0.21040666187E+02 -0.29368215595E+02  0.10915775883E+02  0.37740639687E+02  0.00000000000E+00 0.  1.
         12    1    3    3    0    0  0.76542950236E+01  0.17176762670E+02 -0.75445671284E+01  0.20262031026E+02  0.00000000000E+00 0. -1.
        -13    1    4    4    0    0 -0.71454214380E+02  0.14134953120E+01 -0.55949611073E+01  0.71686862893E+02  0.00000000000E+00 0.  1.
         13    1    4    4    0    0  0.21801160624E+02 -0.16121049460E+02  0.76422005273E+01  0.28170588725E+02  0.00000000000E+00 0. -1.
         -2    1    1    2    0  502  0.63039424920E+02  0.26899007073E+02 -0.41458704983E+02  0.80102121661E+02  0.00000000000E+00 0.  1.
<scales pt_clust_5="13000.00000" pt_clust_6="13000.00000" pt_clust_7="13000.00000" pt_clust_8="13000.00000" pt_clust_9="59.15672"></scales>
<clustering>
<clus scale="   55.001">  5  6 -1 -1</clus>
<clus scale="   57.905">  2  5  1 -1</clus>
<clus scale="   59.157">  1  9  2 -1</clus>
<clus scale="   85.356">  7  8 -1 -1</clus>
<clus scale="   59.157">  1  5  2 -1</clus>
</clustering>
</event>
<event>
 9    2  0.5615294E-005  0.1163961E+03  0.7546771E-02  0.1253598E+00
         21   -1    0    0  501  502  0.00000000000E+00  0.00000000000E+00  0.39274682156E+02  0.39274682156E+02  0.00000000000E+00 0. -1.
          2   -1    0    0  502    0 -0.00000000000E+00 -0.00000000000E+00 -0.64461017474E+03  0.64461017474E+03  0.00000000000E+00 0. -1.
         23    2    1    2    0    0  0.69195671750E+02 -0.14079890045E+02 -0.35055693860E+03  0.36938955385E+03  0.92586127482E+02 0.  0.
         24    2    1    2    0    0 -0.74193721445E+02 -0.36977936435E+02 -0.10364278795E+03  0.15488984599E+03  0.79855875255E+02 0.  0.
        -11    1    4    4    0    0 -0.70463149779E+02 -0.50167034604E+02 -0.10987187929E+03  0.13983424722E+03  0.00000000000E+00 0.  1.
         12    1    4    4    0    0 -0.37305716658E+01  0.13189098169E+02  0.62290913378E+01  0.15055598771E+02  0.00000000000E+00 0. -1.
        -11    1    3    3    0    0 -0.24159827515E+01 -0.34343211109E+02 -0.18059575463E+03  0.18384808868E+03  0.00000000000E+00 0.  1.
         11    1    3    3    0    0  0.71611654502E+02  0.20263321064E+02 -0.16996118398E+03  0.18554146518E+03  0.00000000000E+00 0. -1.
          1    1    1    2  501    0  0.49980496950E+01  0.51057826480E+02 -0.15113576603E+03  0.15960545705E+03  0.00000000000E+00 0. -1.
<scales pt_clust_5="13000.00000" pt_clust_6="13000.00000" pt_clust_7="13000.00000" pt_clust_8="13000.00000" pt_clust_9="51.30190"></scales>
<clustering>
<clus scale="   51.302">  1  9  2 -1</clus>
<clus scale="   79.856">  5  6 -1 -1</clus>
<clus scale="   92.586">  7  8 -1 -1</clus>
<clus scale="  106.550">  1  5  2 -1</clus>
<clus scale="   51.302">  1  5  2 -1</clus>
</clustering>
</event>
<event>
 9    2  0.5615294E-005  0.3037408E+03  0.7546771E-02  0.1083693E+00
         21   -1    0    0  501  502  0.00000000000E+00  0.00000000000E+00  0.45988522175E+03  0.45988522175E+03  0.00000000000E+00 0.  1.
          2   -1    0    0  502    0 -0.00000000000E+00 -0.00000000000E+00 -0.75237894062E+03  0.75237894062E+03  0.00000000000E+00 0. -1.
         23    2    1    2    0    0 -0.17897337286E+03 -0.23478713142E+03 -0.31811280351E+03  0.44293875039E+03  0.88557978579E+02 0.  0.
         24    2    1    2    0    0  0.27078584679E+03  0.11675472772E+03  0.31799715780E+03  0.44092608743E+03  0.79605156493E+02 0.  0.
        -11    1    4    4    0    0  0.23434043019E+03  0.67141161229E+02  0.24906980768E+03  0.34850988774E+03  0.00000000000E+00 0.  1.
         12    1    4    4    0    0  0.36445416606E+02  0.49613566495E+02  0.68927350116E+02  0.92416199694E+02  0.00000000000E+00 0. -1.
        -13    1    3    3    0    0 -0.21759263602E+02 -0.89587055250E+02 -0.11985571932E+03  0.15121077830E+03  0.00000000000E+00 0. -1.
         13    1    3    3    0    0 -0.15721410926E+03 -0.14520007617E+03 -0.19825708419E+03  0.29172797209E+03  0.00000000000E+00 0.  1.
          1    1    1    2  501    0 -0.91812473933E+02  0.11803240369E+03 -0.29237807317E+03  0.32839932455E+03  0.00000000000E+00 0. -1.
<scales pt_clust_5="13000.00000" pt_clust_6="13000.00000" pt_clust_7="13000.00000" pt_clust_8="13000.00000" pt_clust_9="149.53662"></scales>
<clustering>
<clus scale="   79.605">  5  6 -1 -1</clus>
<clus scale="   88.558">  7  8 -1 -1</clus>
<clus scale="  149.537">  1  9  2 -1</clus>
<clus scale="  301.252">  1  5  2 -1</clus>
<clus scale="  149.537">  1  5  2 -1</clus>
</clustering>
</event>
<event>
 9    2  0.5615294E-005  0.2456160E+03  0.7546771E-02  0.1152436E+00
         21   -1    0    0  501  502  0.00000000000E+00  0.00000000000E+00  0.57012480341E+02  0.57012480341E+02  0.00000000000E+00 0. -1.
          2   -1    0    0  502    0 -0.00000000000E+00 -0.00000000000E+00 -0.18390818002E+04  0.18390818002E+04  0.00000000000E+00 0. -1.
         23    2    1    2    0    0 -0.34449101154E+02 -0.24187587721E+02 -0.10879635062E+03  0.14866231699E+03  0.92152366294E+02 0.  0.
         24    2    1    2    0    0  0.66578264369E+02 -0.21202697462E+03 -0.11259028455E+04  0.11504029400E+04  0.79884939908E+02 0.  0.
        -13    1    4    4    0    0  0.24449022722E+02 -0.31957021225E+02 -0.97029594605E+02  0.10504164958E+03  0.00000000000E+00 0.  1.
         14    1    4    4    0    0  0.42129241647E+02 -0.18006995340E+03 -0.10288732509E+04  0.10453612904E+04  0.00000000000E+00 0. -1.
        -13    1    3    3    0    0  0.29412661638E+02 -0.15050611746E+02 -0.57193052428E+02  0.66050517217E+02  0.00000000000E+00 0.  1.
         13    1    3    3    0    0 -0.63861762792E+02 -0.91369759748E+01 -0.51603298191E+02  0.82611799769E+02  0.00000000000E+00 0. -1.
          1    1    1    2  501    0 -0.32129163215E+02  0.23621456234E+03 -0.54737012372E+03  0.59702902353E+03  0.00000000000E+00 0. -1.
<scales pt_clust_5="13000.00000" pt_clust_6="13000.00000" pt_clust_7="13000.00000" pt_clust_8="13000.00000" pt_clust_9="232.26192"></scales>
<clustering>
<clus scale="   79.885">  5  6 -1 -1</clus>
<clus scale="   92.152">  7  8 -1 -1</clus>
<clus scale="  101.311">  2  7  1 -1</clus>
<clus scale="  232.262">  1  9  2 -1</clus>
<clus scale="  232.262">  1  5  2 -1</clus>
</clustering>
</event>
<event>
 9    2  0.7990390E-005  0.1037663E+03  0.7546771E-02  0.1277191E+00
         21   -1    0    0  501  502  0.00000000000E+00  0.00000000000E+00  0.16720370506E+03  0.16720370506E+03  0.00000000000E+00 0. -1.
          4   -1    0    0  502    0 -0.00000000000E+00 -0.00000000000E+00 -0.24937326485E+03  0.24937326485E+03  0.00000000000E+00 0. -1.
         23    2    1    2    0    0 -0.48760676178E+02  0.49835691864E+02 -0.17881550280E+03  0.21219513660E+03  0.90501890756E+02 0.  0.
         24    2    1    2    0    0  0.17456556628E+02  0.99063593516E+01 -0.44582177747E+01  0.82845369996E+02  0.80253425467E+02 0.  0.
        -11    1    4    4    0    0  0.38248549962E+02 -0.90028474242E+01 -0.26272906989E+02  0.47268049226E+02  0.00000000000E+00 0.  1.
         12    1    4    4    0    0 -0.20791993334E+02  0.18909206776E+02  0.21814689214E+02  0.35577320771E+02  0.00000000000E+00 0. -1.
        -13    1    3    3    0    0 -0.30402555032E+02 -0.18786606969E+02 -0.27701104476E+02  0.45217288100E+02  0.00000000000E+00 0.  1.
         13    1    3    3    0    0 -0.18358121146E+02  0.68622298833E+02 -0.15111439833E+03  0.16697784850E+03  0.00000000000E+00 0. -1.
          3    1    1    2  501    0  0.31304119550E+02 -0.59742051216E+02  0.10110416080E+03  0.12153646331E+03  0.00000000000E+00 0. -1.
<scales pt_clust_5="13000.00000" pt_clust_6="13000.00000" pt_clust_7="13000.00000" pt_clust_8="13000.00000" pt_clust_9="67.44672"></scales>
<clustering>
<clus scale="   67.447">  1  9  2 -1</clus>
<clus scale="   80.253">  5  6 -1 -1</clus>
<clus scale="   90.502">  7  8 -1 -1</clus>
<clus scale="   94.960">  1  5  2 -1</clus>
<clus scale="   67.447">  1  5  2 -1</clus>
</clustering>
</event>
<event>
 9    2  0.5615294E-005  0.1348988E+03  0.7546771E-02  0.1221539E+00
          2   -1    0    0  502    0 -0.00000000000E+00  0.00000000000E+00  0.77849334668E+03  0.77849334668E+03  0.00000000000E+00 0. -1.
         21   -1    0    0  501  502  0.00000000000E+00 -0.00000000000E+00 -0.29158844055E+02  0.29158844055E+02  0.00000000000E+00 0. -1.
         23    2    1    2    0    0 -0.98783582365E+02  0.20602022050E+02  0.33984248088E+03  0.36248337512E+03  0.75621729530E+02 0.  0.
         24    2    1    2    0    0  0.11698577146E+03  0.98560819428E+00  0.37127797767E+03  0.39765399022E+03  0.81207863434E+02 0.  0.
        -11    1    4    4    0    0  0.31010018266E+02  0.22982343705E+02  0.21050150974E+03  0.21401096925E+03  0.00000000000E+00 0.  1.
         12    1    4    4    0    0  0.85975753193E+02 -0.21996735510E+02  0.16077646793E+03  0.18364302097E+03  0.00000000000E+00 0. -1.
        -13    1    3    3    0    0 -0.40258636171E+02  0.45267983629E+02  0.19825582483E+03  0.20730489672E+03  0.00000000000E+00 0. -1.
         13    1    3    3    0    0 -0.58524946194E+02 -0.24665961579E+02  0.14158665605E+03  0.15517847840E+03  0.00000000000E+00 0.  1.
          1    1    1    2  501    0 -0.18202189094E+02 -0.21587630244E+02  0.38214044078E+02  0.47514825394E+02  0.00000000000E+00 0. -1.
<scales pt_clust_5="13000.00000" pt_clust_6="13000.00000" pt_clust_7="13000.00000" pt_clust_8="13000.00000" pt_clust_9="28.23731"></scales>
<clustering>
<clus scale="   28.237">  2  9  1 -1</clus>
<clus scale="   75.622">  7  8 -1 -1</clus>
<clus scale="   81.208">  5  6 -1 -1</clus>
<clus scale="  131.612">  1  7  2 -1</clus>
<clus scale="   28.237">  2  5  1 -1</clus>
</clustering>
</event>
<event>
 9    2  0.5615294E-005  0.1183067E+03  0.7546771E-02  0.1249542E+00
         -1   -1    0    0    0  501 -0.00000000000E+00  0.00000000000E+00  0.42656341147E+03  0.42656341147E+03  0.00000000000E+00 0.  1.
         21   -1    0    0  501  502  0.00000000000E+00 -0.00000000000E+00 -0.10233930948E+03  0.10233930948E+03  0.00000000000E+00 0. -1.
         23    2    1    2    0    0 -0.43287186135E+02  0.70568699769E+02  0.34474172094E+03  0.36620853786E+03  0.91695786015E+02 0.  0.
         24    2    1    2    0    0 -0.26859020311E+01 -0.53310773795E+02  0.20262327774E+02  0.98863431103E+02  0.80710367428E+02 0.  0.
        -13    1    4    4    0    0  0.30833405968E+02 -0.55086552204E+02  0.11436916624E+02  0.64156295242E+02  0.00000000000E+00 0.  1.
         14    1    4    4    0    0 -0.33519308000E+02  0.17757784086E+01  0.88254111498E+01  0.34707135861E+02  0.00000000000E+00 0. -1.
        -13    1    3    3    0    0  0.28828617602E+02  0.16997352614E+02  0.10393620708E+03  0.10919127406E+03  0.00000000000E+00 0.  1.
         13    1    3    3    0    0 -0.72115803738E+02  0.53571347155E+02  0.24080551387E+03  0.25701726380E+03  0.00000000000E+00 0. -1.
         -2    1    1    2    0  502  0.45973088166E+02 -0.17257925974E+02 -0.40779946721E+02  0.63830751986E+02  0.00000000000E+00 0.  1.
<scales pt_clust_5="13000.00000" pt_clust_6="13000.00000" pt_clust_7="13000.00000" pt_clust_8="13000.00000" pt_clust_9="49.10561"></scales>
<clustering>
<clus scale="   49.106">  2  9  1 -1</clus>
<clus scale="   80.710">  5  6 -1 -1</clus>
<clus scale="   91.696">  7  8 -1 -1</clus>
<clus scale="  110.011">  2  5  1 -1</clus>
<clus scale="   49.106">  2  5  1 -1</clus>
</clustering>
</event>
<event>
 9    2  0.7623236E-005  0.9430927E+02  0.7546771E-02  0.1298905E+00
         21   -1    0    0  501  502  0.00000000000E+00  0.00000000000E+00  0.57217168185E+02  0.57217168185E+02  0.00000000000E+00 0. -1.
          2   -1    0    0  502    0 -0.00000000000E+00 -0.00000000000E+00 -0.51209888759E+03  0.51209888759E+03  0.00000000000E+00 0. -1.
         23    2    1    2    0    0  0.49974201625E+01  0.19433099713E+02 -0.44111839624E+03  0.45124740145E+03  0.92930932630E+02 0.  0.
         24    2    1    2    0    0  0.48959723308E+01  0.12663554822E+02 -0.94088250953E+01  0.84200732918E+02  0.82564527907E+02 0.  0.
        -13    1    4    4    0    0 -0.14518167573E+02 -0.31893994032E+02 -0.28835211157E+01  0.35161324478E+02  0.00000000000E+00 0.  1.
         14    1    4    4    0    0  0.19414139904E+02  0.44557548855E+02 -0.65253039796E+01  0.49039408440E+02  0.00000000000E+00 0. -1.
        -13    1    3    3    0    0  0.25781449538E+02 -0.31095021503E+02 -0.19430728917E+03  0.19846134668E+03  0.00000000000E+00 0. -1.
         13    1    3    3    0    0 -0.20784029375E+02  0.50528121216E+02 -0.24681110707E+03  0.25278605476E+03  0.00000000000E+00 0.  1.
          1    1    1    2  501    0 -0.98933924933E+01 -0.32096654536E+02 -0.43544980742E+01  0.33867921414E+02  0.00000000000E+00 0. -1.
<scales pt_clust_5="13000.00000" pt_clust_6="13000.00000" pt_clust_7="13000.00000" pt_clust_8="13000.00000" pt_clust_9="33.58682"></scales>
<clustering>
<clus scale="   33.587">  1  9  2 -1</clus>
<clus scale="   82.565">  5  6 -1 -1</clus>
<clus scale="   84.113">  1  5  2 -1</clus>
<clus scale="   92.931">  7  8 -1 -1</clus>
<clus scale="   33.587">  1  5  2 -1</clus>
</clustering>
</event>
<event>
 9    2  0.5615294E-005  0.1600653E+03  0.7546771E-02  0.1197146E+00
         21   -1    0    0  501  502  0.00000000000E+00  0.00000000000E+00  0.59300392251E+02  0.59300392251E+02  0.00000000000E+00 0. -1.
          2   -1    0    0  502    0 -0.00000000000E+00 -0.00000000000E+00 -0.91500192944E+03  0.91500192944E+03  0.00000000000E+00 0. -1.
         23    2    1    2    0    0 -0.50638252917E+02  0.81834128661E+02 -0.20785810774E+03  0.24661295116E+03  0.91388716243E+02 0.  0.
         24    2    1    2    0    0 -0.99578179539E+02 -0.88876263561E+02 -0.46837476988E+03  0.49354503894E+03  0.79981099909E+02 0.  0.
        -13    1    4    4    0    0 -0.29624135888E+02 -0.44377624387E+01 -0.32970880281E+02  0.44546179511E+02  0.00000000000E+00 0.  1.
         14    1    4    4    0    0 -0.69954043651E+02 -0.84438501123E+02 -0.43540388960E+03  0.44899885943E+03  0.00000000000E+00 0. -1.
        -11    1    3    3    0    0  0.18578203737E+02  0.54167062340E+02 -0.10477027372E+03  0.11939862039E+03  0.00000000000E+00 0.  1.
         11    1    3    3    0    0 -0.69216456653E+02  0.27667066321E+02 -0.10308783402E+03  0.12721433077E+03  0.00000000000E+00 0. -1.
          1    1    1    2  501    0  0.15021643246E+03  0.70421349008E+01 -0.17946865957E+03  0.23414433158E+03  0.00000000000E+00 0. -1.
<scales pt_clust_5="13000.00000" pt_clust_6="13000.00000" pt_clust_7="13000.00000" pt_clust_8="13000.00000" pt_clust_9="138.65038"></scales>
<clustering>
<clus scale="   79.981">  5  6 -1 -1</clus>
<clus scale="   91.389">  7  8 -1 -1</clus>
<clus scale="  132.714">  2  7  1 -1</clus>
<clus scale="  138.650">  1  9  2 -1</clus>
<clus scale="  138.650">  1  5  2 -1</clus>
</clustering>
</event>
<event>
 9    2  0.5615294E-005  0.1127875E+03  0.7546771E-02  0.1259235E+00
         21   -1    0    0  501  502  0.00000000000E+00  0.00000000000E+00  0.44042939846E+02  0.44042939846E+02  0.00000000000E+00 0.  1.
         -1   -1    0    0    0  501 -0.00000000000E+00 -0.00000000000E+00 -0.39516749132E+03  0.39516749132E+03  0.00000000000E+00 0.  1.
         24    2    1    2    0    0  0.80057863042E+00 -0.54964166837E+02 -0.18829056085E+03  0.21286885705E+03  0.82692892289E+02 0.  0.
         23    2    1    2    0    0  0.12866079362E+02  0.83566628641E+02 -0.12710955394E+03  0.17858056765E+03  0.92656694412E+02 0.  0.
        -11    1    3    3    0    0  0.41099663817E+02 -0.34624207283E+02 -0.92578851363E+02  0.10704607333E+03  0.00000000000E+00 0.  1.
         12    1    3    3    0    0 -0.40299085187E+02 -0.20339959554E+02 -0.95711709490E+02  0.10582278372E+03  0.00000000000E+00 0. -1.
        -11    1    4    4    0    0  0.50276991338E+02  0.57599281809E+02 -0.98917842450E+02  0.12502076899E+03  0.00000000000E+00 0. -1.
         11    1    4    4    0    0 -0.37410911976E+02  0.25967346832E+02 -0.28191711492E+02  0.53559798667E+02  0.00000000000E+00 0.  1.
         -2    1    1    2    0  502 -0.13666657992E+02 -0.28602461804E+02 -0.35724436678E+02  0.47761006458E+02  0.00000000000E+00 0.  1.
<scales pt_clust_5="13000.00000" pt_clust_6="13000.00000" pt_clust_7="13000.00000" pt_clust_8="13000.00000" pt_clust_9="31.69982"></scales>
<clustering>
<clus scale="   31.700">  1  9  2 -1</clus>
<clus scale="   82.693">  5  6 -1 -1</clus>
<clus scale="   92.657">  7  8 -1 -1</clus>
<clus scale="  104.756">  2  5  1 -1</clus>
<clus scale="   31.700">  1  5  2 -1</clus>
</clustering>
</event>
<event>
 9    2  0.5615294E-005  0.1194215E+03  0.7546771E-02  0.1259855E+00
          2   -1    0    0  502    0 -0.00000000000E+00  0.00000000000E+00  0.11938469644E+04  0.11938469644E+04  0.00000000000E+00 0. -1.
         21   -1    0    0  501  502  0.00000000000E+00 -0.00000000000E+00 -0.22159465603E+02  0.22159465603E+02  0.00000000000E+00 0.  1.
         24    2    1    2    0    0  0.77838582137E+01 -0.31857442162E+02  0.49914642155E+03  0.50670279955E+03  0.80778040730E+02 0.  0.
         23    2    1    2    0    0 -0.99321413907E+01 -0.67602570608E+02  0.23387217975E+03  0.25949554815E+03  0.89291590123E+02 0.  0.
        -13    1    3    3    0    0 -0.19946576549E+02 -0.90822979197E+01  0.35850043281E+02  0.42018801206E+02  0.00000000000E+00 0.  1.
         14    1    3    3    0    0  0.27730434763E+02 -0.22775144242E+02  0.46329637827E+03  0.46468399835E+03  0.00000000000E+00 0. -1.
        -11    1    4    4    0    0  0.16181859288E+02 -0.62167466676E+02  0.76570725230E+02  0.99948599016E+02  0.00000000000E+00 0.  1.
         11    1    4    4    0    0 -0.26114000679E+02 -0.54351039321E+01  0.15730145452E+03  0.15954694914E+03  0.00000000000E+00 0. -1.
          1    1    1    2  501    0  0.21482831769E+01  0.99460012770E+02  0.43866889749E+03  0.44980808229E+03  0.00000000000E+00 0. -1.
<scales pt_clust_5="13000.00000" pt_clust_6="13000.00000" pt_clust_7="13000.00000" pt_clust_8="13000.00000" pt_clust_9="79.30012"></scales>
<clustering>
<clus scale="   80.778">  5  6 -1 -1</clus>
<clus scale="   87.181">  1  5  2 -1</clus>
<clus scale="   79.300">  2  9  1 -1</clus>
<clus scale="   89.292">  7  8 -1 -1</clus>
<clus scale="   79.300">  2  5  1 -1</clus>
</clustering>
</event>
<event>
 9    2  0.5615294E-005  0.1828738E+03  0.7546771E-02  0.1180032E+00
         21   -1    0    0  501  502  0.00000000000E+00  0.00000000000E+00  0.56394818042E+02  0.56394818042E+02  0.00000000000E+00 0. -1.
          2   -1    0    0  502    0 -0.00000000000E+00 -0.00000000000E+00 -0.11166920701E+04  0.11166920701E+04  0.00000000000E+00 0. -1.
         23    2    1    2    0    0  0.80143461655E+02 -0.44389904469E+02 -0.30561204973E+03  0.33211670828E+03  0.92246110571E+02 0.  0.
         24    2    1    2    0    0 -0.78132434223E+02 -0.13308560435E+03 -0.50855749349E+03  0.53752257397E+03  0.80519177710E+02 0.  0.
        -13    1    4    4    0    0 -0.40866302240E+02 -0.76538173139E+02 -0.15586832654E+03  0.17839025148E+03  0.00000000000E+00 0.  1.
         14    1    4    4    0    0 -0.37266131984E+02 -0.56547431208E+02 -0.35268916695E+03  0.35913232248E+03  0.00000000000E+00 0. -1.
        -11    1    3    3    0    0  0.84596264570E+02 -0.64492275759E+02 -0.22442256861E+03  0.24835714387E+03  0.00000000000E+00 0. -1.
         11    1    3    3    0    0 -0.44528029155E+01  0.20102371290E+02 -0.81189481121E+02  0.83759564409E+02  0.00000000000E+00 0.  1.
          1    1    1    2  501    0 -0.20110274314E+01  0.17747550882E+03 -0.24612770881E+03  0.30344760587E+03  0.00000000000E+00 0. -1.
<scales pt_clust_5="13000.00000" pt_clust_6="13000.00000" pt_clust_7="13000.00000" pt_clust_8="13000.00000" pt_clust_9="164.19345"></scales>
<clustering>
<clus scale="   80.519">  5  6 -1 -1</clus>
<clus scale="   92.246">  7  8 -1 -1</clus>
<clus scale="  130.011">  2  7  1 -1</clus>
<clus scale="  164.193">  1  9  2 -1</clus>
<clus scale="  164.193">  1  5  2 -1</clus>
</clustering>
</event>
<event>
 9    2  0.5615294E-005  0.1008230E+03  0.7546771E-02  0.1283866E+00
         21   -1    0    0  501  502  0.00000000000E+00  0.00000000000E+00  0.31590035061E+03  0.31590035061E+03  0.00000000000E+00 0.  1.
         -1   -1    0    0    0  501 -0.00000000000E+00 -0.00000000000E+00 -0.10475108037E+03  0.10475108037E+03  0.00000000000E+00 0.  1.
         23    2    1    2    0    0  0.11155267939E+02  0.33041561468E+02 -0.38751227298E+02  0.10530669003E+03  0.91496757104E+02 0.  0.
         24    2    1    2    0    0 -0.59154543914E+02 -0.43050746618E+02  0.71499969091E+02  0.13032889614E+03  0.80751153169E+02 0.  0.
        -11    1    4    4    0    0 -0.37184842898E+02  0.13032449765E+02  0.36050928869E+01  0.39567082063E+02  0.00000000000E+00 0.  1.
         12    1    4    4    0    0 -0.21969701017E+02 -0.56083196383E+02  0.67894876204E+02  0.90761814074E+02  0.00000000000E+00 0. -1.
        -11    1    3    3    0    0 -0.32455508141E+02  0.31775516371E+02 -0.41589733838E+02  0.61585301899E+02  0.00000000000E+00 0.  1.
         11    1    3    3    0    0  0.43610776080E+02  0.12660450977E+01  0.28385065399E+01  0.43721388129E+02  0.00000000000E+00 0. -1.
         -2    1    1    2    0  502  0.47999275975E+02  0.10009185149E+02  0.17840052845E+03  0.18501584482E+03  0.00000000000E+00 0.  1.
<scales pt_clust_5="13000.00000" pt_clust_6="13000.00000" pt_clust_7="13000.00000" pt_clust_8="13000.00000" pt_clust_9="49.03177"></scales>
<clustering>
<clus scale="   49.032">  1  9  2 -1</clus>
<clus scale="   80.751">  5  6 -1 -1</clus>
<clus scale="   91.183">  1  5  2 -1</clus>
<clus scale="   91.497">  7  8 -1 -1</clus>
<clus scale="   49.032">  1  5  2 -1</clus>
</clustering>
</event>
<event>
 9    2  0.5615294E-005  0.9803514E+02  0.7546771E-02  0.1297454E+00
         21   -1    0    0  501  502  0.00000000000E+00  0.00000000000E+00  0.47388057685E+02  0.47388057685E+02  0.00000000000E+00 0. -1.
          2   -1    0    0  502    0 -0.00000000000E+00 -0.00000000000E+00 -0.24975939952E+03  0.24975939952E+03  0.00000000000E+00 0. -1.
         23    2    1    2    0    0  0.16729564029E+02 -0.89403317587E+01 -0.11577354424E+03  0.14994338275E+03  0.93379315924E+02 0.  0.
         24    2    1    2    0    0 -0.39161853887E+02  0.83755810166E+01 -0.93256054864E+02  0.12379768726E+03  0.70889875470E+02 0.  0.
        -11    1    4    4    0    0 -0.50479551784E+02  0.11132364273E+02 -0.98331835637E+02  0.11109124440E+03  0.00000000000E+00 0.  1.
         12    1    4    4    0    0  0.11317697897E+02 -0.27567832559E+01  0.50757807735E+01  0.12706442856E+02  0.00000000000E+00 0. -1.
        -11    1    3    3    0    0  0.30893807823E+02 -0.33075814246E+02 -0.18793608330E+02  0.49006495119E+02  0.00000000000E+00 0.  1.
         11    1    3    3    0    0 -0.14164243794E+02  0.24135482487E+02 -0.96979935906E+02  0.10093688764E+03  0.00000000000E+00 0. -1.
          1    1    1    2  501    0  0.22432289858E+02  0.56475074205E+00  0.66582572641E+01  0.23406387194E+02  0.00000000000E+00 0. -1.
<scales pt_clust_5="13000.00000" pt_clust_6="13000.00000" pt_clust_7="13000.00000" pt_clust_8="13000.00000" pt_clust_9="22.43940"></scales>
<clustering>
<clus scale="   22.439">  1  9  2 -1</clus>
<clus scale="   70.890">  5  6 -1 -1</clus>
<clus scale="   76.919">  1  5  2 -1</clus>
<clus scale="   93.379">  7  8 -1 -1</clus>
<clus scale="   22.439">  1  5  2 -1</clus>
</clustering>
</event>
<event>
 9    2  0.5615294E-005  0.9362711E+02  0.7546771E-02  0.1301670E+00
         21   -1    0    0  501  502  0.00000000000E+00  0.00000000000E+00  0.22830855641E+03  0.22830855641E+03  0.00000000000E+00 0. -1.
          2   -1    0    0  502    0 -0.00000000000E+00 -0.00000000000E+00 -0.42254624993E+03  0.42254624993E+03  0.00000000000E+00 0. -1.
         24    2    1    2    0    0 -0.18996139255E+01 -0.16596363643E+02 -0.37889981116E+03  0.38770950374E+03  0.80464554748E+02 0.  0.
         23    2    1    2    0    0 -0.11627714768E+02 -0.59037865632E+02  0.10228186076E+03  0.15049526051E+03  0.92555772730E+02 0.  0.
        -11    1    3    3    0    0  0.16221461620E+02  0.16895233406E+02 -0.37644292461E+02  0.44335961519E+02  0.00000000000E+00 0.  1.
         12    1    3    3    0    0 -0.18121075546E+02 -0.33491597050E+02 -0.34125551870E+03  0.34337354222E+03  0.00000000000E+00 0. -1.
        -13    1    4    4    0    0 -0.52033363011E+02 -0.28792505570E+02  0.62099372094E+02  0.85981458802E+02  0.00000000000E+00 0.  1.
         13    1    4    4    0    0  0.40405648243E+02 -0.30245360062E+02  0.40182488669E+02  0.64513801708E+02  0.00000000000E+00 0. -1.
          1    1    1    2  501    0  0.13527328693E+02  0.75634229275E+02  0.82380256885E+02  0.11265004210E+03  0.00000000000E+00 0. -1.
<scales pt_clust_5="13000.00000" pt_clust_6="13000.00000" pt_clust_7="13000.00000" pt_clust_8="13000.00000" pt_clust_9="76.83440"></scales>
<clustering>
<clus scale="   76.834">  1  9  2 -1</clus>
<clus scale="   80.465">  5  6 -1 -1</clus>
<clus scale="   81.695">  2  5  1 -1</clus>
<clus scale="   92.556">  7  8 -1 -1</clus>
<clus scale="   76.834">  1  5  2 -1</clus>
</clustering>
</event>
<event>
 9    2  0.5615294E-005  0.1268180E+03  0.7546771E-02  0.1248830E+00
         21   -1    0    0  501  502  0.00000000000E+00  0.00000000000E+00  0.21489380087E+02  0.21489380087E+02  0.00000000000E+00 0.  1.
          2   -1    0    0  502    0 -0.00000000000E+00 -0.00000000000E+00 -0.16160255709E+04  0.16160255709E+04  0.00000000000E+00 0. -1.
         24    2    1    2    0    0 -0.11741934596E+02 -0.48068723537E+02 -0.11826322563E+04  0.11862702670E+04  0.78546913114E+02 0.  0.
         23    2    1    2    0    0 -0.24797902118E+02  0.26439283284E+02 -0.37513494730E+03  0.39507573550E+03  0.11851006895E+03 0.  0.
        -11    1    3    3    0    0  0.19818423833E+02  0.49412151743E+01 -0.11099580855E+03  0.11285944819E+03  0.00000000000E+00 0.  1.
         12    1    3    3    0    0 -0.31560358429E+02 -0.53009938711E+02 -0.10716364477E+04  0.10734108188E+04  0.00000000000E+00 0. -1.
        -11    1    4    4    0    0 -0.63844736483E+02 -0.37862664995E+01 -0.12838513172E+03  0.14343370677E+03  0.00000000000E+00 0.  1.
         11    1    4    4    0    0  0.39046834365E+02  0.30225549783E+02 -0.24674981558E+03  0.25164202873E+03  0.00000000000E+00 0. -1.
          1    1    1    2  501    0  0.36539836715E+02  0.21629440253E+02 -0.36768987236E+02  0.56168948496E+02  0.00000000000E+00 0. -1.
<scales pt_clust_5="13000.00000" pt_clust_6="13000.00000" pt_clust_7="13000.00000" pt_clust_8="13000.00000" pt_clust_9="42.46166"></scales>
<clustering>
<clus scale="   42.462">  1  9  2 -1</clus>
<clus scale="   78.547">  5  6 -1 -1</clus>
<clus scale="   90.597">  2  5  1 -1</clus>
<clus scale="  118.510">  7  8 -1 -1</clus>
<clus scale="   42.462">  1  5  2 -1</clus>
</clustering>
</event>
<event>
 9    2  0.5615294E-005  0.4329233E+03  0.7546771E-02  0.1032947E+00
         21   -1    0    0  501  502  0.00000000000E+00  0.00000000000E+00  0.14615585897E+03  0.14615585897E+03  0.00000000000E+00 0.  1.
          2   -1    0    0  502    0 -0.00000000000E+00 -0.00000000000E+00 -0.22505834333E+04  0.22505834333E+04  0.00000000000E+00 0. -1.
         24    2    1    2    0    0 -0.25196663008E+03  0.34664843578E+03 -0.18011578114E+04  0.18534293643E+04  0.85898930381E+02 0.  0.
         23    2    1    2    0    0  0.24727801085E+03 -0.32079636293E+03 -0.24955712326E+03  0.48351560981E+03  0.86324191516E+02 0.  0.
        -11    1    3    3    0    0 -0.25185049526E+02  0.16359717648E+02 -0.64407145301E+02  0.71064811594E+02  0.00000000000E+00 0.  1.
         12    1    3    3    0    0 -0.22678158056E+03  0.33028871813E+03 -0.17367506661E+04  0.17823645527E+04  0.00000000000E+00 0. -1.
        -11    1    4    4    0    0  0.24496660088E+03 -0.28317045635E+03 -0.23960393463E+03  0.44452692650E+03  0.00000000000E+00 0.  1.
         11    1    4    4    0    0  0.23114099693E+01 -0.37625906582E+02 -0.99531886298E+01  0.38988683307E+02  0.00000000000E+00 0. -1.
          1    1    1    2  501    0  0.46886192346E+01 -0.25852072851E+02 -0.53712639707E+02  0.59794318169E+02  0.00000000000E+00 0. -1.
<scales pt_clust_5="13000.00000" pt_clust_6="13000.00000" pt_clust_7="13000.00000" pt_clust_8="13000.00000" pt_clust_9="26.27382"></scales>
<clustering>
<clus scale="   26.274">  1  9  2 -1</clus>
<clus scale="   85.899">  5  6 -1 -1</clus>
<clus scale="   86.324">  7  8 -1 -1</clus>
<clus scale="  432.839">  2  5  1 -1</clus>
<clus scale="   26.274">  1  5  2 -1</clus>
</clustering>
</event>
<event>
 9    2  0.5615294E-005  0.1003701E+03  0.7546771E-02  0.1284001E+00
          2   -1    0    0  502    0 -0.00000000000E+00  0.00000000000E+00  0.75056728723E+03  0.75056728723E+03  0.00000000000E+00 0. -1.
         21   -1    0    0  501  502  0.00000000000E+00 -0.00000000000E+00 -0.33512634263E+02  0.33512634263E+02  0.00000000000E+00 0. -1.
         24    2    1    2    0    0 -0.30777236228E+02  0.23309706456E+02  0.46792388245E+03  0.47641011303E+03  0.80766672281E+02 0.  0.
         23    2    1    2    0    0  0.81525834818E+02 -0.16644778903E+02  0.13358073430E+03  0.18129080550E+03  0.89994628593E+02 0.  0.
        -11    1    3    3    0    0  0.23498699309E+02 -0.75460999805E-01  0.63843961583E+02  0.68031213382E+02  0.00000000000E+00 0.  1.
         12    1    3    3    0    0 -0.54275935537E+02  0.23385167456E+02  0.40407992086E+03  0.40837889965E+03  0.00000000000E+00 0. -1.
        -11    1    4    4    0    0  0.26116398031E+02 -0.48338085988E+01  0.12017106688E+03  0.12307118781E+03  0.00000000000E+00 0.  1.
         11    1    4    4    0    0  0.55409436787E+02 -0.11810970305E+02  0.13409667419E+02  0.58219617698E+02  0.00000000000E+00 0. -1.
          1    1    1    2  501    0 -0.50748598591E+02 -0.66649275529E+01  0.11555003621E+03  0.12637900295E+03  0.00000000000E+00 0. -1.
<scales pt_clust_5="13000.00000" pt_clust_6="13000.00000" pt_clust_7="13000.00000" pt_clust_8="13000.00000" pt_clust_9="51.18439"></scales>
<clustering>
<clus scale="   51.184">  2  9  1 -1</clus>
<clus scale="   80.767">  5  6 -1 -1</clus>
<clus scale="   89.995">  7  8 -1 -1</clus>
<clus scale="   92.187">  1  5  2 -1</clus>
<clus scale="   51.184">  2  5  1 -1</clus>
</clustering>
</event>
<event>
 9    2  0.5615294E-005  0.2229720E+03  0.7546771E-02  0.1145437E+00
          2   -1    0    0  502    0 -0.00000000000E+00  0.00000000000E+00  0.72724710305E+03  0.72724710305E+03  0.00000000000E+00 0. -1.
         21   -1    0    0  501  502  0.00000000000E+00 -0.00000000000E+00 -0.13173940035E+03  0.13173940035E+03  0.00000000000E+00 0.  1.
         24    2    1    2    0    0 -0.44950478351E+01 -0.13924045412E+03  0.24851921277E+03  0.29551161667E+03  0.78467872105E+02 0.  0.
         23    2    1    2    0    0 -0.14792402613E+03  0.20603675541E+03  0.17838672817E+03  0.32657855065E+03  0.10246493483E+03 0.  0.
        -13    1    3    3    0    0  0.20234879187E+02 -0.30572068615E+02  0.21218512295E+02  0.42359496917E+02  0.00000000000E+00 0.  1.
         14    1    3    3    0    0 -0.24729927022E+02 -0.10866838550E+03  0.22730070048E+03  0.25315211975E+03  0.00000000000E+00 0. -1.
        -11    1    4    4    0    0 -0.11292394978E+03  0.15765968289E+03  0.18306431789E+03  0.26668509243E+03  0.00000000000E+00 0.  1.
         11    1    4    4    0    0 -0.35000076358E+02  0.48377072528E+02 -0.46775897277E+01  0.59893458216E+02  0.00000000000E+00 0. -1.
          1    1    1    2  501    0  0.15241907397E+03 -0.66796301298E+02  0.16860176177E+03  0.23689633608E+03  0.00000000000E+00 0. -1.
<scales pt_clust_5="13000.00000" pt_clust_6="13000.00000" pt_clust_7="13000.00000" pt_clust_8="13000.00000" pt_clust_9="198.03401"></scales>
<clustering>
<clus scale="   78.468">  5  6 -1 -1</clus>
<clus scale="  102.465">  7  8 -1 -1</clus>
<clus scale="  159.892">  1  5  2 -1</clus>
<clus scale="  198.034">  2  9  1 -1</clus>
<clus scale="  198.034">  2  5  1 -1</clus>
</clustering>
</event>
<event>
 9    2  0.5615294E-005  0.9201464E+02  0.7546771E-02  0.1304483E+00
          2   -1    0    0  502    0 -0.00000000000E+00  0.00000000000E+00  0.73439584247E+03  0.73439584247E+03  0.00000000000E+00 0. -1.
         21   -1    0    0  501  502  0.00000000000E+00 -0.00000000000E+00 -0.16926669336E+03  0.16926669336E+03  0.00000000000E+00 0. -1.
         24    2    1    2    0    0 -0.10760345706E+02  0.42175559283E+00  0.69995809019E+03  0.70472603542E+03  0.81126407952E+02 0.  0.
         23    2    1    2    0    0 -0.13634856475E+02  0.35577456283E+01 -0.39803029558E+02  0.10074848598E+03  0.91473544810E+02 0.  0.
        -11    1    3    3    0    0  0.12988977753E+02 -0.23424103921E+02  0.91545706799E+02  0.95383534328E+02  0.00000000000E+00 0.  1.
         12    1    3    3    0    0 -0.23749323459E+02  0.23845859514E+02  0.60841238339E+03  0.60934250109E+03  0.00000000000E+00 0. -1.
        -13    1    4    4    0    0 -0.34832701986E+02 -0.24827422632E+02 -0.48094130842E+02  0.64364302712E+02  0.00000000000E+00 0. -1.
         13    1    4    4    0    0  0.21197845511E+02  0.28385168261E+02  0.82911012841E+01  0.36384183267E+02  0.00000000000E+00 0.  1.
          1    1    1    2  501    0  0.24395202182E+02 -0.39795012211E+01 -0.95025911517E+02  0.98188014437E+02  0.00000000000E+00 0. -1.
<scales pt_clust_5="13000.00000" pt_clust_6="13000.00000" pt_clust_7="13000.00000" pt_clust_8="13000.00000" pt_clust_9="24.71765"></scales>
<clustering>
<clus scale="   24.718">  2  9  1 -1</clus>
<clus scale="   81.126">  5  6 -1 -1</clus>
<clus scale="   81.736">  1  5  2 -1</clus>
<clus scale="   91.474">  7  8 -1 -1</clus>
<clus scale="   24.718">  2  5  1 -1</clus>
</clustering>
</event>
<event>
 9    2  0.5615294E-005  0.1088991E+03  0.7546771E-02  0.1265488E+00
         21   -1    0    0  501  502  0.00000000000E+00  0.00000000000E+00  0.37154976737E+02  0.37154976737E+02  0.00000000000E+00 0.  1.
         -1   -1    0    0    0  501 -0.00000000000E+00 -0.00000000000E+00 -0.74774713555E+03  0.74774713555E+03  0.00000000000E+00 0.  1.
         24    2    1    2    0    0 -0.40499712179E+01  0.51309787058E+02 -0.46923706968E+03  0.47939951426E+03  0.83614413857E+02 0.  0.
         23    2    1    2    0    0 -0.21651496162E+02 -0.94209860900E+02 -0.20295959498E+03  0.24245344472E+03  0.90811841097E+02 0.  0.
        -11    1    3    3    0    0 -0.43114984557E+02  0.22802243411E+02 -0.20060326853E+03  0.20644736749E+03  0.00000000000E+00 0.  1.
         12    1    3    3    0    0  0.39065013339E+02  0.28507543647E+02 -0.26863380114E+03  0.27295214678E+03  0.00000000000E+00 0. -1.
        -11    1    4    4    0    0  0.31264655589E+02 -0.14149320121E+02 -0.35044291744E+02  0.49048795426E+02  0.00000000000E+00 0. -1.
         11    1    4    4    0    0 -0.52916151750E+02 -0.80060540779E+02 -0.16791530324E+03  0.19340464929E+03  0.00000000000E+00 0.  1.
         -2    1    1    2    0  502  0.25701467380E+02  0.42900073842E+02 -0.38395494160E+02  0.63049153309E+02  0.00000000000E+00 0.  1.
<scales pt_clust_5="13000.00000" pt_clust_6="13000.00000" pt_clust_7="13000.00000" pt_clust_8="13000.00000" pt_clust_9="50.00982"></scales>
<clustering>
<clus scale="   50.010">  1  9  2 -1</clus>
<clus scale="   83.614">  5  6 -1 -1</clus>
<clus scale="   90.812">  7  8 -1 -1</clus>
<clus scale="  102.974">  2  5  1 -1</clus>
<clus scale="   50.010">  1  5  2 -1</clus>
</clustering>
</event>
<event>
 9    2  0.5615294E-005  0.8984732E+02  0.7546771E-02  0.1307240E+00
          4   -1    0    0  502    0 -0.00000000000E+00  0.00000000000E+00  0.73426379236E+02  0.73426379236E+02  0.00000000000E+00 0. -1.
         21   -1    0    0  501  502  0.00000000000E+00 -0.00000000000E+00 -0.31401783134E+03  0.31401783134E+03  0.00000000000E+00 0. -1.
         24    2    1    2    0    0 -0.20620773894E+02 -0.35555720042E+00  0.20004882014E+02  0.85113962501E+02  0.80117716962E+02 0.  0.
         23    2    1    2    0    0  0.46697382708E+02 -0.55109109138E+01 -0.25709439563E+03  0.27537345768E+03  0.86729448514E+02 0.  0.
        -11    1    3    3    0    0  0.13424684181E+02 -0.31394251699E+02 -0.17003940085E+01  0.34186437733E+02  0.00000000000E+00 0.  1.
         12    1    3    3    0    0 -0.34045458075E+02  0.31038694498E+02  0.21705276023E+02  0.50927524767E+02  0.00000000000E+00 0. -1.
        -11    1    4    4    0    0  0.67788140054E+02  0.10928303990E+02 -0.14963453539E+03  0.16463642957E+03  0.00000000000E+00 0. -1.
         11    1    4    4    0    0 -0.21090757345E+02 -0.16439214904E+02 -0.10745986024E+03  0.11073702811E+03  0.00000000000E+00 0.  1.
          3    1    1    2  501    0 -0.26076608815E+02  0.58664681143E+01 -0.35019384936E+01  0.26956790399E+02  0.00000000000E+00 0. -1.
<scales pt_clust_5="13000.00000" pt_clust_6="13000.00000" pt_clust_7="13000.00000" pt_clust_8="13000.00000" pt_clust_9="26.72837"></scales>
<clustering>
<clus scale="   26.728">  2  9  1 -1</clus>
<clus scale="   80.118">  5  6 -1 -1</clus>
<clus scale="   83.483">  1  5  2 -1</clus>
<clus scale="   86.729">  7  8 -1 -1</clus>
<clus scale="   26.728">  2  5  1 -1</clus>
</clustering>
</event>
<event>
 9    2  0.5615294E-005  0.1171467E+03  0.7546771E-02  0.1251130E+00
         21   -1    0    0  501  502  0.00000000000E+00  0.00000000000E+00  0.27256228704E+03  0.27256228704E+03  0.00000000000E+00 0.  1.
         -3   -1    0    0    0  501 -0.00000000000E+00 -0.00000000000E+00 -0.58732607813E+02  0.58732607813E+02  0.00000000000E+00 0.  1.
         23    2    1    2    0    0  0.58541374949E+02 -0.53383224822E+02  0.77210143135E+02  0.14263254770E+03  0.90032084203E+02 0.  0.
         24    2    1    2    0    0 -0.37102881561E+02  0.60927364914E+02  0.11453484760E+03  0.15697234062E+03  0.80207959642E+02 0.  0.
        -11    1    4    4    0    0 -0.35006545927E+01  0.64954777896E+02  0.43402008907E+02  0.78199182421E+02  0.00000000000E+00 0.  1.
         12    1    4    4    0    0 -0.33602226968E+02 -0.40274129818E+01  0.71132838688E+02  0.78773158197E+02  0.00000000000E+00 0. -1.
        -11    1    3    3    0    0 -0.24330187408E+02 -0.95314440260E+01  0.15350705055E+02  0.30305949749E+02  0.00000000000E+00 0. -1.
         11    1    3    3    0    0  0.82871562357E+02 -0.43851780796E+02  0.61859438080E+02  0.11232659795E+03  0.00000000000E+00 0.  1.
         -4    1    1    2    0  502 -0.21438493388E+02 -0.75441400923E+01  0.22084688496E+02  0.31690006539E+02  0.00000000000E+00 0.  1.
<scales pt_clust_5="13000.00000" pt_clust_6="13000.00000" pt_clust_7="13000.00000" pt_clust_8="13000.00000" pt_clust_9="22.72714"></scales>
<clustering>
<clus scale="   22.727">  1  9  2 -1</clus>
<clus scale="   80.208">  5  6 -1 -1</clus>
<clus scale="   90.032">  7  8 -1 -1</clus>
<clus scale="  109.777">  1  5  2 -1</clus>
<clus scale="   22.727">  1  5  2 -1</clus>
</clustering>
</event>
<event>
 9    2  0.5615294E-005  0.1866670E+03  0.7546771E-02  0.1162860E+00
          2   -1    0    0  502    0 -0.00000000000E+00  0.00000000000E+00  0.22223630251E+03  0.22223630251E+03  0.00000000000E+00 0. -1.
         21   -1    0    0  501  502  0.00000000000E+00 -0.00000000000E+00 -0.31760211838E+03  0.31760211838E+03  0.00000000000E+00 0. -1.
         23    2    1    2    0    0  0.14701112060E+03  0.12160824372E+03  0.97415194068E+02  0.23318043750E+03  0.92100824530E+02 0.  0.
         24    2    1    2    0    0 -0.11015414398E+03 -0.32723357400E+02 -0.92527212075E+02  0.16769833554E+03  0.79728873154E+02 0.  0.
        -13    1    4    4    0    0 -0.12393454686E+02 -0.39286291214E+02 -0.35156268312E+02  0.54156934903E+02  0.00000000000E+00 0.  1.
         14    1    4    4    0    0 -0.97760689293E+02  0.65629338137E+01 -0.57370943763E+02  0.11354140064E+03  0.00000000000E+00 0. -1.
        -11    1    3    3    0    0  0.98402452699E+02  0.44323275345E+02  0.91837153571E+02  0.14170976752E+03  0.00000000000E+00 0.  1.
         11    1    3    3    0    0  0.48608667898E+02  0.77284968373E+02  0.55780404967E+01  0.91470669982E+02  0.00000000000E+00 0. -1.
          1    1    1    2  501    0 -0.36856976619E+02 -0.88884886318E+02 -0.10025379787E+03  0.13895964784E+03  0.00000000000E+00 0. -1.
<scales pt_clust_5="13000.00000" pt_clust_6="13000.00000" pt_clust_7="13000.00000" pt_clust_8="13000.00000" pt_clust_9="96.22349"></scales>
<clustering>
<clus scale="   79.729">  5  6 -1 -1</clus>
<clus scale="   92.101">  7  8 -1 -1</clus>
<clus scale="   96.223">  2  9  1 -1</clus>
<clus scale="  180.883">  2  5  1 -1</clus>
<clus scale="   96.223">  2  5  1 -1</clus>
</clustering>
</event>
<event>
 9    2  0.5615294E-005  0.9397831E+02  0.7546771E-02  0.1298096E+00
          2   -1    0    0  502    0 -0.00000000000E+00  0.00000000000E+00  0.20696138904E+03  0.20696138904E+03  0.00000000000E+00 0. -1.
         21   -1    0    0  501  502  0.00000000000E+00 -0.00000000000E+00 -0.10331522698E+03  0.10331522698E+03  0.00000000000E+00 0. -1.
         24    2    1    2    0    0 -0.36537517548E+01 -0.37191765025E+02  0.15728646473E+03  0.18007370117E+03  0.79315374155E+02 0.  0.
         23    2    1    2    0    0  0.16073938225E+02  0.12831049591E+02 -0.32694529972E+02  0.95758308844E+02  0.87622566151E+02 0.  0.
        -13    1    3    3    0    0 -0.15729326184E+02  0.20021248710E+02  0.26182991817E+02  0.36521379527E+02  0.00000000000E+00 0.  1.
         14    1    3    3    0    0  0.12075574429E+02 -0.57213013735E+02  0.13110347291E+03  0.14355232164E+03  0.00000000000E+00 0. -1.
        -13    1    4    4    0    0  0.44232863293E+02 -0.18251279335E+02 -0.14134687213E+02  0.49894336102E+02  0.00000000000E+00 0. -1.
         13    1    4    4    0    0 -0.28158925068E+02  0.31082328925E+02 -0.18559842759E+02  0.45863972742E+02  0.00000000000E+00 0.  1.
          1    1    1    2  501    0 -0.12420186470E+02  0.24360715434E+02 -0.20945772705E+02  0.34444606002E+02  0.00000000000E+00 0. -1.
<scales pt_clust_5="13000.00000" pt_clust_6="13000.00000" pt_clust_7="13000.00000" pt_clust_8="13000.00000" pt_clust_9="27.34420"></scales>
<clustering>
<clus scale="   27.344">  2  9  1 -1</clus>
<clus scale="   79.315">  5  6 -1 -1</clus>
<clus scale="   86.285">  1  5  2 -1</clus>
<clus scale="   87.623">  7  8 -1 -1</clus>
<clus scale="   27.344">  2  5  1 -1</clus>
</clustering>
</event>
<event>
 9    2  0.5615294E-005  0.1207633E+03  0.7546771E-02  0.1244892E+00
          2   -1    0    0  502    0 -0.00000000000E+00  0.00000000000E+00  0.69053201156E+03  0.69053201156E+03  0.00000000000E+00 0. -1.
         21   -1    0    0  501  502  0.00000000000E+00 -0.00000000000E+00 -0.32449187497E+02  0.32449187497E+02  0.00000000000E+00 0. -1.
         23    2    1    2    0    0  0.28508002510E+02  0.82177449079E+02  0.34270132299E+03  0.36510722940E+03  0.91067298389E+02 0.  0.
         24    2    1    2    0    0  0.26081419091E+02 -0.75529597494E+02  0.22036511935E+03  0.24809094876E+03  0.81261137769E+02 0.  0.
        -13    1    4    4    0    0  0.38909125971E+02 -0.43303843346E+01  0.10336354004E+03  0.11052915327E+03  0.00000000000E+00 0.  1.
         14    1    4    4    0    0 -0.12827706880E+02 -0.71199213160E+02  0.11700157930E+03  0.13756179549E+03  0.00000000000E+00 0. -1.
        -13    1    3    3    0    0  0.52547762636E+02  0.38154217740E+02  0.11616136796E+03  0.13308070895E+03  0.00000000000E+00 0. -1.
         13    1    3    3    0    0 -0.24039760126E+02  0.44023231339E+02  0.22653995503E+03  0.23202652045E+03  0.00000000000E+00 0.  1.
          1    1    1    2  501    0 -0.54589421601E+02 -0.66478515847E+01  0.95016381720E+02  0.10978302089E+03  0.00000000000E+00 0. -1.
<scales pt_clust_5="13000.00000" pt_clust_6="13000.00000" pt_clust_7="13000.00000" pt_clust_8="13000.00000" pt_clust_9="54.99272"></scales>
<clustering>
<clus scale="   54.993">  2  9  1 -1</clus>
<clus scale="   81.261">  5  6 -1 -1</clus>
<clus scale="   91.067">  7  8 -1 -1</clus>
<clus scale="  113.551">  2  5  1 -1</clus>
<clus scale="   54.993">  2  5  1 -1</clus>
</clustering>
</event>
<event>
 9    2  0.5615294E-005  0.9472392E+02  0.7546771E-02  0.1297912E+00
         21   -1    0    0  501  502  0.00000000000E+00  0.00000000000E+00  0.19602641362E+03  0.19602641362E+03  0.00000000000E+00 0. -1.
          4   -1    0    0  502    0 -0.00000000000E+00 -0.00000000000E+00 -0.94488736038E+02  0.94488736038E+02  0.00000000000E+00 0. -1.
         24    2    1    2    0    0  0.13935560694E+02 -0.29946091626E+02 -0.86140438708E+01  0.87697177546E+02  0.80781340310E+02 0.  0.
         23    2    1    2    0    0 -0.37517458722E+02 -0.22740743148E+02  0.33275823194E+02  0.10668310744E+03  0.91374525417E+02 0.  0.
        -13    1    3    3    0    0  0.54871474757E+01 -0.44514845700E+02  0.24089874327E+02  0.50911711032E+02  0.00000000000E+00 0.  1.
         14    1    3    3    0    0  0.84484132184E+01  0.14568754074E+02 -0.32703918197E+02  0.36785466514E+02  0.00000000000E+00 0. -1.
        -11    1    4    4    0    0  0.26008521914E+02 -0.94640296637E+01 -0.91468654904E+01  0.29149206129E+02  0.00000000000E+00 0.  1.
         11    1    4    4    0    0 -0.63525980636E+02 -0.13276713485E+02  0.42422688684E+02  0.77533901307E+02  0.00000000000E+00 0. -1.
          3    1    1    2  501    0  0.23581898028E+02  0.52686834774E+02  0.76875898262E+02  0.96134864678E+02  0.00000000000E+00 0. -1.
<scales pt_clust_5="13000.00000" pt_clust_6="13000.00000" pt_clust_7="13000.00000" pt_clust_8="13000.00000" pt_clust_9="57.72355"></scales>
<clustering>
<clus scale="   57.724">  1  9  2 -1</clus>
<clus scale="   80.781">  5  6 -1 -1</clus>
<clus scale="   84.551">  2  5  1 -1</clus>
<clus scale="   91.375">  7  8 -1 -1</clus>
<clus scale="   57.724">  1  5  2 -1</clus>
</clustering>
</event>
<event>
 9    2  0.5615294E-005  0.1062261E+03  0.7546771E-02  0.1271359E+00
         -1   -1    0    0    0  501 -0.00000000000E+00  0.00000000000E+00  0.33877602418E+02  0.33877602418E+02  0.00000000000E+00 0.  1.
         21   -1    0    0  501  502  0.00000000000E+00 -0.00000000000E+00 -0.44152825457E+03  0.44152825457E+03  0.00000000000E+00 0.  1.
         23    2    1    2    0    0 -0.49802477550E+00  0.45064808348E+02 -0.13156082749E+03  0.16583279834E+03  0.90339253347E+02 0.  0.
         24    2    1    2    0    0 -0.88942926055E+01 -0.69723239693E+02 -0.17891806785E+03  0.20888242261E+03  0.81729755172E+02 0.  0.
        -13    1    4    4    0    0 -0.34944537927E+02 -0.73488455780E+02 -0.13119047948E+03  0.15437815833E+03  0.00000000000E+00 0.  1.
         14    1    4    4    0    0  0.26050245322E+02  0.37652160867E+01 -0.47727588365E+02  0.54504264279E+02  0.00000000000E+00 0. -1.
        -11    1    3    3    0    0 -0.31255105819E+02  0.58567016770E+02 -0.97848576393E+02  0.11824263611E+03  0.00000000000E+00 0.  1.
         11    1    3    3    0    0  0.30757081044E+02 -0.13502208422E+02 -0.33712251092E+02  0.47590162222E+02  0.00000000000E+00 0. -1.
         -2    1    1    2    0  502  0.93923173810E+01  0.24658431345E+02 -0.97171756822E+02  0.10069063604E+03  0.00000000000E+00 0.  1.
<scales pt_clust_5="13000.00000" pt_clust_6="13000.00000" pt_clust_7="13000.00000" pt_clust_8="13000.00000" pt_clust_9="26.38662"></scales>
<clustering>
<clus scale="   26.387">  2  9  1 -1</clus>
<clus scale="   81.730">  5  6 -1 -1</clus>
<clus scale="   90.339">  7  8 -1 -1</clus>
<clus scale="   99.008">  2  5  1 -1</clus>
<clus scale="   26.387">  2  5  1 -1</clus>
</clustering>
</event>
<event>
 9    2  0.5615294E-005  0.1054904E+03  0.7546771E-02  0.1276614E+00
          2   -1    0    0  502    0 -0.00000000000E+00  0.00000000000E+00  0.36755143328E+03  0.36755143328E+03  0.00000000000E+00 0. -1.
         21   -1    0    0  501  502  0.00000000000E+00 -0.00000000000E+00 -0.84213826266E+02  0.84213826266E+02  0.00000000000E+00 0.  1.
         24    2    1    2    0    0  0.85600159007E+01  0.26598736447E+02  0.28932823862E+03  0.30326291714E+03  0.86468494791E+02 0.  0.
         23    2    1    2    0    0  0.15705657131E+02 -0.46931506378E+02  0.97812496933E+01  0.11313291125E+03  0.10126277107E+03 0.  0.
        -13    1    3    3    0    0  0.41183453801E+02 -0.94449437799E+01  0.13323482614E+03  0.13977411322E+03  0.00000000000E+00 0.  1.
         14    1    3    3    0    0 -0.32623437900E+02  0.36043680227E+02  0.15609341248E+03  0.16348880391E+03  0.00000000000E+00 0. -1.
        -13    1    4    4    0    0  0.40951111923E+02 -0.16728620692E+01  0.36451021406E+02  0.54849512275E+02  0.00000000000E+00 0. -1.
         13    1    4    4    0    0 -0.25245454792E+02 -0.45258644309E+02 -0.26669771713E+02  0.58283398971E+02  0.00000000000E+00 0.  1.
          1    1    1    2  501    0 -0.24265673032E+02  0.20332769932E+02 -0.15771881306E+02  0.35369431162E+02  0.00000000000E+00 0. -1.
<scales pt_clust_5="13000.00000" pt_clust_6="13000.00000" pt_clust_7="13000.00000" pt_clust_8="13000.00000" pt_clust_9="31.65824"></scales>
<clustering>
<clus scale="   31.658">  2  9  1 -1</clus>
<clus scale="   86.468">  5  6 -1 -1</clus>
<clus scale="   91.383">  1  5  2 -1</clus>
<clus scale="  101.263">  7  8 -1 -1</clus>
<clus scale="   31.658">  2  5  1 -1</clus>
</clustering>
</event>
<event>
 9    2  0.5615294E-005  0.9125308E+02  0.7546771E-02  0.1301699E+00
          2   -1    0    0  502    0 -0.00000000000E+00  0.00000000000E+00  0.90536966015E+03  0.90536966015E+03  0.00000000000E+00 0. -1.
         21   -1    0    0  501  502  0.00000000000E+00 -0.00000000000E+00 -0.18839543549E+02  0.18839543549E+02  0.00000000000E+00 0. -1.
         23    2    1    2    0    0  0.52788630822E+01  0.11009130480E+02  0.24464133210E+03  0.25869453415E+03  0.83213059545E+02 0.  0.
         24    2    1    2    0    0 -0.46365528495E+02 -0.53952658523E+02  0.29978804997E+03  0.31828970897E+03  0.79842421948E+02 0.  0.
        -13    1    4    4    0    0 -0.95075109347E+01 -0.48148836620E+02  0.25644296137E+03  0.26109710008E+03  0.00000000000E+00 0.  1.
         14    1    4    4    0    0 -0.36858017560E+02 -0.58038219035E+01  0.43345088593E+02  0.57192608895E+02  0.00000000000E+00 0. -1.
        -13    1    3    3    0    0 -0.38237708529E+02 -0.78926636225E+00  0.95050585632E+02  0.10245662069E+03  0.00000000000E+00 0.  1.
         13    1    3    3    0    0  0.43516571611E+02  0.11798396842E+02  0.14959074646E+03  0.15623791345E+03  0.00000000000E+00 0. -1.
          1    1    1    2  501    0  0.41086665413E+02  0.42943528044E+02  0.34210073454E+03  0.34722496058E+03  0.00000000000E+00 0. -1.
<scales pt_clust_5="13000.00000" pt_clust_6="13000.00000" pt_clust_7="13000.00000" pt_clust_8="13000.00000" pt_clust_9="59.43285"></scales>
<clustering>
<clus scale="   59.433">  2  9  1 -1</clus>
<clus scale="   79.842">  5  6 -1 -1</clus>
<clus scale="   83.213">  7  8 -1 -1</clus>
<clus scale="   88.190">  2  5  1 -1</clus>
<clus scale="   59.433">  2  5  1 -1</clus>
</clustering>
</event>
<event>
 9    2  0.5615294E-005  0.1020642E+03  0.7546771E-02  0.1281472E+00
          2   -1    0    0  502    0 -0.00000000000E+00  0.00000000000E+00  0.13070490966E+04  0.13070490966E+04  0.00000000000E+00 0. -1.
         21   -1    0    0  501  502  0.00000000000E+00 -0.00000000000E+00 -0.52887739524E+02  0.52887739524E+02  0.00000000000E+00 0.  1.
         24    2    1    2    0    0  0.32471260628E+02  0.29725207472E+02  0.10060781531E+04  0.10101980703E+04  0.79805515095E+02 0.  0.
         23    2    1    2    0    0 -0.10813477315E+03  0.46920000075E+01  0.80955160158E+02  0.16308053721E+03  0.91248997979E+02 0.  0.
        -11    1    3    3    0    0  0.38387088926E+02  0.13565908446E+02  0.20869562026E+03  0.21262987651E+03  0.00000000000E+00 0.  1.
         12    1    3    3    0    0 -0.59158282977E+01  0.16159299025E+02  0.79738253289E+03  0.79756819378E+03  0.00000000000E+00 0. -1.
        -13    1    4    4    0    0 -0.87609525254E+02  0.31464768414E+02  0.22785727004E+02  0.95836579246E+02  0.00000000000E+00 0.  1.
         13    1    4    4    0    0 -0.20525247900E+02 -0.26772768406E+02  0.58169433154E+02  0.67243957966E+02  0.00000000000E+00 0. -1.
          1    1    1    2  501    0  0.75663512525E+02 -0.34417207479E+02  0.16712804373E+03  0.18665822858E+03  0.00000000000E+00 0. -1.
<scales pt_clust_5="13000.00000" pt_clust_6="13000.00000" pt_clust_7="13000.00000" pt_clust_8="13000.00000" pt_clust_9="83.12347"></scales>
<clustering>
<clus scale="   79.806">  5  6 -1 -1</clus>
<clus scale="   83.123">  2  9  1 -1</clus>
<clus scale="   91.249">  7  8 -1 -1</clus>
<clus scale="   91.976">  1  5  2 -1</clus>
<clus scale="   83.123">  2  5  1 -1</clus>
</clustering>
</event>
<event>
 9    2  0.5615294E-005  0.1476174E+03  0.7546771E-02  0.1205441E+00
          2   -1    0    0  502    0 -0.00000000000E+00  0.00000000000E+00  0.20607379808E+03  0.20607379808E+03  0.00000000000E+00 0. -1.
         21   -1    0    0  501  502  0.00000000000E+00 -0.00000000000E+00 -0.13638895921E+03  0.13638895921E+03  0.00000000000E+00 0. -1.
         23    2    1    2    0    0 -0.10584273324E+03 -0.69066455506E+02  0.33445024999E+02  0.15931123227E+03  0.91041966011E+02 0.  0.
         24    2    1    2    0    0  0.87308937284E+02  0.57799034048E+02 -0.96155838910E+01  0.13242506365E+03  0.80500678032E+02 0.  0.
        -13    1    4    4    0    0  0.29002032844E+02  0.19565892945E+02 -0.42739827365E+02  0.55232553073E+02  0.00000000000E+00 0.  1.
         14    1    4    4    0    0  0.58306904439E+02  0.38233141104E+02  0.33124243474E+02  0.77192510581E+02  0.00000000000E+00 0. -1.
        -13    1    3    3    0    0 -0.65658899127E+02 -0.89212353460E+02  0.25427790228E+02  0.11365081416E+03  0.00000000000E+00 0. -1.
         13    1    3    3    0    0 -0.40183834116E+02  0.20145897953E+02  0.80172347708E+01  0.45660418110E+02  0.00000000000E+00 0.  1.
          1    1    1    2  501    0  0.18533795959E+02  0.11267421458E+02  0.45855397754E+02  0.50726461361E+02  0.00000000000E+00 0. -1.
<scales pt_clust_5="13000.00000" pt_clust_6="13000.00000" pt_clust_7="13000.00000" pt_clust_8="13000.00000" pt_clust_9="21.69002"></scales>
<clustering>
<clus scale="   21.690">  2  9  1 -1</clus>
<clus scale="   80.501">  5  6 -1 -1</clus>
<clus scale="   91.042">  7  8 -1 -1</clus>
<clus scale="  141.360">  2  5  1 -1</clus>
<clus scale="   21.690">  2  5  1 -1</clus>
</clustering>
</event>
<event>
 9    2  0.5615294E-005  0.1024059E+03  0.7546771E-02  0.1282417E+00
         21   -1    0    0  501  502  0.00000000000E+00  0.00000000000E+00  0.35319810912E+02  0.35319810912E+02  0.00000000000E+00 0.  1.
          2   -1    0    0  502    0 -0.00000000000E+00 -0.00000000000E+00 -0.47501155811E+03  0.47501155811E+03  0.00000000000E+00 0. -1.
         24    2    1    2    0    0  0.36437033407E+01 -0.51641259922E+02 -0.32373886686E+03  0.33683151990E+03  0.77256213840E+02 0.  0.
         23    2    1    2    0    0 -0.12250456225E+01  0.20356910821E+02 -0.67912120228E+02  0.11611975645E+03  0.91955626305E+02 0.  0.
        -13    1    3    3    0    0 -0.25175584034E+02  0.23897864412E+01 -0.46720774364E+02  0.53125811691E+02  0.00000000000E+00 0.  1.
         14    1    3    3    0    0  0.28819287374E+02 -0.54031046363E+02 -0.27701809250E+03  0.28370570821E+03  0.00000000000E+00 0. -1.
        -13    1    4    4    0    0  0.10054546620E+02 -0.34288472011E+02 -0.13539822806E+02  0.38211516879E+02  0.00000000000E+00 0.  1.
         13    1    4    4    0    0 -0.11279592242E+02  0.54645382832E+02 -0.54372297421E+02  0.77908239570E+02  0.00000000000E+00 0. -1.
          1    1    1    2  501    0 -0.24186577181E+01  0.31284349101E+02 -0.48040760103E+02  0.57380092672E+02  0.00000000000E+00 0. -1.
<scales pt_clust_5="13000.00000" pt_clust_6="13000.00000" pt_clust_7="13000.00000" pt_clust_8="13000.00000" pt_clust_9="31.37771"></scales>
<clustering>
<clus scale="   31.378">  1  9  2 -1</clus>
<clus scale="   77.256">  5  6 -1 -1</clus>
<clus scale="   89.441">  2  5  1 -1</clus>
<clus scale="   91.956">  7  8 -1 -1</clus>
<clus scale="   31.378">  1  5  2 -1</clus>
</clustering>
</event>
<event>
 9    2  0.5615294E-005  0.2320817E+03  0.7546771E-02  0.1126820E+00
         21   -1    0    0  501  502  0.00000000000E+00  0.00000000000E+00  0.10881871438E+03  0.10881871438E+03  0.00000000000E+00 0. -1.
          2   -1    0    0  502    0 -0.00000000000E+00 -0.00000000000E+00 -0.88899835019E+03  0.88899835019E+03  0.00000000000E+00 0. -1.
         24    2    1    2    0    0 -0.20692951086E+03 -0.69233193921E+02 -0.54243557242E+03  0.59036940860E+03  0.81771821469E+02 0.  0.
         23    2    1    2    0    0  0.19484922154E+03  0.19276105717E+01 -0.25447168319E+03  0.33705029662E+03  0.10429348056E+03 0.  0.
        -13    1    3    3    0    0 -0.20622290953E+02 -0.39094253897E+02 -0.96501508646E+02  0.10614226652E+03  0.00000000000E+00 0.  1.
         14    1    3    3    0    0 -0.18630721991E+03 -0.30138940024E+02 -0.44593406377E+03  0.48422714208E+03  0.00000000000E+00 0. -1.
        -13    1    4    4    0    0  0.16588933944E+03 -0.19018428924E+02 -0.25055427003E+03  0.30109535999E+03  0.00000000000E+00 0.  1.
         13    1    4    4    0    0  0.28959882104E+02  0.20946039495E+02 -0.39174131601E+01  0.35954936628E+02  0.00000000000E+00 0. -1.
          1    1    1    2  501    0  0.12080289319E+02  0.67305583349E+02  0.16727619790E+02  0.70397359352E+02  0.00000000000E+00 0. -1.
<scales pt_clust_5="13000.00000" pt_clust_6="13000.00000" pt_clust_7="13000.00000" pt_clust_8="13000.00000" pt_clust_9="68.38110"></scales>
<clustering>
<clus scale="   68.381">  1  9  2 -1</clus>
<clus scale="   81.772">  5  6 -1 -1</clus>
<clus scale="  104.293">  7  8 -1 -1</clus>
<clus scale="  222.871">  2  5  1 -1</clus>
<clus scale="   68.381">  1  5  2 -1</clus>
</clustering>
</event>
<event>
 9    2  0.5615294E-005  0.9329628E+02  0.7546771E-02  0.1296546E+00
          2   -1    0    0  502    0 -0.00000000000E+00  0.00000000000E+00  0.52153062781E+03  0.52153062781E+03  0.00000000000E+00 0. -1.
         21   -1    0    0  501  502  0.00000000000E+00 -0.00000000000E+00 -0.39313131305E+02  0.39313131305E+02  0.00000000000E+00 0.  1.
         24    2    1    2    0    0  0.20131976769E+01  0.51701816267E+02  0.42134439914E+03  0.43181908420E+03  0.79116926302E+02 0.  0.
         23    2    1    2    0    0  0.20007970363E+02 -0.38492159290E+02  0.51894609460E+02  0.10182099641E+03  0.76108472679E+02 0.  0.
        -11    1    3    3    0    0  0.23616298831E+02  0.29146131580E+02  0.72973338714E+02  0.82050805722E+02  0.00000000000E+00 0.  1.
         12    1    3    3    0    0 -0.21603101154E+02  0.22555684687E+02  0.34837106042E+03  0.34976827848E+03  0.00000000000E+00 0. -1.
        -11    1    4    4    0    0 -0.24318662408E+01 -0.37920339236E+02 -0.71396077044E+01  0.38663162046E+02  0.00000000000E+00 0.  1.
         11    1    4    4    0    0  0.22439836604E+02 -0.57182005329E+00  0.59034217164E+02  0.63157834361E+02  0.00000000000E+00 0. -1.
          1    1    1    2  501    0 -0.22021168040E+02 -0.13209656977E+02  0.89784879133E+01  0.27203678511E+02  0.00000000000E+00 0. -1.
<scales pt_clust_5="13000.00000" pt_clust_6="13000.00000" pt_clust_7="13000.00000" pt_clust_8="13000.00000" pt_clust_9="25.67931"></scales>
<clustering>
<clus scale="   25.679">  2  9  1 -1</clus>
<clus scale="   76.108">  7  8 -1 -1</clus>
<clus scale="   79.117">  5  6 -1 -1</clus>
<clus scale="   90.759">  2  7  1 -1</clus>
<clus scale="   25.679">  2  5  1 -1</clus>
</clustering>
</event>
<event>
 9    2  0.5615294E-005  0.1065834E+03  0.7546771E-02  0.1273321E+00
          2   -1    0    0  502    0 -0.00000000000E+00  0.00000000000E+00  0.19218206554E+03  0.19218206554E+03  0.00000000000E+00 0. -1.
         21   -1    0    0  501  502  0.00000000000E+00 -0.00000000000E+00 -0.10990173194E+03  0.10990173194E+03  0.00000000000E+00 0. -1.
         24    2    1    2    0    0 -0.57202295962E+02 -0.20985375545E+02  0.93119385461E+02  0.13534141944E+03  0.77029807328E+02 0.  0.
         23    2    1    2    0    0  0.18794252679E+02  0.33166129799E+02 -0.49537827174E+02  0.11087518038E+03  0.91575614683E+02 0.  0.
        -13    1    3    3    0    0 -0.43246209454E+02 -0.80981633735E+01  0.39542495956E+01  0.44175230300E+02  0.00000000000E+00 0.  1.
         14    1    3    3    0    0 -0.13956086507E+02 -0.12887212172E+02  0.89165135865E+02  0.91166189139E+02  0.00000000000E+00 0. -1.
        -13    1    4    4    0    0  0.50403759480E+02  0.48194894539E+01 -0.76067712513E+01  0.51201849743E+02  0.00000000000E+00 0.  1.
         13    1    4    4    0    0 -0.31609506800E+02  0.28346640345E+02 -0.41931055923E+02  0.59673330642E+02  0.00000000000E+00 0. -1.
          1    1    1    2  501    0  0.38408043283E+02 -0.12180754254E+02  0.38698775310E+02  0.55867197652E+02  0.00000000000E+00 0. -1.
<scales pt_clust_5="13000.00000" pt_clust_6="13000.00000" pt_clust_7="13000.00000" pt_clust_8="13000.00000" pt_clust_9="40.29330"></scales>
<clustering>
<clus scale="   40.293">  2  9  1 -1</clus>
<clus scale="   77.030">  5  6 -1 -1</clus>
<clus scale="   91.576">  7  8 -1 -1</clus>
<clus scale="   94.380">  1  5  2 -1</clus>
<clus scale="   40.293">  2  5  1 -1</clus>
</clustering>
</event>
<event>
 9    2  0.5615294E-005  0.1048257E+03  0.7546771E-02  0.1275571E+00
         -1   -1    0    0    0  501 -0.00000000000E+00  0.00000000000E+00  0.65783974476E+03  0.65783974476E+03  0.00000000000E+00 0.  1.
         21   -1    0    0  501  502  0.00000000000E+00 -0.00000000000E+00 -0.73010616949E+02  0.73010616949E+02  0.00000000000E+00 0. -1.
         24    2    1    2    0    0 -0.60023241908E+02  0.62160493442E+01  0.20458222139E+03  0.22798025514E+03  0.80496475636E+02 0.  0.
         23    2    1    2    0    0  0.30841217888E+01  0.51354439090E+02 -0.86314893018E+01  0.10565123591E+03  0.91874320792E+02 0.  0.
        -13    1    3    3    0    0 -0.30245309170E+02 -0.35405464198E+02  0.70770019782E+02  0.84715531762E+02  0.00000000000E+00 0.  1.
         14    1    3    3    0    0 -0.29777932739E+02  0.41621513542E+02  0.13381220160E+03  0.14326472338E+03  0.00000000000E+00 0. -1.
        -11    1    4    4    0    0  0.23942330654E+02  0.32587412650E+02 -0.44489305142E+02  0.60120486795E+02  0.00000000000E+00 0. -1.
         11    1    4    4    0    0 -0.20858208865E+02  0.18767026440E+02  0.35857815841E+02  0.45530749118E+02  0.00000000000E+00 0.  1.
         -2    1    1    2    0  502  0.56939120119E+02 -0.57570488434E+02  0.38887839573E+03  0.39721887065E+03  0.00000000000E+00 0.  1.
<scales pt_clust_5="13000.00000" pt_clust_6="13000.00000" pt_clust_7="13000.00000" pt_clust_8="13000.00000" pt_clust_9="80.97179"></scales>
<clustering>
<clus scale="   80.496">  5  6 -1 -1</clus>
<clus scale="   80.972">  2  9  1 -1</clus>
<clus scale="   91.874">  7  8 -1 -1</clus>
<clus scale="   95.012">  1  5  2 -1</clus>
<clus scale="   80.972">  2  5  1 -1</clus>
</clustering>
</event>
<event>
 9    2  0.5615294E-005  0.1065664E+03  0.7546771E-02  0.1270521E+00
         21   -1    0    0  501  502  0.00000000000E+00  0.00000000000E+00  0.50357610587E+02  0.50357610587E+02  0.00000000000E+00 0. -1.
          2   -1    0    0  502    0 -0.00000000000E+00 -0.00000000000E+00 -0.71315649522E+03  0.71315649522E+03  0.00000000000E+00 0. -1.
         24    2    1    2    0    0  0.50412585534E+02 -0.37758280056E+02 -0.25746273290E+03  0.27735372672E+03  0.81675665893E+02 0.  0.
         23    2    1    2    0    0 -0.52044154933E+02 -0.18351141719E+02 -0.34416101656E+02  0.11101692282E+03  0.89971832451E+02 0.  0.
        -11    1    3    3    0    0 -0.21089939872E+02  0.14724775492E+01 -0.64039926449E+02  0.67439350038E+02  0.00000000000E+00 0.  1.
         12    1    3    3    0    0  0.71502525406E+02 -0.39230757605E+02 -0.19342280646E+03  0.20991437668E+03  0.00000000000E+00 0. -1.
        -11    1    4    4    0    0  0.23521469139E+02  0.58956137090E+01  0.64260615026E+00  0.24257590856E+02  0.00000000000E+00 0.  1.
         11    1    4    4    0    0 -0.75565624072E+02 -0.24246755428E+02 -0.35058707806E+02  0.86759331966E+02  0.00000000000E+00 0. -1.
          1    1    1    2  501    0  0.16315693990E+01  0.56109421776E+02 -0.37092005007E+03  0.37514345626E+03  0.00000000000E+00 0. -1.
<scales pt_clust_5="13000.00000" pt_clust_6="13000.00000" pt_clust_7="13000.00000" pt_clust_8="13000.00000" pt_clust_9="56.13317"></scales>
<clustering>
<clus scale="   56.133">  1  9  2 -1</clus>
<clus scale="   81.676">  5  6 -1 -1</clus>
<clus scale="   89.972">  7  8 -1 -1</clus>
<clus scale="   99.661">  2  5  1 -1</clus>
<clus scale="   56.133">  1  5  2 -1</clus>
</clustering>
</event>
<event>
 9    2  0.5615294E-005  0.1302196E+03  0.7546771E-02  0.1229175E+00
          2   -1    0    0  502    0 -0.00000000000E+00  0.00000000000E+00  0.34038924764E+02  0.34038924764E+02  0.00000000000E+00 0. -1.
         21   -1    0    0  501  502  0.00000000000E+00 -0.00000000000E+00 -0.71868906479E+03  0.71868906479E+03  0.00000000000E+00 0.  1.
         24    2    1    2    0    0  0.92279395253E+02  0.31469564294E+02 -0.15686441646E+03  0.20279059073E+03  0.83736242272E+02 0.  0.
         23    2    1    2    0    0 -0.83355564070E+02 -0.77104709387E+01 -0.37333460844E+03  0.39341495238E+03  0.91591448679E+02 0.  0.
        -11    1    3    3    0    0  0.80759830581E+02  0.28292240246E+02 -0.16665610003E+03  0.18734155110E+03  0.00000000000E+00 0.  1.
         12    1    3    3    0    0  0.11519564673E+02  0.31773240479E+01  0.97916835623E+01  0.15449039625E+02  0.00000000000E+00 0. -1.
        -11    1    4    4    0    0 -0.71930384974E+02 -0.39202960356E+02 -0.32090546916E+03  0.33119657686E+03  0.00000000000E+00 0.  1.
         11    1    4    4    0    0 -0.11425179097E+02  0.31492489417E+02 -0.52429139280E+02  0.62218375523E+02  0.00000000000E+00 0. -1.
          1    1    1    2  501    0 -0.89238311831E+01 -0.23759093356E+02 -0.15445111512E+03  0.15652244644E+03  0.00000000000E+00 0. -1.
<scales pt_clust_5="13000.00000" pt_clust_6="13000.00000" pt_clust_7="13000.00000" pt_clust_8="13000.00000" pt_clust_9="25.37970"></scales>
<clustering>
<clus scale="   25.380">  2  9  1 -1</clus>
<clus scale="   83.736">  5  6 -1 -1</clus>
<clus scale="   91.591">  7  8 -1 -1</clus>
<clus scale="  124.820">  1  5  2 -1</clus>
<clus scale="   25.380">  2  5  1 -1</clus>
</clustering>
</event>
<event>
 9    2  0.5615294E-005  0.2973267E+03  0.7546771E-02  0.1136909E+00
         21   -1    0    0  501  502  0.00000000000E+00  0.00000000000E+00  0.77598533196E+03  0.77598533196E+03  0.00000000000E+00 0.  1.
         -1   -1    0    0    0  501 -0.00000000000E+00 -0.00000000000E+00 -0.19510074569E+03  0.19510074569E+03  0.00000000000E+00 0.  1.
         24    2    1    2    0    0  0.27333787390E+01  0.19808054081E+02 -0.40301502807E+01  0.82897965884E+02  0.80349239391E+02 0.  0.
         23    2    1    2    0    0  0.25209624004E+03  0.10969009730E+03  0.67891981365E+02  0.29740859689E+03  0.90874202514E+02 0.  0.
        -11    1    3    3    0    0  0.35633012083E+02  0.30951510655E+02 -0.82252809991E+01  0.47909944787E+02  0.00000000000E+00 0.  1.
         12    1    3    3    0    0 -0.32899633344E+02 -0.11143456574E+02  0.41951307184E+01  0.34988021098E+02  0.00000000000E+00 0. -1.
        -11    1    4    4    0    0  0.23160914961E+03  0.91191333706E+02  0.87173312948E+02  0.26373821114E+03  0.00000000000E+00 0.  1.
         11    1    4    4    0    0  0.20487090429E+02  0.18498763592E+02 -0.19281331584E+02  0.33670385747E+02  0.00000000000E+00 0. -1.
         -2    1    1    2    0  502 -0.25482961878E+03 -0.12949815138E+03  0.51702275519E+03  0.59077951488E+03  0.00000000000E+00 0.  1.
<scales pt_clust_5="13000.00000" pt_clust_6="13000.00000" pt_clust_7="13000.00000" pt_clust_8="13000.00000" pt_clust_9="283.09905"></scales>
<clustering>
<clus scale="   80.349">  5  6 -1 -1</clus>
<clus scale="   82.800">  2  5  1 -1</clus>
<clus scale="   90.874">  7  8 -1 -1</clus>
<clus scale="  283.099">  1  9  2 -1</clus>
<clus scale="  283.099">  1  5  2 -1</clus>
</clustering>
</event>
<event>
 9    2  0.5615294E-005  0.9554207E+02  0.7546771E-02  0.1298053E+00
         21   -1    0    0  501  502  0.00000000000E+00  0.00000000000E+00  0.27644649804E+03  0.27644649804E+03  0.00000000000E+00 0.  1.
          2   -1    0    0  502    0 -0.00000000000E+00 -0.00000000000E+00 -0.19092596108E+03  0.19092596108E+03  0.00000000000E+00 0. -1.
         24    2    1    2    0    0 -0.99775780300E+01 -0.26385045786E+02 -0.16596549714E+03  0.18515285035E+03  0.77079887433E+02 0.  0.
         23    2    1    2    0    0 -0.11006556336E+02  0.41648251777E+02  0.21464401947E+03  0.23715705896E+03  0.91190429124E+02 0.  0.
        -11    1    3    3    0    0 -0.24844893557E+02  0.14431920767E+02 -0.26530628712E+02  0.39107842343E+02  0.00000000000E+00 0.  1.
         12    1    3    3    0    0  0.14867315527E+02 -0.40816966553E+02 -0.13943486843E+03  0.14604500801E+03  0.00000000000E+00 0. -1.
        -13    1    4    4    0    0 -0.31503665813E+02 -0.13038819358E+02  0.12946548956E+03  0.13387981460E+03  0.00000000000E+00 0.  1.
         13    1    4    4    0    0  0.20497109477E+02  0.54687071134E+02  0.85178529909E+02  0.10327724436E+03  0.00000000000E+00 0. -1.
          1    1    1    2  501    0  0.20984134367E+02 -0.15263205990E+02  0.36842014639E+02  0.45062549804E+02  0.00000000000E+00 0. -1.
<scales pt_clust_5="13000.00000" pt_clust_6="13000.00000" pt_clust_7="13000.00000" pt_clust_8="13000.00000" pt_clust_9="25.94801"></scales>
<clustering>
<clus scale="   25.948">  1  9  2 -1</clus>
<clus scale="   77.080">  5  6 -1 -1</clus>
<clus scale="   82.182">  2  5  1 -1</clus>
<clus scale="   91.190">  7  8 -1 -1</clus>
<clus scale="   25.948">  1  5  2 -1</clus>
</clustering>
</event>
<event>
 9    2  0.5615294E-005  0.1189913E+03  0.7546771E-02  0.1253034E+00
         21   -1    0    0  501  502  0.00000000000E+00  0.00000000000E+00  0.37169657702E+02  0.37169657702E+02  0.00000000000E+00 0. -1.
         -3   -1    0    0    0  501 -0.00000000000E+00 -0.00000000000E+00 -0.63146883413E+03  0.63146883413E+03  0.00000000000E+00 0.  1.
         23    2    1    2    0    0 -0.44199871187E+02  0.17244201028E+02 -0.31692026962E+03  0.33596936012E+03  0.10092552979E+03 0.  0.
         24    2    1    2    0    0  0.98762677438E+02 -0.83370723581E+00 -0.18110754728E+03  0.22080055347E+03  0.78728515851E+02 0.  0.
        -13    1    4    4    0    0  0.68707782503E+02 -0.67807514318E+01 -0.17687451580E+03  0.18987188392E+03  0.00000000000E+00 0.  1.
         14    1    4    4    0    0  0.30054894936E+02  0.59470441960E+01 -0.42330314814E+01  0.30928669544E+02  0.00000000000E+00 0. -1.
        -13    1    3    3    0    0 -0.72878838022E+02 -0.66933559130E+01 -0.18788770111E+03  0.20163807744E+03  0.00000000000E+00 0.  1.
         13    1    3    3    0    0  0.28678966834E+02  0.23937556941E+02 -0.12903256851E+03  0.13433128268E+03  0.00000000000E+00 0. -1.
         -4    1    1    2    0  502 -0.54562806251E+02 -0.16410493792E+02 -0.96271359535E+02  0.11186857825E+03  0.00000000000E+00 0.  1.
<scales pt_clust_5="13000.00000" pt_clust_6="13000.00000" pt_clust_7="13000.00000" pt_clust_8="13000.00000" pt_clust_9="56.97722"></scales>
<clustering>
<clus scale="   56.977">  1  9  2 -1</clus>
<clus scale="   78.729">  5  6 -1 -1</clus>
<clus scale="  100.852">  1  5  2 -1</clus>
<clus scale="  100.926">  7  8 -1 -1</clus>
<clus scale="   56.977">  1  5  2 -1</clus>
</clustering>
</event>
<event>
 9    2  0.5615294E-005  0.1279693E+03  0.7546771E-02  0.1235236E+00
          4   -1    0    0  502    0 -0.00000000000E+00  0.00000000000E+00  0.68530984006E+02  0.68530984006E+02  0.00000000000E+00 0. -1.
         21   -1    0    0  501  502  0.00000000000E+00 -0.00000000000E+00 -0.57327471126E+03  0.57327471126E+03  0.00000000000E+00 0. -1.
         23    2    1    2    0    0 -0.56599389535E+02 -0.42079268437E+02 -0.63018380193E+02  0.13493603368E+03  0.96240642219E+02 0.  0.
         24    2    1    2    0    0  0.43064585471E+02  0.11185021782E+03 -0.15537424702E+03  0.21183046285E+03  0.79786957606E+02 0.  0.
        -11    1    4    4    0    0 -0.19240887167E+02  0.37257283871E+02 -0.74072997114E+02  0.85118304975E+02  0.00000000000E+00 0.  1.
         12    1    4    4    0    0  0.62305472638E+02  0.74592933952E+02 -0.81301249909E+02  0.12671215787E+03  0.00000000000E+00 0. -1.
        -11    1    3    3    0    0  0.26021555879E+01 -0.31492209686E+02 -0.67600049313E+02  0.74621023524E+02  0.00000000000E+00 0.  1.
         11    1    3    3    0    0 -0.59201545123E+02 -0.10587058751E+02  0.45816691204E+01  0.60315010154E+02  0.00000000000E+00 0. -1.
          3    1    1    2  501    0  0.13534804064E+02 -0.69770949385E+02 -0.28635110004E+03  0.29503919874E+03  0.00000000000E+00 0. -1.
<scales pt_clust_5="13000.00000" pt_clust_6="13000.00000" pt_clust_7="13000.00000" pt_clust_8="13000.00000" pt_clust_9="71.07163"></scales>
<clustering>
<clus scale="   71.072">  2  9  1 -1</clus>
<clus scale="   79.787">  5  6 -1 -1</clus>
<clus scale="   96.241">  7  8 -1 -1</clus>
<clus scale="  116.103">  2  5  1 -1</clus>
<clus scale="   71.072">  2  5  1 -1</clus>
</clustering>
</event>
<event>
 9    2  0.5615294E-005  0.1537258E+03  0.7546771E-02  0.1201509E+00
          2   -1    0    0  502    0 -0.00000000000E+00  0.00000000000E+00  0.23363528146E+03  0.23363528146E+03  0.00000000000E+00 0. -1.
         21   -1    0    0  501  502  0.00000000000E+00 -0.00000000000E+00 -0.11985261601E+03  0.11985261601E+03  0.00000000000E+00 0. -1.
         23    2    1    2    0    0  0.72654664221E+01 -0.10424871662E+03  0.10158608169E+03  0.18140483834E+03  0.10801574635E+03 0.  0.
         24    2    1    2    0    0 -0.29719668618E+02  0.11561738768E+03  0.68937210802E+00  0.14440899550E+03  0.81257883991E+02 0.  0.
        -11    1    4    4    0    0  0.22732063154E+02  0.45200698447E+02 -0.19654022025E+02  0.54278268368E+02  0.00000000000E+00 0.  1.
         12    1    4    4    0    0 -0.52451731772E+02  0.70416689238E+02  0.20343394133E+02  0.90130727135E+02  0.00000000000E+00 0. -1.
        -11    1    3    3    0    0 -0.34922778421E+02 -0.96704395525E+02  0.49974174151E+02  0.11431867148E+03  0.00000000000E+00 0. -1.
         11    1    3    3    0    0  0.42188244843E+02 -0.75443210941E+01  0.51611907541E+02  0.67086166858E+02  0.00000000000E+00 0.  1.
          1    1    1    2  501    0  0.22454202196E+02 -0.11368671066E+02  0.11507211639E+02  0.27674063629E+02  0.00000000000E+00 0. -1.
<scales pt_clust_5="13000.00000" pt_clust_6="13000.00000" pt_clust_7="13000.00000" pt_clust_8="13000.00000" pt_clust_9="25.16820"></scales>
<clustering>
<clus scale="   25.168">  2  9  1 -1</clus>
<clus scale="   81.258">  5  6 -1 -1</clus>
<clus scale="  108.016">  7  8 -1 -1</clus>
<clus scale="  136.261">  2  5  1 -1</clus>
<clus scale="   25.168">  2  5  1 -1</clus>
</clustering>
</event>
<event>
 9    2  0.5615294E-005  0.1319095E+03  0.7546771E-02  0.1228022E+00
          2   -1    0    0  502    0 -0.00000000000E+00  0.00000000000E+00  0.26159616684E+03  0.26159616684E+03  0.00000000000E+00 0. -1.
         21   -1    0    0  501  502  0.00000000000E+00 -0.00000000000E+00 -0.10921227072E+03  0.10921227072E+03  0.00000000000E+00 0.  1.
         23    2    1    2    0    0 -0.87330791534E+01  0.79796932263E+02  0.87525473266E+02  0.15016134239E+03  0.91890713398E+02 0.  0.
         24    2    1    2    0    0 -0.37640299510E+02 -0.11348434409E+03  0.76403921357E+02  0.16217803926E+03  0.78540872917E+02 0.  0.
        -13    1    4    4    0    0 -0.42970296710E+02 -0.41506905955E+02  0.38935563925E+01  0.59870104582E+02  0.00000000000E+00 0.  1.
         14    1    4    4    0    0  0.53299972004E+01 -0.71977438131E+02  0.72510364965E+02  0.10230793467E+03  0.00000000000E+00 0. -1.
        -11    1    3    3    0    0 -0.16344768792E+02  0.13670641371E+02  0.80449273915E+02  0.83223335524E+02  0.00000000000E+00 0. -1.
         11    1    3    3    0    0  0.76116896386E+01  0.66126290892E+02  0.70761993517E+01  0.66938006869E+02  0.00000000000E+00 0.  1.
          1    1    1    2  501    0  0.46373378663E+02  0.33687411822E+02 -0.11545498503E+02  0.58469055915E+02  0.00000000000E+00 0. -1.
<scales pt_clust_5="13000.00000" pt_clust_6="13000.00000" pt_clust_7="13000.00000" pt_clust_8="13000.00000" pt_clust_9="57.31782"></scales>
<clustering>
<clus scale="   57.318">  2  9  1 -1</clus>
<clus scale="   78.541">  5  6 -1 -1</clus>
<clus scale="   91.891">  7  8 -1 -1</clus>
<clus scale="  122.983">  2  5  1 -1</clus>
<clus scale="   57.318">  2  5  1 -1</clus>
</clustering>
</event>
<event>
 9    2  0.5615294E-005  0.1075244E+03  0.7546771E-02  0.1269929E+00
         -1   -1    0    0    0  501 -0.00000000000E+00  0.00000000000E+00  0.31263842943E+03  0.31263842943E+03  0.00000000000E+00 0.  1.
         21   -1    0    0  501  502  0.00000000000E+00 -0.00000000000E+00 -0.17825200653E+03  0.17825200653E+03  0.00000000000E+00 0.  1.
         24    2    1    2    0    0  0.54449823123E+02  0.31923702274E+02  0.25755666570E+03  0.27709360522E+03  0.80383605295E+02 0.  0.
         23    2    1    2    0    0  0.21222337850E+02 -0.81305645282E+01 -0.78474883695E+02  0.12274703956E+03  0.91608049020E+02 0.  0.
        -11    1    3    3    0    0  0.47846524927E+02  0.46155217864E+02  0.25172552655E+03  0.26035616913E+03  0.00000000000E+00 0.  1.
         12    1    3    3    0    0  0.66032981965E+01 -0.14231515590E+02  0.58311391443E+01  0.16737436088E+02  0.00000000000E+00 0. -1.
        -11    1    4    4    0    0  0.44179103880E+02  0.25504331747E+02 -0.29039720108E+02  0.58698973598E+02  0.00000000000E+00 0.  1.
         11    1    4    4    0    0 -0.22956766030E+02 -0.33634896275E+02 -0.49435163587E+02  0.64048065957E+02  0.00000000000E+00 0. -1.
         -2    1    1    2    0  502 -0.75672160973E+02 -0.23793137746E+02 -0.44695359109E+02  0.91049791192E+02  0.00000000000E+00 0.  1.
<scales pt_clust_5="13000.00000" pt_clust_6="13000.00000" pt_clust_7="13000.00000" pt_clust_8="13000.00000" pt_clust_9="79.32458"></scales>
<clustering>
<clus scale="   79.325">  2  9  1 -1</clus>
<clus scale="   80.384">  5  6 -1 -1</clus>
<clus scale="   91.608">  7  8 -1 -1</clus>
<clus scale="   98.138">  1  5  2 -1</clus>
<clus scale="   79.325">  2  5  1 -1</clus>
</clustering>
</event>
<event>
 9    2  0.5615294E-005  0.9439327E+02  0.7546771E-02  0.1298601E+00
         -1   -1    0    0    0  501 -0.00000000000E+00  0.00000000000E+00  0.30583264265E+03  0.30583264265E+03  0.00000000000E+00 0.  1.
         21   -1    0    0  501  502  0.00000000000E+00 -0.00000000000E+00 -0.44003208029E+02  0.44003208029E+02  0.00000000000E+00 0. -1.
         23    2    1    2    0    0  0.30712430958E+00  0.23165022763E+02  0.19232030151E+03  0.21395152575E+03  0.90837461401E+02 0.  0.
         24    2    1    2    0    0 -0.26023069917E+02 -0.28042700835E+02  0.43808046480E+02  0.99201257227E+02  0.80362623532E+02 0.  0.
        -11    1    4    4    0    0 -0.30444796794E+02 -0.49924831600E+02  0.48988112605E+02  0.76283744262E+02  0.00000000000E+00 0.  1.
         12    1    4    4    0    0  0.44217268768E+01  0.21882130765E+02 -0.51800661256E+01  0.22917512964E+02  0.00000000000E+00 0. -1.
        -13    1    3    3    0    0  0.35810923434E+02 -0.43548637284E+01  0.14194240893E+03  0.14645488905E+03  0.00000000000E+00 0.  1.
         13    1    3    3    0    0 -0.35503799125E+02  0.27519886492E+02  0.50377892587E+02  0.67496636703E+02  0.00000000000E+00 0. -1.
         -2    1    1    2    0  502  0.25715945608E+02  0.48776780711E+01  0.25701086632E+02  0.36683067701E+02  0.00000000000E+00 0.  1.
<scales pt_clust_5="13000.00000" pt_clust_6="13000.00000" pt_clust_7="13000.00000" pt_clust_8="13000.00000" pt_clust_9="26.17445"></scales>
<clustering>
<clus scale="   26.174">  2  9  1 -1</clus>
<clus scale="   80.363">  5  6 -1 -1</clus>
<clus scale="   84.361">  2  5  1 -1</clus>
<clus scale="   90.837">  7  8 -1 -1</clus>
<clus scale="   26.174">  2  5  1 -1</clus>
</clustering>
</event>
<event>
 9    2  0.5615294E-005  0.2075580E+03  0.7546771E-02  0.1164642E+00
          2   -1    0    0  502    0 -0.00000000000E+00  0.00000000000E+00  0.17678802541E+04  0.17678802541E+04  0.00000000000E+00 0. -1.
         21   -1    0    0  501  502  0.00000000000E+00 -0.00000000000E+00 -0.67720338091E+02  0.67720338091E+02  0.00000000000E+00 0.  1.
         24    2    1    2    0    0 -0.72337089990E+02 -0.73882346796E+02  0.32341754269E+03  0.34719144100E+03  0.72468848660E+02 0.  0.
         23    2    1    2    0    0 -0.18050358128E+03  0.32787211758E+02  0.19111064278E+03  0.27542118108E+03  0.75345902982E+02 0.  0.
        -13    1    3    3    0    0 -0.82532788292E+02 -0.67490828886E+02  0.31487295437E+03  0.33243292635E+03  0.00000000000E+00 0.  1.
         14    1    3    3    0    0  0.10195698303E+02 -0.63915179097E+01  0.85445883183E+01  0.14758514647E+02  0.00000000000E+00 0. -1.
        -13    1    4    4    0    0 -0.13133776402E+03  0.19378625967E+01  0.16725369809E+03  0.21266678888E+03  0.00000000000E+00 0. -1.
         13    1    4    4    0    0 -0.49165817261E+02  0.30849349161E+02  0.23856944690E+02  0.62754392202E+02  0.00000000000E+00 0.  1.
          1    1    1    2  501    0  0.25284067127E+03  0.41095135038E+02  0.11856317306E+04  0.12129879701E+04  0.00000000000E+00 0. -1.
<scales pt_clust_5="13000.00000" pt_clust_6="13000.00000" pt_clust_7="13000.00000" pt_clust_8="13000.00000" pt_clust_9="193.39942"></scales>
<clustering>
<clus scale="   72.469">  5  6 -1 -1</clus>
<clus scale="   75.346">  7  8 -1 -1</clus>
<clus scale="  126.266">  1  5  2 -1</clus>
<clus scale="  193.399">  2  9  1 -1</clus>
<clus scale="  193.399">  2  5  1 -1</clus>
</clustering>
</event>
<event>
 9    2  0.5615294E-005  0.9254622E+02  0.7546771E-02  0.1304221E+00
         21   -1    0    0  501  502  0.00000000000E+00  0.00000000000E+00  0.18289035141E+02  0.18289035141E+02  0.00000000000E+00 0.  1.
          2   -1    0    0  502    0 -0.00000000000E+00 -0.00000000000E+00 -0.56291919109E+03  0.56291919109E+03  0.00000000000E+00 0. -1.
         24    2    1    2    0    0 -0.21896139003E+02  0.21113662107E+02 -0.24218069347E+03  0.25594635145E+03  0.77018302385E+02 0.  0.
         23    2    1    2    0    0  0.75910708679E+00 -0.18469101787E+02 -0.18942572068E+03  0.21024824937E+03  0.89333861140E+02 0.  0.
        -13    1    3    3    0    0  0.12367901109E+02  0.39712877079E+02 -0.95339465591E+02  0.10401774504E+03  0.00000000000E+00 0.  1.
         14    1    3    3    0    0 -0.34264040112E+02 -0.18599214972E+02 -0.14684122788E+03  0.15192860642E+03  0.00000000000E+00 0. -1.
        -13    1    4    4    0    0  0.80959573243E+01  0.20885759713E+02 -0.69803447900E+01  0.23462410302E+02  0.00000000000E+00 0.  1.
         13    1    4    4    0    0 -0.73368502375E+01 -0.39354861500E+02 -0.18244537589E+03  0.18678583907E+03  0.00000000000E+00 0. -1.
          1    1    1    2  501    0  0.21137031916E+02 -0.26445603204E+01 -0.11302374180E+03  0.11501362541E+03  0.00000000000E+00 0. -1.
<scales pt_clust_5="13000.00000" pt_clust_6="13000.00000" pt_clust_7="13000.00000" pt_clust_8="13000.00000" pt_clust_9="21.30184"></scales>
<clustering>
<clus scale="   21.302">  1  9  2 -1</clus>
<clus scale="   77.018">  5  6 -1 -1</clus>
<clus scale="   80.722">  2  5  1 -1</clus>
<clus scale="   89.334">  7  8 -1 -1</clus>
<clus scale="   21.302">  1  5  2 -1</clus>
</clustering>
</event>
<event>
 9    2  0.5615294E-005  0.1928700E+03  0.7546771E-02  0.1191429E+00
         -3   -1    0    0    0  501 -0.00000000000E+00  0.00000000000E+00  0.12999143939E+04  0.12999143939E+04  0.00000000000E+00 0.  1.
         21   -1    0    0  501  502  0.00000000000E+00 -0.00000000000E+00 -0.43211737537E+02  0.43211737537E+02  0.00000000000E+00 0.  1.
         24    2    1    2    0    0 -0.82474376131E+01 -0.27788545026E+02  0.10814962520E+03  0.13817188724E+03  0.80962371076E+02 0.  0.
         23    2    1    2    0    0 -0.14579975472E+03  0.90586860770E+02  0.55213048816E+03  0.58576605332E+03  0.93862907704E+02 0.  0.
        -11    1    3    3    0    0  0.37830193286E+01 -0.48062751253E+02  0.30563084296E+02  0.57082759349E+02  0.00000000000E+00 0.  1.
         12    1    3    3    0    0 -0.12030456942E+02  0.20274206227E+02  0.77586540904E+02  0.81089127889E+02  0.00000000000E+00 0. -1.
        -11    1    4    4    0    0 -0.95107730878E+02  0.10607942502E+03  0.41267795613E+03  0.43657922575E+03  0.00000000000E+00 0.  1.
         11    1    4    4    0    0 -0.50692023843E+02 -0.15492564252E+02  0.13945253204E+03  0.14918682757E+03  0.00000000000E+00 0. -1.
         -4    1    1    2    0  502  0.15404719233E+03 -0.62798315745E+02  0.59642254304E+03  0.61918819092E+03  0.00000000000E+00 0.  1.
<scales pt_clust_5="13000.00000" pt_clust_6="13000.00000" pt_clust_7="13000.00000" pt_clust_8="13000.00000" pt_clust_9="168.48917"></scales>
<clustering>
<clus scale="   80.962">  5  6 -1 -1</clus>
<clus scale="   85.995">  1  5  2 -1</clus>
<clus scale="   93.863">  7  8 -1 -1</clus>
<clus scale="  168.489">  2  9  1 -1</clus>
<clus scale="  168.489">  2  5  1 -1</clus>
</clustering>
</event>
<event>
 9    2  0.5615294E-005  0.1242824E+03  0.7546771E-02  0.1240223E+00
         21   -1    0    0  501  502  0.00000000000E+00  0.00000000000E+00  0.59115242451E+02  0.59115242451E+02  0.00000000000E+00 0.  1.
          2   -1    0    0  502    0 -0.00000000000E+00 -0.00000000000E+00 -0.56897565060E+03  0.56897565060E+03  0.00000000000E+00 0. -1.
         24    2    1    2    0    0  0.87749415138E+02 -0.48852713686E+02 -0.17121302067E+03  0.21374215429E+03  0.79279647965E+02 0.  0.
         23    2    1    2    0    0 -0.28263112183E+02  0.53869444130E+02 -0.53888884411E+02  0.12339995823E+03  0.92859126137E+02 0.  0.
        -11    1    3    3    0    0  0.82086244986E+02 -0.50406012235E+01 -0.12652454632E+03  0.15090400955E+03  0.00000000000E+00 0.  1.
         12    1    3    3    0    0  0.56631701524E+01 -0.43812112462E+02 -0.44688474352E+02  0.62838144741E+02  0.00000000000E+00 0. -1.
        -13    1    4    4    0    0  0.19799691775E+02  0.33353961648E+02  0.10777518742E+02  0.40257539197E+02  0.00000000000E+00 0.  1.
         13    1    4    4    0    0 -0.48062803958E+02  0.20515482482E+02 -0.64666403153E+02  0.83142419033E+02  0.00000000000E+00 0. -1.
          1    1    1    2  501    0 -0.59486302955E+02 -0.50167304446E+01 -0.28475850306E+03  0.29094878053E+03  0.00000000000E+00 0. -1.
<scales pt_clust_5="13000.00000" pt_clust_6="13000.00000" pt_clust_7="13000.00000" pt_clust_8="13000.00000" pt_clust_9="59.69750"></scales>
<clustering>
<clus scale="   59.697">  1  9  2 -1</clus>
<clus scale="   79.280">  5  6 -1 -1</clus>
<clus scale="   92.859">  7  8 -1 -1</clus>
<clus scale="  114.493">  2  5  1 -1</clus>
<clus scale="   59.697">  1  5  2 -1</clus>
</clustering>
</event>
<event>
 9    2  0.5615294E-005  0.1099883E+03  0.7546771E-02  0.1263190E+00
         21   -1    0    0  501  502  0.00000000000E+00  0.00000000000E+00  0.17531716970E+03  0.17531716970E+03  0.00000000000E+00 0.  1.
         -1   -1    0    0    0  501 -0.00000000000E+00 -0.00000000000E+00 -0.16294462105E+03  0.16294462105E+03  0.00000000000E+00 0.  1.
         24    2    1    2    0    0 -0.70417067119E+02 -0.40427381187E+02 -0.64399919902E+02  0.13052390578E+03  0.79348621950E+02 0.  0.
         23    2    1    2    0    0  0.34105828526E+02 -0.19056163024E+02  0.96508378391E+02  0.13530650906E+03  0.86415504428E+02 0.  0.
        -11    1    3    3    0    0 -0.50739407482E+02 -0.55360640994E+02 -0.72644300026E+02  0.10448197150E+03  0.00000000000E+00 0.  1.
         12    1    3    3    0    0 -0.19677659637E+02  0.14933259807E+02  0.82443801244E+01  0.26041934277E+02  0.00000000000E+00 0. -1.
        -11    1    4    4    0    0  0.59974354415E+02 -0.16975281173E+02  0.88307894526E+02  0.10808962760E+03  0.00000000000E+00 0.  1.
         11    1    4    4    0    0 -0.25868525889E+02 -0.20808818508E+01  0.82004838648E+01  0.27216881463E+02  0.00000000000E+00 0. -1.
         -2    1    1    2    0  502  0.36311238593E+02  0.59483544211E+02 -0.19735909840E+02  0.72431375917E+02  0.00000000000E+00 0.  1.
<scales pt_clust_5="13000.00000" pt_clust_6="13000.00000" pt_clust_7="13000.00000" pt_clust_8="13000.00000" pt_clust_9="69.69077"></scales>
<clustering>
<clus scale="   69.691">  1  9  2 -1</clus>
<clus scale="   79.349">  5  6 -1 -1</clus>
<clus scale="   86.416">  7  8 -1 -1</clus>
<clus scale="  104.527">  2  5  1 -1</clus>
<clus scale="   69.691">  1  5  2 -1</clus>
</clustering>
</event>
<event>
 9    2  0.5615294E-005  0.1178990E+03  0.7546771E-02  0.1247219E+00
          4   -1    0    0  502    0 -0.00000000000E+00  0.00000000000E+00  0.46223197212E+02  0.46223197212E+02  0.00000000000E+00 0. -1.
         21   -1    0    0  501  502  0.00000000000E+00 -0.00000000000E+00 -0.48317620978E+03  0.48317620978E+03  0.00000000000E+00 0.  1.
         24    2    1    2    0    0 -0.78162828594E+02  0.29408762177E+02 -0.75094701553E+02  0.14211946068E+03  0.87088597625E+02 0.  0.
         23    2    1    2    0    0  0.51147003468E+02 -0.29711524545E+02 -0.32075627766E+03  0.33809332600E+03  0.89015261435E+02 0.  0.
        -13    1    3    3    0    0 -0.22647335299E+02  0.16543110518E+02 -0.80143829528E+02  0.84909420639E+02  0.00000000000E+00 0.  1.
         14    1    3    3    0    0 -0.55515493295E+02  0.12865651659E+02  0.50491279747E+01  0.57210040043E+02  0.00000000000E+00 0. -1.
        -13    1    4    4    0    0  0.54654532763E+02 -0.49731911934E+02 -0.30029348751E+03  0.30925161222E+03  0.00000000000E+00 0.  1.
         13    1    4    4    0    0 -0.35075292958E+01  0.20020387389E+02 -0.20462790151E+02  0.28841713780E+02  0.00000000000E+00 0. -1.
          3    1    1    2  501    0  0.27015825126E+02  0.30276236796E+00 -0.41102033349E+02  0.49186620313E+02  0.00000000000E+00 0. -1.
<scales pt_clust_5="13000.00000" pt_clust_6="13000.00000" pt_clust_7="13000.00000" pt_clust_8="13000.00000" pt_clust_9="27.01752"></scales>
<clustering>
<clus scale="   27.018">  2  9  1 -1</clus>
<clus scale="   87.089">  5  6 -1 -1</clus>
<clus scale="   89.015">  7  8 -1 -1</clus>
<clus scale="  116.451">  1  5  2 -1</clus>
<clus scale="   27.018">  2  5  1 -1</clus>
</clustering>
</event>
<event>
 9    2  0.5615294E-005  0.3021911E+03  0.7546771E-02  0.1084519E+00
         21   -1    0    0  501  502  0.00000000000E+00  0.00000000000E+00  0.48436341086E+03  0.48436341086E+03  0.00000000000E+00 0.  1.
          2   -1    0    0  502    0 -0.00000000000E+00 -0.00000000000E+00 -0.43281278219E+03  0.43281278219E+03  0.00000000000E+00 0. -1.
         24    2    1    2    0    0  0.16916750120E+03 -0.22444742994E+03 -0.24527720290E+03  0.38168130669E+03  0.80780080102E+02 0.  0.
         23    2    1    2    0    0 -0.16703492074E+03  0.26382490405E+03  0.10822570813E+03  0.34281407690E+03  0.91128714887E+02 0.  0.
        -11    1    3    3    0    0  0.36961872000E+02 -0.11601582782E+02 -0.15545355764E+02  0.41742481845E+02  0.00000000000E+00 0.  1.
         12    1    3    3    0    0  0.13220562920E+03 -0.21284584716E+03 -0.22973184714E+03  0.33993882484E+03  0.00000000000E+00 0. -1.
        -13    1    4    4    0    0 -0.56957725007E+02  0.86795224879E+02  0.82831999229E+02  0.13281089412E+03  0.00000000000E+00 0.  1.
         13    1    4    4    0    0 -0.11007719574E+03  0.17702967917E+03  0.25393708905E+02  0.21000318278E+03  0.00000000000E+00 0. -1.
          1    1    1    2  501    0 -0.21325804629E+01 -0.39377474104E+02  0.18860212344E+03  0.19268080945E+03  0.00000000000E+00 0. -1.
<scales pt_clust_5="13000.00000" pt_clust_6="13000.00000" pt_clust_7="13000.00000" pt_clust_8="13000.00000" pt_clust_9="39.43518"></scales>
<clustering>
<clus scale="   39.435">  1  9  2 -1</clus>
<clus scale="   80.780">  5  6 -1 -1</clus>
<clus scale="   91.129">  7  8 -1 -1</clus>
<clus scale="  299.233">  2  5  1 -1</clus>
<clus scale="   39.435">  1  5  2 -1</clus>
</clustering>
</event>
<event>
 9    2  0.5615294E-005  0.1403721E+03  0.7546771E-02  0.1216289E+00
         21   -1    0    0  501  502  0.00000000000E+00  0.00000000000E+00  0.30144886483E+02  0.30144886483E+02  0.00000000000E+00 0. -1.
          2   -1    0    0  502    0 -0.00000000000E+00 -0.00000000000E+00 -0.15820223968E+04  0.15820223968E+04  0.00000000000E+00 0. -1.
         24    2    1    2    0    0 -0.34499681650E+02 -0.10064336830E+03 -0.10905464883E+04  0.10986818028E+04  0.80565159613E+02 0.  0.
         23    2    1    2    0    0 -0.16145372800E+02  0.10002699833E+03 -0.43417145012E+03  0.45601423727E+03  0.95802207888E+02 0.  0.
        -11    1    3    3    0    0 -0.10357666690E+02 -0.51720182365E+02 -0.21273810691E+03  0.21917974508E+03  0.00000000000E+00 0.  1.
         12    1    3    3    0    0 -0.24142014960E+02 -0.48923185931E+02 -0.87780838143E+03  0.87950205771E+03  0.00000000000E+00 0. -1.
        -11    1    4    4    0    0  0.16952955299E+02  0.94841310656E+02 -0.23398824742E+03  0.25304698542E+03  0.00000000000E+00 0.  1.
         11    1    4    4    0    0 -0.33098328099E+02  0.51856876725E+01 -0.20018320270E+03  0.20296725185E+03  0.00000000000E+00 0. -1.
          1    1    1    2  501    0  0.50645054450E+02  0.61636996757E+00 -0.27159571831E+02  0.57471243194E+02  0.00000000000E+00 0. -1.
<scales pt_clust_5="13000.00000" pt_clust_6="13000.00000" pt_clust_7="13000.00000" pt_clust_8="13000.00000" pt_clust_9="50.64881"></scales>
<clustering>
<clus scale="   50.649">  1  9  2 -1</clus>
<clus scale="   80.565">  5  6 -1 -1</clus>
<clus scale="   95.802">  7  8 -1 -1</clus>
<clus scale="  130.449">  2  5  1 -1</clus>
<clus scale="   50.649">  1  5  2 -1</clus>
</clustering>
</event>
<event>
 9    2  0.5615294E-005  0.1108804E+03  0.7546771E-02  0.1261824E+00
          2   -1    0    0  502    0 -0.00000000000E+00  0.00000000000E+00  0.48997224212E+02  0.48997224212E+02  0.00000000000E+00 0. -1.
         21   -1    0    0  501  502  0.00000000000E+00 -0.00000000000E+00 -0.51226941446E+03  0.51226941446E+03  0.00000000000E+00 0. -1.
         23    2    1    2    0    0  0.19934462231E+02  0.50737100010E+02 -0.78007934210E+02  0.13094626365E+03  0.89944705583E+02 0.  0.
         24    2    1    2    0    0 -0.57316319275E+02 -0.83172990706E+02 -0.33646391692E+03  0.36081524328E+03  0.82321112425E+02 0.  0.
        -11    1    4    4    0    0  0.23688377052E+01 -0.42516503425E+02 -0.21764363677E+03  0.22177018979E+03  0.00000000000E+00 0.  1.
         12    1    4    4    0    0 -0.59685156980E+02 -0.40656487281E+02 -0.11882028016E+03  0.13904505348E+03  0.00000000000E+00 0. -1.
        -11    1    3    3    0    0 -0.61315785899E+01  0.71543221991E+02 -0.52153810514E+02  0.88747105981E+02  0.00000000000E+00 0.  1.
         11    1    3    3    0    0  0.26066040821E+02 -0.20806121980E+02 -0.25854123696E+02  0.42199157670E+02  0.00000000000E+00 0. -1.
          1    1    1    2  501    0  0.37381857044E+02  0.32435890696E+02 -0.48800339116E+02  0.69505131746E+02  0.00000000000E+00 0. -1.
<scales pt_clust_5="13000.00000" pt_clust_6="13000.00000" pt_clust_7="13000.00000" pt_clust_8="13000.00000" pt_clust_9="49.49235"></scales>
<clustering>
<clus scale="   49.492">  2  9  1 -1</clus>
<clus scale="   82.321">  5  6 -1 -1</clus>
<clus scale="   89.945">  7  8 -1 -1</clus>
<clus scale="  104.791">  2  5  1 -1</clus>
<clus scale="   49.492">  2  5  1 -1</clus>
</clustering>
</event>
<event>
 9    2  0.5615294E-005  0.9475503E+02  0.7546771E-02  0.1296540E+00
          2   -1    0    0  502    0 -0.00000000000E+00  0.00000000000E+00  0.12599657707E+03  0.12599657707E+03  0.00000000000E+00 0. -1.
         21   -1    0    0  501  502  0.00000000000E+00 -0.00000000000E+00 -0.12075092167E+03  0.12075092167E+03  0.00000000000E+00 0. -1.
         24    2    1    2    0    0  0.51391498015E+02 -0.11230538824E+02  0.26614331830E+02  0.10028852692E+03  0.81131097015E+02 0.  0.
         23    2    1    2    0    0  0.83157135467E+00 -0.56471740423E+01 -0.15658957983E+02  0.91280107651E+02  0.89745601575E+02 0.  0.
        -11    1    3    3    0    0  0.45020808298E+01  0.24147550666E+02 -0.14561290038E+02  0.28555281518E+02  0.00000000000E+00 0.  1.
         12    1    3    3    0    0  0.46889417185E+02 -0.35378089490E+02  0.41175621868E+02  0.71733245404E+02  0.00000000000E+00 0. -1.
        -11    1    4    4    0    0  0.52435736420E+01 -0.37608111608E+02  0.20226648613E+02  0.43023045422E+02  0.00000000000E+00 0.  1.
         11    1    4    4    0    0 -0.44120022874E+01  0.31960937566E+02 -0.35885606595E+02  0.48257062229E+02  0.00000000000E+00 0. -1.
          1    1    1    2  501    0 -0.52223069369E+02  0.16877712866E+02 -0.57097184546E+01  0.55178864167E+02  0.00000000000E+00 0. -1.
<scales pt_clust_5="13000.00000" pt_clust_6="13000.00000" pt_clust_7="13000.00000" pt_clust_8="13000.00000" pt_clust_9="54.88266"></scales>
<clustering>
<clus scale="   54.883">  2  9  1 -1</clus>
<clus scale="   81.131">  5  6 -1 -1</clus>
<clus scale="   86.640">  1  5  2 -1</clus>
<clus scale="   89.746">  7  8 -1 -1</clus>
<clus scale="   54.883">  2  5  1 -1</clus>
</clustering>
</event>
<event>
 9    2  0.5615294E-005  0.1140787E+03  0.7546771E-02  0.1257359E+00
         21   -1    0    0  501  502  0.00000000000E+00  0.00000000000E+00  0.21657401093E+03  0.21657401093E+03  0.00000000000E+00 0.  1.
         -1   -1    0    0    0  501 -0.00000000000E+00 -0.00000000000E+00 -0.24732707125E+03  0.24732707125E+03  0.00000000000E+00 0.  1.
         24    2    1    2    0    0  0.47388731550E+02  0.46233219074E+02 -0.13962620067E+03  0.17473395658E+03  0.81567623745E+02 0.  0.
         23    2    1    2    0    0  0.65236948825E+02  0.16289280323E+02  0.12018311284E+03  0.15985540035E+03  0.81169996085E+02 0.  0.
        -13    1    3    3    0    0 -0.13564019911E+02  0.27698617426E+02 -0.13986185996E+02  0.33864575033E+02  0.00000000000E+00 0.  1.
         14    1    3    3    0    0  0.60952751461E+02  0.18534601648E+02 -0.12564001468E+03  0.14086938154E+03  0.00000000000E+00 0. -1.
        -13    1    4    4    0    0  0.73347306479E+02  0.37565532129E+02  0.89708191702E+02  0.12181361266E+03  0.00000000000E+00 0.  1.
         13    1    4    4    0    0 -0.81103576531E+01 -0.21276251806E+02  0.30474921139E+02  0.38041787689E+02  0.00000000000E+00 0. -1.
         -2    1    1    2    0  502 -0.11262568038E+03 -0.62522499397E+02 -0.11309972492E+02  0.12931172526E+03  0.00000000000E+00 0.  1.
<scales pt_clust_5="13000.00000" pt_clust_6="13000.00000" pt_clust_7="13000.00000" pt_clust_8="13000.00000" pt_clust_9="80.15850"></scales>
<clustering>
<clus scale="   81.170">  7  8 -1 -1</clus>
<clus scale="   81.568">  5  6 -1 -1</clus>
<clus scale="  105.055">  2  5  1 -1</clus>
<clus scale="   80.158">  1  9  2 -1</clus>
<clus scale="   80.158">  1  5  2 -1</clus>
</clustering>
</event>
<event>
 9    2  0.5615294E-005  0.1792934E+03  0.7546771E-02  0.1193643E+00
         -3   -1    0    0    0  501 -0.00000000000E+00  0.00000000000E+00  0.84798428352E+02  0.84798428352E+02  0.00000000000E+00 0.  1.
         21   -1    0    0  501  502  0.00000000000E+00 -0.00000000000E+00 -0.90350362880E+03  0.90350362880E+03  0.00000000000E+00 0.  1.
         24    2    1    2    0    0  0.54731965101E+02 -0.32027164896E+02 -0.84476657335E+01  0.10230658543E+03  0.79837003148E+02 0.  0.
         23    2    1    2    0    0  0.13052642557E+03  0.34120078523E+02 -0.47712461616E+03  0.50480969939E+03  0.94781884977E+02 0.  0.
        -11    1    3    3    0    0  0.30599500581E+02 -0.50360210998E+02  0.18488337963E+02  0.61760010753E+02  0.00000000000E+00 0.  1.
         12    1    3    3    0    0  0.24132464521E+02  0.18333046102E+02 -0.26936003697E+02  0.40546574681E+02  0.00000000000E+00 0. -1.
        -13    1    4    4    0    0  0.10646676667E+03  0.37693317378E+02 -0.46322482951E+03  0.47679471605E+03  0.00000000000E+00 0.  1.
         13    1    4    4    0    0  0.24059658904E+02 -0.35732388553E+01 -0.13899786651E+02  0.28014983339E+02  0.00000000000E+00 0. -1.
         -4    1    1    2    0  502 -0.18525839067E+03 -0.20929136269E+01 -0.33313291856E+03  0.38118577233E+03  0.00000000000E+00 0.  1.
<scales pt_clust_5="13000.00000" pt_clust_6="13000.00000" pt_clust_7="13000.00000" pt_clust_8="13000.00000" pt_clust_9="152.19250"></scales>
<clustering>
<clus scale="   79.837">  5  6 -1 -1</clus>
<clus scale="   94.782">  7  8 -1 -1</clus>
<clus scale="  101.957">  1  5  2 -1</clus>
<clus scale="  152.192">  2  9  1 -1</clus>
<clus scale="  152.192">  2  5  1 -1</clus>
</clustering>
</event>
<event>
 9    2  0.5615294E-005  0.1626876E+03  0.7546771E-02  0.1213399E+00
         21   -1    0    0  501  502  0.00000000000E+00  0.00000000000E+00  0.58941128830E+02  0.58941128830E+02  0.00000000000E+00 0.  1.
          2   -1    0    0  502    0 -0.00000000000E+00 -0.00000000000E+00 -0.80530253147E+03  0.80530253147E+03  0.00000000000E+00 0. -1.
         24    2    1    2    0    0  0.84614531442E+00 -0.40749263998E+02 -0.38298402599E+03  0.39320850246E+03  0.79214542673E+02 0.  0.
         23    2    1    2    0    0 -0.69838773202E+02  0.13708361290E+03 -0.19155770925E+03  0.26231935204E+03  0.91911453653E+02 0.  0.
        -13    1    3    3    0    0  0.37431778706E+02 -0.84428638772E+01 -0.20970294717E+03  0.21318476976E+03  0.00000000000E+00 0.  1.
         14    1    3    3    0    0 -0.36585633391E+02 -0.32306400120E+02 -0.17328107882E+03  0.18002373270E+03  0.00000000000E+00 0. -1.
        -13    1    4    4    0    0 -0.16002253429E+02  0.29699065552E+02  0.27828231210E+01  0.33850416748E+02  0.00000000000E+00 0. -1.
         13    1    4    4    0    0 -0.53836519772E+02  0.10738454735E+03 -0.19434053237E+03  0.22846893529E+03  0.00000000000E+00 0.  1.
          1    1    1    2  501    0  0.68992627887E+02 -0.96334348906E+02 -0.17181966740E+03  0.20871580579E+03  0.00000000000E+00 0. -1.
<scales pt_clust_5="13000.00000" pt_clust_6="13000.00000" pt_clust_7="13000.00000" pt_clust_8="13000.00000" pt_clust_9="134.23700"></scales>
<clustering>
<clus scale="   79.215">  5  6 -1 -1</clus>
<clus scale="   89.085">  2  5  1 -1</clus>
<clus scale="   91.911">  7  8 -1 -1</clus>
<clus scale="  134.237">  1  9  2 -1</clus>
<clus scale="  134.237">  1  5  2 -1</clus>
</clustering>
</event>
<event>
 9    2  0.5615294E-005  0.1017221E+03  0.7546771E-02  0.1280713E+00
         -1   -1    0    0    0  501 -0.00000000000E+00  0.00000000000E+00  0.10020010458E+03  0.10020010458E+03  0.00000000000E+00 0.  1.
         21   -1    0    0  501  502  0.00000000000E+00 -0.00000000000E+00 -0.14510104272E+03  0.14510104272E+03  0.00000000000E+00 0.  1.
         23    2    1    2    0    0 -0.17962300500E+02  0.47685063297E+02  0.21548307572E+02  0.10749037027E+03  0.92159322046E+02 0.  0.
         24    2    1    2    0    0  0.27270045132E+02 -0.20350105772E+02 -0.41092171038E+02  0.99381423026E+02  0.83846994910E+02 0.  0.
        -13    1    4    4    0    0 -0.22700515308E+01 -0.24938963860E+02 -0.59305413987E+02  0.64375749941E+02  0.00000000000E+00 0.  1.
         14    1    4    4    0    0  0.29540096663E+02  0.45888580877E+01  0.18213242948E+02  0.35005673084E+02  0.00000000000E+00 0. -1.
        -13    1    3    3    0    0 -0.27202078650E+02  0.59278071187E+01  0.49222353012E+02  0.56550260973E+02  0.00000000000E+00 0. -1.
         13    1    3    3    0    0  0.92397781494E+01  0.41757256179E+02 -0.27674045440E+02  0.50940109294E+02  0.00000000000E+00 0.  1.
         -2    1    1    2    0  502 -0.93077446317E+01 -0.27334957525E+02 -0.25357074674E+02  0.38429354003E+02  0.00000000000E+00 0.  1.
<scales pt_clust_5="13000.00000" pt_clust_6="13000.00000" pt_clust_7="13000.00000" pt_clust_8="13000.00000" pt_clust_9="28.87618"></scales>
<clustering>
<clus scale="   28.876">  2  9  1 -1</clus>
<clus scale="   83.847">  5  6 -1 -1</clus>
<clus scale="   92.159">  7  8 -1 -1</clus>
<clus scale="   94.257">  2  5  1 -1</clus>
<clus scale="   28.876">  2  5  1 -1</clus>
</clustering>
</event>
<event>
 9    2  0.5615294E-005  0.3606644E+03  0.7546771E-02  0.1111195E+00
          2   -1    0    0  502    0 -0.00000000000E+00  0.00000000000E+00  0.63387070189E+03  0.63387070189E+03  0.00000000000E+00 0. -1.
         21   -1    0    0  501  502  0.00000000000E+00 -0.00000000000E+00 -0.16187625386E+04  0.16187625386E+04  0.00000000000E+00 0. -1.
         24    2    1    2    0    0 -0.14729812085E+02 -0.29056406907E+02  0.26999425883E+03  0.28392406928E+03  0.81576560142E+02 0.  0.
         23    2    1    2    0    0 -0.30376513185E+03  0.17229812594E+03  0.24018737614E+03  0.43339099406E+03  0.90431623587E+02 0.  0.
        -11    1    3    3    0    0  0.27286972413E+02 -0.27838871933E+02  0.75841771058E+02  0.85273418433E+02  0.00000000000E+00 0.  1.
         12    1    3    3    0    0 -0.42016784498E+02 -0.12175349733E+01  0.19415248778E+03  0.19865065084E+03  0.00000000000E+00 0. -1.
        -13    1    4    4    0    0 -0.25399677225E+03  0.10206747700E+03  0.16911138396E+03  0.32176200888E+03  0.00000000000E+00 0.  1.
         13    1    4    4    0    0 -0.49768359598E+02  0.70230648932E+02  0.71075992179E+02  0.11162898517E+03  0.00000000000E+00 0. -1.
          1    1    1    2  501    0  0.31849494393E+03 -0.14324171903E+03 -0.14950734716E+04  0.15353181771E+04  0.00000000000E+00 0. -1.
<scales pt_clust_5="13000.00000" pt_clust_6="13000.00000" pt_clust_7="13000.00000" pt_clust_8="13000.00000" pt_clust_9="349.14311"></scales>
<clustering>
<clus scale="   81.577">  5  6 -1 -1</clus>
<clus scale="   87.841">  1  5  2 -1</clus>
<clus scale="   90.432">  7  8 -1 -1</clus>
<clus scale="  349.143">  2  9  1 -1</clus>
<clus scale="  349.143">  2  5  1 -1</clus>
</clustering>
</event>
<event>
 9    2  0.5615294E-005  0.1050115E+03  0.7546771E-02  0.1275699E+00
         21   -1    0    0  501  502  0.00000000000E+00  0.00000000000E+00  0.21293563668E+03  0.21293563668E+03  0.00000000000E+00 0.  1.
          2   -1    0    0  502    0 -0.00000000000E+00 -0.00000000000E+00 -0.12323632028E+03  0.12323632028E+03  0.00000000000E+00 0. -1.
         24    2    1    2    0    0  0.38997187989E+02  0.39313011203E+02 -0.57182145893E+01  0.97829366539E+02  0.80446214693E+02 0.  0.
         23    2    1    2    0    0  0.45377510163E+02 -0.63558970562E+02  0.20650884565E+02  0.12302993868E+03  0.92795719785E+02 0.  0.
        -13    1    3    3    0    0 -0.20106358346E+02  0.32415721014E+02 -0.29951372188E+01  0.38262454989E+02  0.00000000000E+00 0.  1.
         14    1    3    3    0    0  0.59103546335E+02  0.68972901891E+01 -0.27230773705E+01  0.59566911551E+02  0.00000000000E+00 0. -1.
        -11    1    4    4    0    0 -0.22653015491E+02 -0.17682983921E+02  0.28660448839E+02  0.40586553917E+02  0.00000000000E+00 0.  1.
         11    1    4    4    0    0  0.68030525654E+02 -0.45875986641E+02 -0.80095642735E+01  0.82443384762E+02  0.00000000000E+00 0. -1.
          1    1    1    2  501    0 -0.84374698152E+02  0.24245959359E+02  0.74766646430E+02  0.11531265174E+03  0.00000000000E+00 0. -1.
<scales pt_clust_5="13000.00000" pt_clust_6="13000.00000" pt_clust_7="13000.00000" pt_clust_8="13000.00000" pt_clust_9="87.78927"></scales>
<clustering>
<clus scale="   80.446">  5  6 -1 -1</clus>
<clus scale="   87.789">  1  9  2 -1</clus>
<clus scale="   92.796">  7  8 -1 -1</clus>
<clus scale="   94.276">  2  5  1 -1</clus>
<clus scale="   87.789">  1  5  2 -1</clus>
</clustering>
</event>
<event>
 9    2  0.5615294E-005  0.9480904E+02  0.7546771E-02  0.1296979E+00
         21   -1    0    0  501  502  0.00000000000E+00  0.00000000000E+00  0.60898321462E+02  0.60898321462E+02  0.00000000000E+00 0. -1.
         -1   -1    0    0    0  501 -0.00000000000E+00 -0.00000000000E+00 -0.30551976842E+03  0.30551976842E+03  0.00000000000E+00 0.  1.
         24    2    1    2    0    0 -0.29423794340E+02  0.62216339344E+01 -0.20624223747E+03  0.22362741570E+03  0.81048702237E+02 0.  0.
         23    2    1    2    0    0  0.22806560549E+02  0.31355438092E+02 -0.34836019815E+02  0.10447124936E+03  0.90539444244E+02 0.  0.
        -13    1    3    3    0    0 -0.52443886447E+02  0.15349952535E+02 -0.17733558396E+03  0.18556371307E+03  0.00000000000E+00 0.  1.
         14    1    3    3    0    0  0.23020092107E+02 -0.91283186004E+01 -0.28906653511E+02  0.38063702635E+02  0.00000000000E+00 0. -1.
        -13    1    4    4    0    0 -0.26684177092E+02 -0.91164189548E+00 -0.36672340084E+02  0.45362285273E+02  0.00000000000E+00 0.  1.
         13    1    4    4    0    0  0.49490737640E+02  0.32267079988E+02  0.18363202687E+01  0.59108964085E+02  0.00000000000E+00 0. -1.
         -2    1    1    2    0  502  0.66172337911E+01 -0.37577072027E+02 -0.35431896653E+01  0.38319424815E+02  0.00000000000E+00 0.  1.
<scales pt_clust_5="13000.00000" pt_clust_6="13000.00000" pt_clust_7="13000.00000" pt_clust_8="13000.00000" pt_clust_9="38.15526"></scales>
<clustering>
<clus scale="   38.155">  1  9  2 -1</clus>
<clus scale="   81.049">  5  6 -1 -1</clus>
<clus scale="   85.792">  2  5  1 -1</clus>
<clus scale="   90.539">  7  8 -1 -1</clus>
<clus scale="   38.155">  1  5  2 -1</clus>
</clustering>
</event>
<event>
 9    2  0.5615294E-005  0.2022118E+03  0.7546771E-02  0.1180615E+00
          2   -1    0    0  502    0 -0.00000000000E+00  0.00000000000E+00  0.76698874193E+03  0.76698874193E+03  0.00000000000E+00 0. -1.
         21   -1    0    0  501  502  0.00000000000E+00 -0.00000000000E+00 -0.12812346793E+03  0.12812346793E+03  0.00000000000E+00 0. -1.
         24    2    1    2    0    0 -0.30247567564E+02  0.36204449266E+02  0.38763853189E+03  0.39908902073E+03  0.82357377161E+02 0.  0.
         23    2    1    2    0    0 -0.74369908752E+02  0.14984624964E+03  0.36264841542E+02  0.19309036224E+03  0.89353049181E+02 0.  0.
        -13    1    3    3    0    0  0.22465603662E+02 -0.54289073911E+01  0.53712959709E+02  0.58474425384E+02  0.00000000000E+00 0.  1.
         14    1    3    3    0    0 -0.52713171226E+02  0.41633356657E+02  0.33392557218E+03  0.34061459535E+03  0.00000000000E+00 0. -1.
        -13    1    4    4    0    0 -0.69377330173E+02  0.52252322865E+02  0.39278882706E+02  0.95322346873E+02  0.00000000000E+00 0. -1.
         13    1    4    4    0    0 -0.49925785786E+01  0.97593926774E+02 -0.30140411638E+01  0.97768015363E+02  0.00000000000E+00 0.  1.
          1    1    1    2  501    0  0.10461747632E+03 -0.18605069890E+03  0.21496190057E+03  0.30293282689E+03  0.00000000000E+00 0. -1.
<scales pt_clust_5="13000.00000" pt_clust_6="13000.00000" pt_clust_7="13000.00000" pt_clust_8="13000.00000" pt_clust_9="181.39918"></scales>
<clustering>
<clus scale="   82.357">  5  6 -1 -1</clus>
<clus scale="   89.353">  7  8 -1 -1</clus>
<clus scale="   94.913">  1  5  2 -1</clus>
<clus scale="  181.399">  2  9  1 -1</clus>
<clus scale="  181.399">  2  5  1 -1</clus>
</clustering>
</event>
<event>
 9    2  0.5615294E-005  0.9183722E+02  0.7546771E-02  0.1304638E+00
          2   -1    0    0  502    0 -0.00000000000E+00  0.00000000000E+00  0.17742780585E+03  0.17742780585E+03  0.00000000000E+00 0. -1.
         21   -1    0    0  501  502  0.00000000000E+00 -0.00000000000E+00 -0.61674479926E+02  0.61674479926E+02  0.00000000000E+00 0.  1.
         24    2    1    2    0    0 -0.94190683432E+01  0.16299436539E+02  0.51628611091E+02  0.98285309008E+02  0.81486796500E+02 0.  0.
         23    2    1    2    0    0  0.54651693743E+01  0.12233904473E+02  0.32225197117E+02  0.97836003107E+02  0.91399582492E+02 0.  0.
        -13    1    3    3    0    0 -0.28794296756E+02  0.33569762675E+02  0.44654831545E+01  0.44452008184E+02  0.00000000000E+00 0.  1.
         14    1    3    3    0    0  0.19375228413E+02 -0.17270326137E+02  0.47163127936E+02  0.53833300824E+02  0.00000000000E+00 0. -1.
        -11    1    4    4    0    0 -0.41522919190E+02  0.17144629548E+02  0.12418314245E+02  0.46608000054E+02  0.00000000000E+00 0.  1.
         11    1    4    4    0    0  0.46988088564E+02 -0.49107250741E+01  0.19806882872E+02  0.51228003053E+02  0.00000000000E+00 0. -1.
          1    1    1    2  501    0  0.39538989689E+01 -0.28533341012E+02  0.31899517719E+02  0.42980973664E+02  0.00000000000E+00 0. -1.
<scales pt_clust_5="13000.00000" pt_clust_6="13000.00000" pt_clust_7="13000.00000" pt_clust_8="13000.00000" pt_clust_9="28.80600"></scales>
<clustering>
<clus scale="   28.806">  2  9  1 -1</clus>
<clus scale="   81.487">  5  6 -1 -1</clus>
<clus scale="   81.977">  1  5  2 -1</clus>
<clus scale="   91.400">  7  8 -1 -1</clus>
<clus scale="   28.806">  2  5  1 -1</clus>
</clustering>
</event>
<event>
 9    2  0.5615294E-005  0.9263619E+02  0.7546771E-02  0.1303118E+00
          2   -1    0    0  502    0 -0.00000000000E+00  0.00000000000E+00  0.20347452333E+03  0.20347452333E+03  0.00000000000E+00 0. -1.
         21   -1    0    0  501  502  0.00000000000E+00 -0.00000000000E+00 -0.93711225037E+02  0.93711225037E+02  0.00000000000E+00 0.  1.
         24    2    1    2    0    0  0.30214863834E+02  0.98659765203E+00  0.43389496977E+02  0.96988635415E+02  0.81303355283E+02 0.  0.
         23    2    1    2    0    0  0.41144819535E+02  0.31371369190E+02  0.15062470710E+02  0.10653764959E+03  0.91903937768E+02 0.  0.
        -13    1    3    3    0    0 -0.64766298730E+00  0.36533401181E+02  0.63456376826E+01  0.37086061894E+02  0.00000000000E+00 0.  1.
         14    1    3    3    0    0  0.30862526821E+02 -0.35546803529E+02  0.37043859295E+02  0.59902573520E+02  0.00000000000E+00 0. -1.
        -11    1    4    4    0    0 -0.16162129947E+02 -0.20630473924E+02 -0.48043021948E+01  0.26644177945E+02  0.00000000000E+00 0. -1.
         11    1    4    4    0    0  0.57306949482E+02  0.52001843114E+02  0.19866772905E+02  0.79893471647E+02  0.00000000000E+00 0.  1.
          1    1    1    2  501    0 -0.71359683369E+02 -0.32357966842E+02  0.51311330609E+02  0.93659463363E+02  0.00000000000E+00 0. -1.
<scales pt_clust_5="13000.00000" pt_clust_6="13000.00000" pt_clust_7="13000.00000" pt_clust_8="13000.00000" pt_clust_9="78.35336"></scales>
<clustering>
<clus scale="   78.353">  2  9  1 -1</clus>
<clus scale="   81.303">  5  6 -1 -1</clus>
<clus scale="   82.130">  1  5  2 -1</clus>
<clus scale="   91.904">  7  8 -1 -1</clus>
<clus scale="   78.353">  2  5  1 -1</clus>
</clustering>
</event>
<event>
 9    2  0.5615294E-005  0.2398073E+03  0.7546771E-02  0.1156111E+00
         21   -1    0    0  501  502  0.00000000000E+00  0.00000000000E+00  0.10626268824E+03  0.10626268824E+03  0.00000000000E+00 0.  1.
         -1   -1    0    0    0  501 -0.00000000000E+00 -0.00000000000E+00 -0.93822351571E+03  0.93822351571E+03  0.00000000000E+00 0.  1.
         24    2    1    2    0    0  0.23918818919E+02 -0.57448542077E+02 -0.34380005882E+03  0.35800311856E+03  0.78072450777E+02 0.  0.
         23    2    1    2    0    0 -0.22153219955E+03 -0.34030841928E+02 -0.15675334625E+03  0.28993497290E+03  0.96208436787E+02 0.  0.
        -11    1    3    3    0    0  0.43034254398E+02 -0.23215341920E+02 -0.10282395425E+03  0.11385809027E+03  0.00000000000E+00 0.  1.
         12    1    3    3    0    0 -0.19115435479E+02 -0.34233200157E+02 -0.24097610457E+03  0.24414502830E+03  0.00000000000E+00 0. -1.
        -13    1    4    4    0    0 -0.18273131755E+03  0.81727598806E+01 -0.13958479486E+03  0.23009007666E+03  0.00000000000E+00 0.  1.
         13    1    4    4    0    0 -0.38800881995E+02 -0.42203601808E+02 -0.17168551384E+02  0.59844896239E+02  0.00000000000E+00 0. -1.
         -2    1    1    2    0  502  0.19761338063E+03  0.91479384005E+02 -0.33140742239E+03  0.39654811249E+03  0.00000000000E+00 0.  1.
<scales pt_clust_5="13000.00000" pt_clust_6="13000.00000" pt_clust_7="13000.00000" pt_clust_8="13000.00000" pt_clust_9="219.66235"></scales>
<clustering>
<clus scale="   78.072">  5  6 -1 -1</clus>
<clus scale="   96.208">  7  8 -1 -1</clus>
<clus scale="   99.839">  2  5  1 -1</clus>
<clus scale="  219.662">  1  9  2 -1</clus>
<clus scale="  219.662">  1  5  2 -1</clus>
</clustering>
</event>
<event>
 9    2  0.5615294E-005  0.8802889E+02  0.7546771E-02  0.1310902E+00
          2   -1    0    0  502    0 -0.00000000000E+00  0.00000000000E+00  0.49111341994E+03  0.49111341994E+03  0.00000000000E+00 0. -1.
         21   -1    0    0  501  502  0.00000000000E+00 -0.00000000000E+00 -0.31223922845E+02  0.31223922845E+02  0.00000000000E+00 0.  1.
         23    2    1    2    0    0 -0.46499377301E+02  0.17909796629E+02  0.20026912460E+03  0.22313675774E+03  0.84848909732E+02 0.  0.
         24    2    1    2    0    0 -0.12720649352E+02 -0.48863637187E+01  0.10083175318E+03  0.12922868447E+03  0.79670063195E+02 0.  0.
        -13    1    4    4    0    0 -0.31826825704E+02  0.27325597172E+02  0.65239858354E+02  0.77562066845E+02  0.00000000000E+00 0.  1.
         14    1    4    4    0    0  0.19106176353E+02 -0.32211960891E+02  0.35591894830E+02  0.51666617625E+02  0.00000000000E+00 0. -1.
        -11    1    3    3    0    0 -0.25656285676E+02 -0.23944177837E+02  0.28773641833E+02  0.45381616447E+02  0.00000000000E+00 0.  1.
         11    1    3    3    0    0 -0.20843091625E+02  0.41853974467E+02  0.17149548277E+03  0.17775514130E+03  0.00000000000E+00 0. -1.
          1    1    1    2  501    0  0.59220026653E+02 -0.13023432911E+02  0.15878861931E+03  0.16997190057E+03  0.00000000000E+00 0. -1.
<scales pt_clust_5="13000.00000" pt_clust_6="13000.00000" pt_clust_7="13000.00000" pt_clust_8="13000.00000" pt_clust_9="60.63518"></scales>
<clustering>
<clus scale="   60.635">  2  9  1 -1</clus>
<clus scale="   79.670">  5  6 -1 -1</clus>
<clus scale="   83.049">  2  5  1 -1</clus>
<clus scale="   84.849">  7  8 -1 -1</clus>
<clus scale="   60.635">  2  5  1 -1</clus>
</clustering>
</event>
<event>
 9    2  0.5615294E-005  0.9263176E+02  0.7546771E-02  0.1302830E+00
          2   -1    0    0  502    0 -0.00000000000E+00  0.00000000000E+00  0.59954031825E+02  0.59954031825E+02  0.00000000000E+00 0. -1.
         21   -1    0    0  501  502  0.00000000000E+00 -0.00000000000E+00 -0.32262135770E+03  0.32262135770E+03  0.00000000000E+00 0. -1.
         24    2    1    2    0    0  0.24367922850E+02 -0.46029220937E+02 -0.10920944954E+03  0.14513432815E+03  0.80154753413E+02 0.  0.
         23    2    1    2    0    0 -0.56383544814E+01 -0.25737651182E+02 -0.12815570918E+03  0.15907346394E+03  0.90477971930E+02 0.  0.
        -13    1    3    3    0    0  0.18551482940E+02  0.20358998590E+02 -0.21293702789E+02  0.34814768724E+02  0.00000000000E+00 0.  1.
         14    1    3    3    0    0  0.58164399102E+01 -0.66388219527E+02 -0.87915746749E+02  0.11031955942E+03  0.00000000000E+00 0. -1.
        -13    1    4    4    0    0  0.36355883483E+02  0.98023135832E+01 -0.38270106944E+02  0.53688329280E+02  0.00000000000E+00 0.  1.
         13    1    4    4    0    0 -0.41994237964E+02 -0.35539964766E+02 -0.89885602239E+02  0.10538513466E+03  0.00000000000E+00 0. -1.
          1    1    1    2  501    0 -0.18729568369E+02  0.71766872119E+02 -0.25302167154E+02  0.78367597435E+02  0.00000000000E+00 0. -1.
<scales pt_clust_5="13000.00000" pt_clust_6="13000.00000" pt_clust_7="13000.00000" pt_clust_8="13000.00000" pt_clust_9="74.17066"></scales>
<clustering>
<clus scale="   74.171">  2  9  1 -1</clus>
<clus scale="   80.155">  5  6 -1 -1</clus>
<clus scale="   82.578">  1  5  2 -1</clus>
<clus scale="   90.478">  7  8 -1 -1</clus>
<clus scale="   74.171">  2  5  1 -1</clus>
</clustering>
</event>
<event>
 9    2  0.5615294E-005  0.1255401E+03  0.7546771E-02  0.1253923E+00
         -1   -1    0    0    0  501 -0.00000000000E+00  0.00000000000E+00  0.98887071377E+02  0.98887071377E+02  0.00000000000E+00 0.  1.
         21   -1    0    0  501  502  0.00000000000E+00 -0.00000000000E+00 -0.36921182894E+03  0.36921182894E+03  0.00000000000E+00 0.  1.
         24    2    1    2    0    0  0.22765774201E+02  0.11947549275E+02 -0.58315295982E+02  0.10256711250E+03  0.80363638626E+02 0.  0.
         23    2    1    2    0    0 -0.55352817853E+02  0.65891174724E+02  0.10826143479E+02  0.12725361162E+03  0.93116566391E+02 0.  0.
        -11    1    3    3    0    0  0.51283941073E+02  0.15313326237E+02 -0.48478512755E+02  0.72212926622E+02  0.00000000000E+00 0.  1.
         12    1    3    3    0    0 -0.28518166872E+02 -0.33657769613E+01 -0.98367832268E+01  0.30354185882E+02  0.00000000000E+00 0. -1.
        -11    1    4    4    0    0 -0.19514598903E+02  0.47898885989E+02  0.49464220973E+02  0.71566975664E+02  0.00000000000E+00 0.  1.
         11    1    4    4    0    0 -0.35838218950E+02  0.17992288735E+02 -0.38638077493E+02  0.55686635953E+02  0.00000000000E+00 0. -1.
         -2    1    1    2    0  502  0.32587043652E+02 -0.77838724000E+02 -0.22283560506E+03  0.23827817619E+03  0.00000000000E+00 0.  1.
<scales pt_clust_5="13000.00000" pt_clust_6="13000.00000" pt_clust_7="13000.00000" pt_clust_8="13000.00000" pt_clust_9="84.19992"></scales>
<clustering>
<clus scale="   80.364">  5  6 -1 -1</clus>
<clus scale="   84.376">  1  5  2 -1</clus>
<clus scale="   84.200">  2  9  1 -1</clus>
<clus scale="   93.117">  7  8 -1 -1</clus>
<clus scale="   84.200">  2  5  1 -1</clus>
</clustering>
</event>
<event>
 9    2  0.7175141E-005  0.9408737E+02  0.7546771E-02  0.1298556E+00
          4   -1    0    0  502    0 -0.00000000000E+00  0.00000000000E+00  0.25353198353E+03  0.25353198353E+03  0.00000000000E+00 0. -1.
         21   -1    0    0  501  502  0.00000000000E+00 -0.00000000000E+00 -0.19466910913E+03  0.19466910913E+03  0.00000000000E+00 0. -1.
         23    2    1    2    0    0 -0.18154322343E+02 -0.36079508366E+02  0.18627976206E+03  0.21077033126E+03  0.89959282141E+02 0.  0.
         24    2    1    2    0    0 -0.54101999252E+01 -0.38159900158E+01  0.19596639148E+02  0.83288247580E+02  0.80678819252E+02 0.  0.
        -11    1    4    4    0    0 -0.29884526857E+02  0.27326980858E+02  0.15908676477E+02  0.43507870731E+02  0.00000000000E+00 0.  1.
         12    1    4    4    0    0  0.24474326931E+02 -0.31142970874E+02  0.36879626714E+01  0.39780376849E+02  0.00000000000E+00 0. -1.
        -13    1    3    3    0    0 -0.20459015977E+02 -0.61129106506E+02  0.16720539071E+03  0.17920095334E+03  0.00000000000E+00 0. -1.
         13    1    3    3    0    0  0.23046936339E+01  0.25049598140E+02  0.19074371352E+02  0.31569377919E+02  0.00000000000E+00 0.  1.
          3    1    1    2  501    0  0.23564522268E+02  0.39895498381E+02 -0.14701352681E+03  0.15414251381E+03  0.00000000000E+00 0. -1.
<scales pt_clust_5="13000.00000" pt_clust_6="13000.00000" pt_clust_7="13000.00000" pt_clust_8="13000.00000" pt_clust_9="46.33506"></scales>
<clustering>
<clus scale="   46.335">  2  9  1 -1</clus>
<clus scale="   80.679">  5  6 -1 -1</clus>
<clus scale="   85.257">  2  5  1 -1</clus>
<clus scale="   89.959">  7  8 -1 -1</clus>
<clus scale="   46.335">  2  5  1 -1</clus>
</clustering>
</event>
<event>
 9    2  0.5615294E-005  0.1374113E+03  0.7546771E-02  0.1217248E+00
          2   -1    0    0  502    0 -0.00000000000E+00  0.00000000000E+00  0.11740224629E+04  0.11740224629E+04  0.00000000000E+00 0. -1.
         21   -1    0    0  501  502  0.00000000000E+00 -0.00000000000E+00 -0.36063372728E+02  0.36063372728E+02  0.00000000000E+00 0. -1.
         24    2    1    2    0    0  0.78049359767E+02  0.63607019628E+02  0.60920809639E+03  0.62264338379E+03  0.80079480330E+02 0.  0.
         23    2    1    2    0    0 -0.13721538777E+03 -0.26583182543E+02  0.46677475821E+03  0.49410201494E+03  0.81996329357E+02 0.  0.
        -11    1    3    3    0    0  0.26708968346E+02  0.10842444171E+01  0.42623125409E+02  0.50311781878E+02  0.00000000000E+00 0.  1.
         12    1    3    3    0    0  0.51340391421E+02  0.62522775211E+02  0.56658497098E+03  0.57233160191E+03  0.00000000000E+00 0. -1.
        -13    1    4    4    0    0 -0.50272683302E+02 -0.50030451356E+02  0.23416423860E+03  0.24466973534E+03  0.00000000000E+00 0.  1.
         13    1    4    4    0    0 -0.86942704464E+02  0.23447268813E+02  0.23261051961E+03  0.24943227960E+03  0.00000000000E+00 0. -1.
          1    1    1    2  501    0  0.59166028000E+02 -0.37023837085E+02  0.61976235529E+02  0.93340436854E+02  0.00000000000E+00 0. -1.
<scales pt_clust_5="13000.00000" pt_clust_6="13000.00000" pt_clust_7="13000.00000" pt_clust_8="13000.00000" pt_clust_9="69.79530"></scales>
<clustering>
<clus scale="   69.795">  2  9  1 -1</clus>
<clus scale="   80.079">  5  6 -1 -1</clus>
<clus scale="   81.996">  7  8 -1 -1</clus>
<clus scale="  136.276">  1  5  2 -1</clus>
<clus scale="   69.795">  2  5  1 -1</clus>
</clustering>
</event>
<event>
 9    2  0.5615294E-005  0.1164442E+03  0.7546771E-02  0.1253763E+00
         21   -1    0    0  501  502  0.00000000000E+00  0.00000000000E+00  0.27917613116E+03  0.27917613116E+03  0.00000000000E+00 0. -1.
         -1   -1    0    0    0  501 -0.00000000000E+00 -0.00000000000E+00 -0.98391532852E+02  0.98391532852E+02  0.00000000000E+00 0.  1.
         24    2    1    2    0    0 -0.61780029304E+02 -0.39534151626E+02 -0.40093972948E+02  0.11491434445E+03  0.78854668390E+02 0.  0.
         23    2    1    2    0    0  0.62553929763E+02  0.94007503425E+01  0.17687927767E+03  0.20931891575E+03  0.92340464497E+02 0.  0.
        -13    1    3    3    0    0 -0.64940696865E+02 -0.54508961240E+02 -0.48269745179E+02  0.97562745269E+02  0.00000000000E+00 0.  1.
         14    1    3    3    0    0  0.31606675611E+01  0.14974809614E+02  0.81757722307E+01  0.17351599176E+02  0.00000000000E+00 0. -1.
        -11    1    4    4    0    0  0.10409074846E+02  0.43082827511E+02  0.10718168492E+03  0.11598444917E+03  0.00000000000E+00 0.  1.
         11    1    4    4    0    0  0.52144854917E+02 -0.33682077169E+02  0.69697592750E+02  0.93334466581E+02  0.00000000000E+00 0. -1.
         -2    1    1    2    0  502 -0.77390045926E+00  0.30133401284E+02  0.43999293582E+02  0.53334403817E+02  0.00000000000E+00 0.  1.
<scales pt_clust_5="13000.00000" pt_clust_6="13000.00000" pt_clust_7="13000.00000" pt_clust_8="13000.00000" pt_clust_9="30.14334"></scales>
<clustering>
<clus scale="   30.143">  1  9  2 -1</clus>
<clus scale="   78.855">  5  6 -1 -1</clus>
<clus scale="   92.340">  7  8 -1 -1</clus>
<clus scale="  106.069">  2  5  1 -1</clus>
<clus scale="   30.143">  1  5  2 -1</clus>
</clustering>
</event>
<event>
 9    2  0.5615294E-005  0.1165936E+03  0.7546771E-02  0.1255695E+00
          2   -1    0    0  502    0 -0.00000000000E+00  0.00000000000E+00  0.30744432869E+03  0.30744432869E+03  0.00000000000E+00 0. -1.
         21   -1    0    0  501  502  0.00000000000E+00 -0.00000000000E+00 -0.12189499658E+03  0.12189499658E+03  0.00000000000E+00 0.  1.
         24    2    1    2    0    0 -0.56042874418E+02 -0.14596388214E+02  0.14455564183E+03  0.17674121062E+03  0.83589853584E+02 0.  0.
         23    2    1    2    0    0 -0.41842040130E+02 -0.40751204370E+02 -0.38019084660E+02  0.11516510878E+03  0.91684974246E+02 0.  0.
        -13    1    3    3    0    0  0.64454239923E+01  0.25048738188E+02  0.24002722593E+02  0.35286165379E+02  0.00000000000E+00 0.  1.
         14    1    3    3    0    0 -0.62488298410E+02 -0.39645126403E+02  0.12055291924E+03  0.14145504524E+03  0.00000000000E+00 0. -1.
        -13    1    4    4    0    0  0.20149380122E+02  0.11373640502E+02 -0.23315829922E+02  0.32847909257E+02  0.00000000000E+00 0. -1.
         13    1    4    4    0    0 -0.61991420252E+02 -0.52124844871E+02 -0.14703254737E+02  0.82317199525E+02  0.00000000000E+00 0.  1.
          1    1    1    2  501    0  0.97884914548E+02  0.55347592584E+02  0.79012774933E+02  0.13743300587E+03  0.00000000000E+00 0. -1.
<scales pt_clust_5="13000.00000" pt_clust_6="13000.00000" pt_clust_7="13000.00000" pt_clust_8="13000.00000" pt_clust_9="72.02734"></scales>
<clustering>
<clus scale="   83.590">  5  6 -1 -1</clus>
<clus scale="   91.685">  7  8 -1 -1</clus>
<clus scale="  101.691">  1  5  2 -1</clus>
<clus scale="   72.027">  2  9  1 -1</clus>
<clus scale="   72.027">  2  5  1 -1</clus>
</clustering>
</event>
<event>
 9    2  0.5615294E-005  0.1507541E+03  0.7546771E-02  0.1200059E+00
         21   -1    0    0  501  502  0.00000000000E+00  0.00000000000E+00  0.10730644345E+03  0.10730644345E+03  0.00000000000E+00 0.  1.
         -1   -1    0    0    0  501 -0.00000000000E+00 -0.00000000000E+00 -0.11725388792E+04  0.11725388792E+04  0.00000000000E+00 0.  1.
         24    2    1    2    0    0 -0.10148258740E+03  0.19907401996E+01 -0.49681907869E+03  0.51484957138E+03  0.89096608295E+02 0.  0.
         23    2    1    2    0    0  0.13199135488E+03  0.10373613159E+03 -0.61604996375E+03  0.64508660810E+03  0.91849177170E+02 0.  0.
        -11    1    3    3    0    0 -0.95805802592E+02  0.28648287528E+02 -0.30179848915E+03  0.31793364754E+03  0.00000000000E+00 0.  1.
         12    1    3    3    0    0 -0.56767848044E+01 -0.26657547328E+02 -0.19502058955E+03  0.19691592384E+03  0.00000000000E+00 0. -1.
        -13    1    4    4    0    0  0.47517659485E+02  0.59125278859E+02 -0.42238613896E+03  0.42914307281E+03  0.00000000000E+00 0.  1.
         13    1    4    4    0    0  0.84473695400E+02  0.44610852730E+02 -0.19366382480E+03  0.21594353528E+03  0.00000000000E+00 0. -1.
         -2    1    1    2    0  502 -0.30508767489E+02 -0.10572687179E+03  0.47636606721E+02  0.11990914315E+03  0.00000000000E+00 0.  1.
<scales pt_clust_5="13000.00000" pt_clust_6="13000.00000" pt_clust_7="13000.00000" pt_clust_8="13000.00000" pt_clust_9="110.04070"></scales>
<clustering>
<clus scale="   89.097">  5  6 -1 -1</clus>
<clus scale="   91.849">  7  8 -1 -1</clus>
<clus scale="  110.041">  1  9  2 -1</clus>
<clus scale="  149.093">  2  5  1 -1</clus>
<clus scale="  110.041">  1  5  2 -1</clus>
</clustering>
</event>
<event>
 9    2  0.5615294E-005  0.1698494E+03  0.7546771E-02  0.1211670E+00
          2   -1    0    0  502    0 -0.00000000000E+00  0.00000000000E+00  0.57735155092E+03  0.57735155092E+03  0.00000000000E+00 0. -1.
         21   -1    0    0  501  502  0.00000000000E+00 -0.00000000000E+00 -0.86275046428E+02  0.86275046428E+02  0.00000000000E+00 0. -1.
         24    2    1    2    0    0  0.61943468672E+00 -0.36639026022E+01  0.79218901452E+01  0.81600274508E+02  0.81129776128E+02 0.  0.
         23    2    1    2    0    0  0.26545706368E+02 -0.14033604398E+03  0.18796568682E+03  0.25246535361E+03  0.89491762673E+02 0.  0.
        -13    1    3    3    0    0  0.23537831893E+02 -0.66470288503E+01  0.37063579997E+02  0.44406322578E+02  0.00000000000E+00 0.  1.
         14    1    3    3    0    0 -0.22918397206E+02  0.29831262481E+01 -0.29141689851E+02  0.37193951929E+02  0.00000000000E+00 0. -1.
        -13    1    4    4    0    0 -0.22846645960E+02 -0.18353700519E+02  0.96685907887E+01  0.30859507485E+02  0.00000000000E+00 0.  1.
         13    1    4    4    0    0  0.49392352328E+02 -0.12198234346E+03  0.17829709603E+03  0.22160584613E+03  0.00000000000E+00 0. -1.
          1    1    1    2  501    0 -0.27165141054E+02  0.14399994658E+03  0.29518892753E+03  0.32956096923E+03  0.00000000000E+00 0. -1.
<scales pt_clust_5="13000.00000" pt_clust_6="13000.00000" pt_clust_7="13000.00000" pt_clust_8="13000.00000" pt_clust_9="144.36088"></scales>
<clustering>
<clus scale="   81.130">  5  6 -1 -1</clus>
<clus scale="   81.215">  1  5  2 -1</clus>
<clus scale="   89.492">  7  8 -1 -1</clus>
<clus scale="  144.361">  2  9  1 -1</clus>
<clus scale="  144.361">  2  5  1 -1</clus>
</clustering>
</event>
<event>
 9    2  0.5615294E-005  0.2160034E+03  0.7546771E-02  0.1137702E+00
          2   -1    0    0  502    0 -0.00000000000E+00  0.00000000000E+00  0.25615556430E+03  0.25615556430E+03  0.00000000000E+00 0. -1.
         21   -1    0    0  501  502  0.00000000000E+00 -0.00000000000E+00 -0.33009941635E+03  0.33009941635E+03  0.00000000000E+00 0. -1.
         24    2    1    2    0    0  0.36441154919E+02  0.18152796438E+03 -0.58359200936E+02  0.21009967790E+03  0.80347487195E+02 0.  0.
         23    2    1    2    0    0 -0.10901683194E+03 -0.18773412776E+03 -0.10765041063E+03  0.25875918086E+03  0.90768553999E+02 0.  0.
        -13    1    3    3    0    0  0.32965008768E+02  0.13781113998E+03 -0.60346777434E+01  0.14182742838E+03  0.00000000000E+00 0.  1.
         14    1    3    3    0    0  0.34761461508E+01  0.43716824394E+02 -0.52324523192E+02  0.68272249519E+02  0.00000000000E+00 0. -1.
        -13    1    4    4    0    0 -0.43423141399E+02 -0.85648786151E+02 -0.97729221942E+02  0.13701198707E+03  0.00000000000E+00 0.  1.
         13    1    4    4    0    0 -0.65593690542E+02 -0.10208534161E+03 -0.99211886881E+01  0.12174719379E+03  0.00000000000E+00 0. -1.
          1    1    1    2  501    0  0.72575677022E+02  0.62061633882E+01  0.92065759512E+02  0.11739612189E+03  0.00000000000E+00 0. -1.
<scales pt_clust_5="13000.00000" pt_clust_6="13000.00000" pt_clust_7="13000.00000" pt_clust_8="13000.00000" pt_clust_9="72.84058"></scales>
<clustering>
<clus scale="   72.841">  2  9  1 -1</clus>
<clus scale="   80.347">  5  6 -1 -1</clus>
<clus scale="   90.769">  7  8 -1 -1</clus>
<clus scale="  211.835">  1  5  2 -1</clus>
<clus scale="   72.841">  2  5  1 -1</clus>
</clustering>
</event>
<event>
 9    2  0.5615294E-005  0.1389292E+03  0.7546771E-02  0.1232069E+00
          2   -1    0    0  502    0 -0.00000000000E+00  0.00000000000E+00  0.44843257063E+02  0.44843257063E+02  0.00000000000E+00 0. -1.
         21   -1    0    0  501  502  0.00000000000E+00 -0.00000000000E+00 -0.93920808177E+03  0.93920808177E+03  0.00000000000E+00 0.  1.
         24    2    1    2    0    0 -0.14042657776E+02 -0.58352901689E+02 -0.14288105004E+03  0.17260068704E+03  0.75985165214E+02 0.  0.
         23    2    1    2    0    0  0.34740669012E+02 -0.47376789798E+02 -0.99637140501E+02  0.15076070197E+03  0.96694132166E+02 0.  0.
        -13    1    3    3    0    0  0.52560519719E+01 -0.55340861865E+02 -0.14261530859E+03  0.15306653232E+03  0.00000000000E+00 0.  1.
         14    1    3    3    0    0 -0.19298709748E+02 -0.30120398235E+01 -0.26574145200E+00  0.19534154713E+02  0.00000000000E+00 0. -1.
        -11    1    4    4    0    0 -0.32040640109E+02 -0.79895029187E+01 -0.45410877415E+02  0.56147863388E+02  0.00000000000E+00 0. -1.
         11    1    4    4    0    0  0.66781309121E+02 -0.39387286880E+02 -0.54226263087E+02  0.94612838579E+02  0.00000000000E+00 0.  1.
          1    1    1    2  501    0 -0.20698011235E+02  0.10572969149E+03 -0.65184663417E+03  0.66068994983E+03  0.00000000000E+00 0. -1.
<scales pt_clust_5="13000.00000" pt_clust_6="13000.00000" pt_clust_7="13000.00000" pt_clust_8="13000.00000" pt_clust_9="99.75755"></scales>
<clustering>
<clus scale="   75.985">  5  6 -1 -1</clus>
<clus scale="   96.694">  7  8 -1 -1</clus>
<clus scale="   96.830">  1  5  2 -1</clus>
<clus scale="   99.758">  2  9  1 -1</clus>
<clus scale="   99.758">  2  5  1 -1</clus>
</clustering>
</event>
<event>
 9    2  0.5615294E-005  0.9809455E+02  0.7546771E-02  0.1289771E+00
         -1   -1    0    0    0  501 -0.00000000000E+00  0.00000000000E+00  0.66417726901E+02  0.66417726901E+02  0.00000000000E+00 0.  1.
         21   -1    0    0  501  502  0.00000000000E+00 -0.00000000000E+00 -0.23047279074E+03  0.23047279074E+03  0.00000000000E+00 0. -1.
         24    2    1    2    0    0  0.30079650894E+02 -0.30914921531E+02 -0.83984976348E+01  0.91611428165E+02  0.80384085718E+02 0.  0.
         23    2    1    2    0    0 -0.15778038941E+02  0.91359062495E+01 -0.15335022582E+03  0.17912223919E+03  0.90752815477E+02 0.  0.
        -13    1    3    3    0    0  0.16699942858E+02 -0.54010631479E+02  0.12274279246E+02  0.57850620872E+02  0.00000000000E+00 0.  1.
         14    1    3    3    0    0  0.13379708036E+02  0.23095709948E+02 -0.20672776881E+02  0.33760807293E+02  0.00000000000E+00 0. -1.
        -13    1    4    4    0    0  0.37926164218E+02  0.15772838744E+01 -0.71162593050E+02  0.80653557927E+02  0.00000000000E+00 0. -1.
         13    1    4    4    0    0 -0.53704203158E+02  0.75586223751E+01 -0.82187632769E+02  0.98468681261E+02  0.00000000000E+00 0.  1.
         -2    1    1    2    0  502 -0.14301611953E+02  0.21779015281E+02 -0.23063403862E+01  0.26156850289E+02  0.00000000000E+00 0.  1.
<scales pt_clust_5="13000.00000" pt_clust_6="13000.00000" pt_clust_7="13000.00000" pt_clust_8="13000.00000" pt_clust_9="26.05499"></scales>
<clustering>
<clus scale="   26.055">  2  9  1 -1</clus>
<clus scale="   80.384">  5  6 -1 -1</clus>
<clus scale="   88.589">  1  5  2 -1</clus>
<clus scale="   90.753">  7  8 -1 -1</clus>
<clus scale="   26.055">  2  5  1 -1</clus>
</clustering>
</event>
<event>
 9    2  0.5615294E-005  0.1218751E+03  0.7546771E-02  0.1242881E+00
         21   -1    0    0  501  502  0.00000000000E+00  0.00000000000E+00  0.32084097067E+03  0.32084097067E+03  0.00000000000E+00 0.  1.
          2   -1    0    0  502    0 -0.00000000000E+00 -0.00000000000E+00 -0.17124299102E+03  0.17124299102E+03  0.00000000000E+00 0. -1.
         23    2    1    2    0    0  0.49748957364E+02  0.57784470123E+02 -0.92225876934E+02  0.15063524320E+03  0.91495138511E+02 0.  0.
         24    2    1    2    0    0 -0.84051736657E+02 -0.47654482790E+02  0.35041044495E+02  0.13159536807E+03  0.82181639884E+02 0.  0.
        -11    1    4    4    0    0 -0.71048008853E+02 -0.20899679379E+02 -0.12901637580E+02  0.75173588529E+02  0.00000000000E+00 0.  1.
         12    1    4    4    0    0 -0.13003727804E+02 -0.26754803410E+02  0.47942682075E+02  0.56421779544E+02  0.00000000000E+00 0. -1.
        -13    1    3    3    0    0 -0.25422166459E+02  0.24023084382E+02 -0.39716696703E+02  0.52922690103E+02  0.00000000000E+00 0. -1.
         13    1    3    3    0    0  0.75171123823E+02  0.33761385741E+02 -0.52509180231E+02  0.97712553096E+02  0.00000000000E+00 0.  1.
          1    1    1    2  501    0  0.34302779293E+02 -0.10129987333E+02  0.20678281209E+03  0.20985335043E+03  0.00000000000E+00 0. -1.
<scales pt_clust_5="13000.00000" pt_clust_6="13000.00000" pt_clust_7="13000.00000" pt_clust_8="13000.00000" pt_clust_9="35.76727"></scales>
<clustering>
<clus scale="   35.767">  1  9  2 -1</clus>
<clus scale="   82.182">  5  6 -1 -1</clus>
<clus scale="   91.495">  7  8 -1 -1</clus>
<clus scale="  115.048">  1  5  2 -1</clus>
<clus scale="   35.767">  1  5  2 -1</clus>
</clustering>
</event>
<event>
 9    2  0.5615294E-005  0.1064406E+03  0.7546771E-02  0.1274280E+00
          2   -1    0    0  502    0 -0.00000000000E+00  0.00000000000E+00  0.26231797183E+03  0.26231797183E+03  0.00000000000E+00 0. -1.
         21   -1    0    0  501  502  0.00000000000E+00 -0.00000000000E+00 -0.11458517756E+03  0.11458517756E+03  0.00000000000E+00 0. -1.
         24    2    1    2    0    0 -0.58815311648E+02  0.99775988759E+01  0.14715939791E+03  0.17734021587E+03  0.78961195599E+02 0.  0.
         23    2    1    2    0    0 -0.66850013020E+01  0.12053981445E+02 -0.55680614536E+02  0.11045516017E+03  0.94392922736E+02 0.  0.
        -13    1    3    3    0    0 -0.25230591186E+02 -0.29908159062E+02  0.30680227880E+02  0.49722802544E+02  0.00000000000E+00 0.  1.
         14    1    3    3    0    0 -0.33584720462E+02  0.39885757938E+02  0.11647917003E+03  0.12761741333E+03  0.00000000000E+00 0. -1.
        -11    1    4    4    0    0  0.25575911671E+02  0.20194708857E+02  0.12249871335E+02  0.34813975231E+02  0.00000000000E+00 0.  1.
         11    1    4    4    0    0 -0.32260912973E+02 -0.81407274117E+01 -0.67930485872E+02  0.75641184942E+02  0.00000000000E+00 0. -1.
          1    1    1    2  501    0  0.65500312950E+02 -0.22031580321E+02  0.56254010898E+02  0.89107773343E+02  0.00000000000E+00 0. -1.
<scales pt_clust_5="13000.00000" pt_clust_6="13000.00000" pt_clust_7="13000.00000" pt_clust_8="13000.00000" pt_clust_9="69.10634"></scales>
<clustering>
<clus scale="   69.106">  2  9  1 -1</clus>
<clus scale="   78.961">  5  6 -1 -1</clus>
<clus scale="   93.029">  1  5  2 -1</clus>
<clus scale="   94.393">  7  8 -1 -1</clus>
<clus scale="   69.106">  2  5  1 -1</clus>
</clustering>
</event>
<event>
 9    2  0.5615294E-005  0.1483931E+03  0.7546771E-02  0.1228931E+00
         21   -1    0    0  501  502  0.00000000000E+00  0.00000000000E+00  0.86299834103E+02  0.86299834103E+02  0.00000000000E+00 0. -1.
          2   -1    0    0  502    0 -0.00000000000E+00 -0.00000000000E+00 -0.72809728109E+03  0.72809728109E+03  0.00000000000E+00 0. -1.
         24    2    1    2    0    0  0.27003481022E+02  0.61868053760E+01 -0.35298421206E+03  0.36302141143E+03  0.80120076415E+02 0.  0.
         23    2    1    2    0    0 -0.12454442914E+01 -0.11987746970E+03 -0.29840360804E+03  0.33440981615E+03  0.91722696065E+02 0.  0.
        -13    1    3    3    0    0 -0.20023755425E+02  0.21072358871E+01 -0.27232611693E+02  0.33867482399E+02  0.00000000000E+00 0.  1.
         14    1    3    3    0    0  0.47027236447E+02  0.40795694890E+01 -0.32575160037E+03  0.32915392903E+03  0.00000000000E+00 0. -1.
        -11    1    4    4    0    0  0.29145356342E+02 -0.20493752425E+02 -0.14361654107E+03  0.14797012047E+03  0.00000000000E+00 0.  1.
         11    1    4    4    0    0 -0.30390800634E+02 -0.99383717271E+02 -0.15478706697E+03  0.18643969568E+03  0.00000000000E+00 0. -1.
          1    1    1    2  501    0 -0.25758036731E+02  0.11369066432E+03  0.95903731092E+01  0.11696588762E+03  0.00000000000E+00 0. -1.
<scales pt_clust_5="13000.00000" pt_clust_6="13000.00000" pt_clust_7="13000.00000" pt_clust_8="13000.00000" pt_clust_9="116.65104"></scales>
<clustering>
<clus scale="   80.120">  5  6 -1 -1</clus>
<clus scale="   84.774">  2  5  1 -1</clus>
<clus scale="   91.723">  7  8 -1 -1</clus>
<clus scale="  116.651">  1  9  2 -1</clus>
<clus scale="  116.651">  1  5  2 -1</clus>
</clustering>
</event>
<event>
 9    2  0.5615294E-005  0.5293238E+03  0.7546771E-02  0.1006396E+00
          2   -1    0    0  502    0 -0.00000000000E+00  0.00000000000E+00  0.18867648205E+03  0.18867648205E+03  0.00000000000E+00 0. -1.
         21   -1    0    0  501  502  0.00000000000E+00 -0.00000000000E+00 -0.13316301520E+04  0.13316301520E+04  0.00000000000E+00 0.  1.
         24    2    1    2    0    0  0.25506596762E+03  0.95122566182E+02 -0.56319629314E+03  0.63072748094E+03  0.80747384891E+02 0.  0.
         23    2    1    2    0    0  0.19170016880E+03 -0.71703923044E+02 -0.22452548650E+03  0.31831904652E+03  0.94999547326E+02 0.  0.
        -13    1    3    3    0    0  0.18581574316E+03  0.94091609128E+02 -0.47445827259E+03  0.51816153248E+03  0.00000000000E+00 0.  1.
         14    1    3    3    0    0  0.69250224463E+02  0.10309570541E+01 -0.88738020546E+02  0.11256594845E+03  0.00000000000E+00 0. -1.
        -13    1    4    4    0    0  0.62387678782E+01 -0.32872484112E+02 -0.53307348992E+02  0.62938032166E+02  0.00000000000E+00 0. -1.
         13    1    4    4    0    0  0.18546140092E+03 -0.38831438932E+02 -0.17121813751E+03  0.25538101436E+03  0.00000000000E+00 0.  1.
          1    1    1    2  501    0 -0.44676613642E+03 -0.23418643137E+02 -0.35523189034E+03  0.57126010662E+03  0.00000000000E+00 0. -1.
<scales pt_clust_5="13000.00000" pt_clust_6="13000.00000" pt_clust_7="13000.00000" pt_clust_8="13000.00000" pt_clust_9="447.37972"></scales>
<clustering>
<clus scale="   80.747">  5  6 -1 -1</clus>
<clus scale="   95.000">  7  8 -1 -1</clus>
<clus scale="  210.677">  5  7 -1 -1</clus>
<clus scale="  447.380">  2  9  1 -1</clus>
<clus scale="  447.380">  2  5  1 -1</clus>
</clustering>
</event>
<event>
 9    2  0.5615294E-005  0.9201016E+02  0.7546771E-02  0.1302043E+00
         21   -1    0    0  501  502  0.00000000000E+00  0.00000000000E+00  0.19420023037E+03  0.19420023037E+03  0.00000000000E+00 0. -1.
          2   -1    0    0  502    0 -0.00000000000E+00 -0.00000000000E+00 -0.93297060259E+02  0.93297060259E+02  0.00000000000E+00 0. -1.
         24    2    1    2    0    0  0.28857666644E+02 -0.22356740716E+02 -0.23010377562E+02  0.91366568424E+02  0.80534362669E+02 0.  0.
         23    2    1    2    0    0  0.16537864264E+02  0.29977042295E+02  0.43507380497E+02  0.10348097886E+03  0.87425950427E+02 0.  0.
        -13    1    3    3    0    0 -0.71709740823E+01  0.26634119113E+02 -0.61479889658E+01  0.28259457506E+02  0.00000000000E+00 0.  1.
         14    1    3    3    0    0  0.36028640726E+02 -0.48990859828E+02 -0.16862388596E+02  0.63107110918E+02  0.00000000000E+00 0. -1.
        -11    1    4    4    0    0  0.38514420974E+02 -0.16669724077E+02  0.15042494296E+02  0.44581576446E+02  0.00000000000E+00 0. -1.
         11    1    4    4    0    0 -0.21976556710E+02  0.46646766372E+02  0.28464886202E+02  0.58899402410E+02  0.00000000000E+00 0.  1.
          1    1    1    2  501    0 -0.45395530908E+02 -0.76203015792E+01  0.80406167172E+02  0.92649743345E+02  0.00000000000E+00 0. -1.
<scales pt_clust_5="13000.00000" pt_clust_6="13000.00000" pt_clust_7="13000.00000" pt_clust_8="13000.00000" pt_clust_9="46.03068"></scales>
<clustering>
<clus scale="   46.031">  1  9  2 -1</clus>
<clus scale="   80.534">  5  6 -1 -1</clus>
<clus scale="   85.489">  2  5  1 -1</clus>
<clus scale="   87.426">  7  8 -1 -1</clus>
<clus scale="   46.031">  1  5  2 -1</clus>
</clustering>
</event>
<event>
 9    2  0.5615294E-005  0.9357814E+02  0.7546771E-02  0.1301932E+00
          2   -1    0    0  502    0 -0.00000000000E+00  0.00000000000E+00  0.83005112536E+03  0.83005112536E+03  0.00000000000E+00 0. -1.
         21   -1    0    0  501  502  0.00000000000E+00 -0.00000000000E+00 -0.84697956427E+02  0.84697956427E+02  0.00000000000E+00 0.  1.
         24    2    1    2    0    0 -0.10514545673E+02 -0.10171702934E+02  0.74899841913E+03  0.75338466558E+03  0.79848627142E+02 0.  0.
         23    2    1    2    0    0  0.37188355134E+02  0.13209043437E+02  0.41739177794E+02  0.10863431235E+03  0.92205218244E+02 0.  0.
        -11    1    3    3    0    0  0.26927940889E+02  0.15424608053E+02  0.18684635790E+03  0.18940589747E+03  0.00000000000E+00 0.  1.
         12    1    3    3    0    0 -0.37442486562E+02 -0.25596310987E+02  0.56215206123E+03  0.56397876811E+03  0.00000000000E+00 0. -1.
        -11    1    4    4    0    0  0.62748365350E+02  0.29609523224E+02  0.23743706357E+02  0.73333790378E+02  0.00000000000E+00 0.  1.
         11    1    4    4    0    0 -0.25560010216E+02 -0.16400479786E+02  0.17995471437E+02  0.35300521975E+02  0.00000000000E+00 0. -1.
          1    1    1    2  501    0 -0.26673809461E+02 -0.30373405038E+01 -0.45384427992E+02  0.52730103856E+02  0.00000000000E+00 0. -1.
<scales pt_clust_5="13000.00000" pt_clust_6="13000.00000" pt_clust_7="13000.00000" pt_clust_8="13000.00000" pt_clust_9="26.84618"></scales>
<clustering>
<clus scale="   26.846">  2  9  1 -1</clus>
<clus scale="   79.849">  5  6 -1 -1</clus>
<clus scale="   81.430">  1  5  2 -1</clus>
<clus scale="   92.205">  7  8 -1 -1</clus>
<clus scale="   26.846">  2  5  1 -1</clus>
</clustering>
</event>
<event>
 9    2  0.5615294E-005  0.9638038E+02  0.7546771E-02  0.1295788E+00
          2   -1    0    0  502    0 -0.00000000000E+00  0.00000000000E+00  0.84908031046E+03  0.84908031046E+03  0.00000000000E+00 0. -1.
         21   -1    0    0  501  502  0.00000000000E+00 -0.00000000000E+00 -0.22145121141E+03  0.22145121141E+03  0.00000000000E+00 0. -1.
         24    2    1    2    0    0  0.24327298122E+02  0.60215086824E+01  0.69418918187E+03  0.69920041880E+03  0.79715302282E+02 0.  0.
         23    2    1    2    0    0 -0.28877376459E+02  0.55120129225E+02  0.12638720049E+03  0.16887701633E+03  0.93132114125E+02 0.  0.
        -13    1    3    3    0    0  0.14130848186E+02 -0.24837454772E+02  0.96849139288E+02  0.10097690731E+03  0.00000000000E+00 0.  1.
         14    1    3    3    0    0  0.10196449935E+02  0.30858963454E+02  0.59734004258E+03  0.59822351148E+03  0.00000000000E+00 0. -1.
        -13    1    4    4    0    0 -0.48947857242E+02  0.13141504065E+01  0.84982264492E+02  0.98079585022E+02  0.00000000000E+00 0.  1.
         13    1    4    4    0    0  0.20070480782E+02  0.53805978819E+02  0.41404935995E+02  0.70797431311E+02  0.00000000000E+00 0. -1.
          1    1    1    2  501    0  0.45500783377E+01 -0.61141637907E+02 -0.19294728331E+03  0.20245408674E+03  0.00000000000E+00 0. -1.
<scales pt_clust_5="13000.00000" pt_clust_6="13000.00000" pt_clust_7="13000.00000" pt_clust_8="13000.00000" pt_clust_9="61.31071"></scales>
<clustering>
<clus scale="   61.311">  2  9  1 -1</clus>
<clus scale="   79.715">  5  6 -1 -1</clus>
<clus scale="   83.487">  1  5  2 -1</clus>
<clus scale="   93.132">  7  8 -1 -1</clus>
<clus scale="   61.311">  2  5  1 -1</clus>
</clustering>
</event>
<event>
 9    2  0.5615294E-005  0.1015100E+03  0.7546771E-02  0.1282304E+00
         21   -1    0    0  501  502  0.00000000000E+00  0.00000000000E+00  0.36957333046E+02  0.36957333046E+02  0.00000000000E+00 0. -1.
          2   -1    0    0  502    0 -0.00000000000E+00 -0.00000000000E+00 -0.58653259994E+03  0.58653259994E+03  0.00000000000E+00 0. -1.
         23    2    1    2    0    0 -0.18806077356E+02 -0.25774879223E+02 -0.19309195386E+03  0.21598846689E+03  0.91370138653E+02 0.  0.
         24    2    1    2    0    0 -0.47495776242E+02  0.69321147349E+02 -0.18616877540E+03  0.21962050648E+03  0.80703678367E+02 0.  0.
        -11    1    4    4    0    0 -0.45058251659E+02  0.11247381846E+02 -0.36520422433E+02  0.59080376570E+02  0.00000000000E+00 0.  1.
         12    1    4    4    0    0 -0.24375245833E+01  0.58073765502E+02 -0.14964835297E+03  0.16054012991E+03  0.00000000000E+00 0. -1.
        -13    1    3    3    0    0 -0.53188477240E+02 -0.24126112069E+02 -0.14909451277E+03  0.16012575412E+03  0.00000000000E+00 0. -1.
         13    1    3    3    0    0  0.34382399884E+02 -0.16487671536E+01 -0.43997441093E+02  0.55862712767E+02  0.00000000000E+00 0.  1.
          1    1    1    2  501    0  0.66301853598E+02 -0.43546268126E+02 -0.17031453763E+03  0.18788095962E+03  0.00000000000E+00 0. -1.
<scales pt_clust_5="13000.00000" pt_clust_6="13000.00000" pt_clust_7="13000.00000" pt_clust_8="13000.00000" pt_clust_9="79.32351"></scales>
<clustering>
<clus scale="   79.324">  1  9  2 -1</clus>
<clus scale="   80.704">  5  6 -1 -1</clus>
<clus scale="   91.370">  7  8 -1 -1</clus>
<clus scale="   92.026">  1  5  2 -1</clus>
<clus scale="   79.324">  1  5  2 -1</clus>
</clustering>
</event>
<event>
 9    2  0.5615294E-005  0.9433703E+02  0.7546771E-02  0.1298399E+00
          2   -1    0    0  502    0 -0.00000000000E+00  0.00000000000E+00  0.14936091357E+03  0.14936091357E+03  0.00000000000E+00 0. -1.
         21   -1    0    0  501  502  0.00000000000E+00 -0.00000000000E+00 -0.27344844651E+03  0.27344844651E+03  0.00000000000E+00 0. -1.
         23    2    1    2    0    0  0.13240226771E+02  0.33550910410E+02  0.97565781999E+02  0.13724531993E+03  0.89533395069E+02 0.  0.
         24    2    1    2    0    0 -0.25428191562E+02  0.51758356962E+00 -0.27159145743E+02  0.87732822651E+02  0.79451671813E+02 0.  0.
        -13    1    4    4    0    0  0.29252761406E+01 -0.23185333997E+02  0.17914584457E+02  0.29445700693E+02  0.00000000000E+00 0.  1.
         14    1    4    4    0    0 -0.28353467703E+02  0.23702917567E+02 -0.45073730200E+02  0.58287121958E+02  0.00000000000E+00 0. -1.
        -13    1    3    3    0    0 -0.21203147268E+02  0.23070039338E+02  0.96246425389E+02  0.10121844975E+03  0.00000000000E+00 0. -1.
         13    1    3    3    0    0  0.34443374039E+02  0.10480871072E+02  0.13193566097E+01  0.36026870187E+02  0.00000000000E+00 0.  1.
          1    1    1    2  501    0  0.12187964791E+02 -0.34068493980E+02 -0.19449416919E+03  0.19783121750E+03  0.00000000000E+00 0. -1.
<scales pt_clust_5="13000.00000" pt_clust_6="13000.00000" pt_clust_7="13000.00000" pt_clust_8="13000.00000" pt_clust_9="36.18299"></scales>
<clustering>
<clus scale="   36.183">  2  9  1 -1</clus>
<clus scale="   79.452">  5  6 -1 -1</clus>
<clus scale="   84.828">  2  5  1 -1</clus>
<clus scale="   89.533">  7  8 -1 -1</clus>
<clus scale="   36.183">  2  5  1 -1</clus>
</clustering>
</event>
<event>
 9    2  0.5615294E-005  0.1008651E+03  0.7546771E-02  0.1284748E+00
          2   -1    0    0  502    0 -0.00000000000E+00  0.00000000000E+00  0.18098975546E+04  0.18098975546E+04  0.00000000000E+00 0. -1.
         21   -1    0    0  501  502  0.00000000000E+00 -0.00000000000E+00 -0.15696902014E+02  0.15696902014E+02  0.00000000000E+00 0. -1.
         24    2    1    2    0    0 -0.12804215262E+02  0.38120314654E+02  0.14868646212E+04  0.14896126468E+04  0.81008205342E+02 0.  0.
         23    2    1    2    0    0  0.27812415505E+02 -0.17257773064E+02  0.28585124542E+03  0.30248423166E+03  0.93351029510E+02 0.  0.
        -13    1    3    3    0    0 -0.24851142883E+02  0.12346026567E+02  0.15631490216E+03  0.15875878657E+03  0.00000000000E+00 0.  1.
         14    1    3    3    0    0  0.12046927621E+02  0.25774288087E+02  0.13305497191E+04  0.13308538602E+04  0.00000000000E+00 0. -1.
        -13    1    4    4    0    0 -0.26316700407E+02 -0.23039382812E+02  0.18094932554E+03  0.18429877996E+03  0.00000000000E+00 0.  1.
         13    1    4    4    0    0  0.54129115912E+02  0.57816097482E+01  0.10490191988E+03  0.11818545171E+03  0.00000000000E+00 0. -1.
          1    1    1    2  501    0 -0.15008200243E+02 -0.20862541590E+02  0.21484785985E+02  0.33497578195E+02  0.00000000000E+00 0. -1.
<scales pt_clust_5="13000.00000" pt_clust_6="13000.00000" pt_clust_7="13000.00000" pt_clust_8="13000.00000" pt_clust_9="25.70003"></scales>
<clustering>
<clus scale="   25.700">  2  9  1 -1</clus>
<clus scale="   81.008">  5  6 -1 -1</clus>
<clus scale="   89.564">  1  5  2 -1</clus>
<clus scale="   93.351">  7  8 -1 -1</clus>
<clus scale="   25.700">  2  5  1 -1</clus>
</clustering>
</event>
<event>
 9    2  0.9500025E-005  0.9916390E+02  0.7546771E-02  0.1287033E+00
          2   -1    0    0  502    0 -0.00000000000E+00  0.00000000000E+00  0.10065811484E+04  0.10065811484E+04  0.00000000000E+00 0. -1.
         21   -1    0    0  501  502  0.00000000000E+00 -0.00000000000E+00 -0.73536034179E+02  0.73536034179E+02  0.00000000000E+00 0. -1.
         24    2    1    2    0    0  0.44248366966E+01  0.46710065237E+02  0.77084696294E+03  0.77667608074E+03  0.82578960649E+02 0.  0.
         23    2    1    2    0    0 -0.30919107741E+02  0.87045116938E+01  0.20602033180E+03  0.22798843292E+03  0.92209482620E+02 0.  0.
        -11    1    3    3    0    0  0.36656980084E+02  0.22239410629E+02  0.20783060344E+03  0.21220717542E+03  0.00000000000E+00 0.  1.
         12    1    3    3    0    0 -0.32232143388E+02  0.24470654608E+02  0.56301635950E+03  0.56446890532E+03  0.00000000000E+00 0. -1.
        -11    1    4    4    0    0  0.96476439256E+01 -0.34460218136E+02  0.53458563272E+02  0.64330410029E+02  0.00000000000E+00 0.  1.
         11    1    4    4    0    0 -0.40566751666E+02  0.43164729830E+02  0.15256176853E+03  0.16365802290E+03  0.00000000000E+00 0. -1.
          1    1    1    2  501    0  0.26494271044E+02 -0.55414576931E+02 -0.43822180547E+02  0.75452668889E+02  0.00000000000E+00 0. -1.
<scales pt_clust_5="13000.00000" pt_clust_6="13000.00000" pt_clust_7="13000.00000" pt_clust_8="13000.00000" pt_clust_9="61.42249"></scales>
<clustering>
<clus scale="   61.422">  2  9  1 -1</clus>
<clus scale="   82.579">  5  6 -1 -1</clus>
<clus scale="   90.278">  1  5  2 -1</clus>
<clus scale="   92.209">  7  8 -1 -1</clus>
<clus scale="   61.422">  2  5  1 -1</clus>
</clustering>
</event>
<event>
 9    2  0.5615294E-005  0.1401742E+03  0.7546771E-02  0.1226259E+00
         21   -1    0    0  501  502  0.00000000000E+00  0.00000000000E+00  0.54890293836E+02  0.54890293836E+02  0.00000000000E+00 0.  1.
         -1   -1    0    0    0  501 -0.00000000000E+00 -0.00000000000E+00 -0.61889437321E+03  0.61889437321E+03  0.00000000000E+00 0.  1.
         23    2    1    2    0    0  0.36029543156E+02  0.35706933924E+02 -0.11612691701E+03  0.15743676100E+03  0.93422479892E+02 0.  0.
         24    2    1    2    0    0 -0.74967157562E+02  0.74624387942E+02 -0.21189503700E+03  0.25295333152E+03  0.88865106941E+02 0.  0.
        -11    1    4    4    0    0 -0.74834477148E+02  0.81599834582E+02 -0.21746349070E+03  0.24402684640E+03  0.00000000000E+00 0.  1.
         12    1    4    4    0    0 -0.13268041481E+00 -0.69754466400E+01  0.55684537042E+01  0.89264851188E+01  0.00000000000E+00 0. -1.
        -11    1    3    3    0    0  0.20644841705E+02 -0.19259219623E+02 -0.21609844037E+00  0.28234265141E+02  0.00000000000E+00 0.  1.
         11    1    3    3    0    0  0.15384701451E+02  0.54966153546E+02 -0.11591081857E+03  0.12920249586E+03  0.00000000000E+00 0. -1.
         -2    1    1    2    0  502  0.38937614407E+02 -0.11033132187E+03 -0.23598212537E+03  0.26339457453E+03  0.00000000000E+00 0.  1.
<scales pt_clust_5="13000.00000" pt_clust_6="13000.00000" pt_clust_7="13000.00000" pt_clust_8="13000.00000" pt_clust_9="108.40571"></scales>
<clustering>
<clus scale="   88.865">  5  6 -1 -1</clus>
<clus scale="   93.422">  7  8 -1 -1</clus>
<clus scale="  106.306">  2  7  1 -1</clus>
<clus scale="  108.406">  1  9  2 -1</clus>
<clus scale="  108.406">  1  5  2 -1</clus>
</clustering>
</event>
<event>
 9    2  0.5615294E-005  0.2557608E+03  0.7546771E-02  0.1137360E+00
          2   -1    0    0  502    0 -0.00000000000E+00  0.00000000000E+00  0.13054832005E+04  0.13054832005E+04  0.00000000000E+00 0. -1.
         21   -1    0    0  501  502  0.00000000000E+00 -0.00000000000E+00 -0.10311581818E+03  0.10311581818E+03  0.00000000000E+00 0. -1.
         24    2    1    2    0    0 -0.97880706596E+02  0.18069159227E+02  0.85502183076E+02  0.15448771337E+03  0.81539579539E+02 0.  0.
         23    2    1    2    0    0  0.73360544460E+02 -0.23741530874E+03  0.27135339918E+03  0.38026682505E+03  0.96033289428E+02 0.  0.
        -13    1    3    3    0    0 -0.69730101369E+01  0.24175758354E+02 -0.54540122248E+01  0.25745609561E+02  0.00000000000E+00 0.  1.
         14    1    3    3    0    0 -0.90907696459E+02 -0.61065991266E+01  0.90956195300E+02  0.12874210380E+03  0.00000000000E+00 0. -1.
        -11    1    4    4    0    0  0.20755066271E+01 -0.25393841522E+02  0.86222791685E+02  0.89908424083E+02  0.00000000000E+00 0.  1.
         11    1    4    4    0    0  0.71285037833E+02 -0.21202146722E+03  0.18513060750E+03  0.29035840097E+03  0.00000000000E+00 0. -1.
          1    1    1    2  501    0  0.24520162136E+02  0.21934614951E+03  0.84551180010E+03  0.87384448030E+03  0.00000000000E+00 0. -1.
<scales pt_clust_5="13000.00000" pt_clust_6="13000.00000" pt_clust_7="13000.00000" pt_clust_8="13000.00000" pt_clust_9="237.04695"></scales>
<clustering>
<clus scale="   81.540">  5  6 -1 -1</clus>
<clus scale="   96.033">  7  8 -1 -1</clus>
<clus scale="  128.670">  1  5  2 -1</clus>
<clus scale="  237.047">  2  9  1 -1</clus>
<clus scale="  237.047">  2  5  1 -1</clus>
</clustering>
</event>
<event>
 9    2  0.5615294E-005  0.1147049E+03  0.7546771E-02  0.1254972E+00
         21   -1    0    0  501  502  0.00000000000E+00  0.00000000000E+00  0.34616941346E+02  0.34616941346E+02  0.00000000000E+00 0. -1.
          2   -1    0    0  502    0 -0.00000000000E+00 -0.00000000000E+00 -0.83189711996E+03  0.83189711996E+03  0.00000000000E+00 0. -1.
         24    2    1    2    0    0  0.23987177053E+02 -0.59730936708E+02 -0.59467129768E+03  0.60440250634E+03  0.86748302122E+02 0.  0.
         23    2    1    2    0    0 -0.56271404153E+02  0.47155108001E+02 -0.19127432934E+03  0.22565754494E+03  0.94580036957E+02 0.  0.
        -13    1    3    3    0    0 -0.77377912374E+01  0.20282231388E+02 -0.10441211768E+03  0.10664489037E+03  0.00000000000E+00 0.  1.
         14    1    3    3    0    0  0.31724968291E+02 -0.80013168096E+02 -0.49025918000E+03  0.49775761597E+03  0.00000000000E+00 0. -1.
        -13    1    4    4    0    0 -0.22796864129E+02 -0.28396201530E+02 -0.70012484782E+02  0.78916343686E+02  0.00000000000E+00 0. -1.
         13    1    4    4    0    0 -0.33474540024E+02  0.75551309530E+02 -0.12126184455E+03  0.14674120126E+03  0.00000000000E+00 0.  1.
          1    1    1    2  501    0  0.32284227100E+02  0.12575828707E+02 -0.11334551600E+02  0.36454010028E+02  0.00000000000E+00 0. -1.
<scales pt_clust_5="13000.00000" pt_clust_6="13000.00000" pt_clust_7="13000.00000" pt_clust_8="13000.00000" pt_clust_9="34.64712"></scales>
<clustering>
<clus scale="   34.647">  1  9  2 -1</clus>
<clus scale="   86.748">  5  6 -1 -1</clus>
<clus scale="   94.580">  7  8 -1 -1</clus>
<clus scale="  108.338">  2  5  1 -1</clus>
<clus scale="   34.647">  1  5  2 -1</clus>
</clustering>
</event>
<event>
 9    2  0.5615294E-005  0.9633377E+02  0.7546771E-02  0.1293028E+00
         21   -1    0    0  501  502  0.00000000000E+00  0.00000000000E+00  0.51681835567E+02  0.51681835567E+02  0.00000000000E+00 0.  1.
         -3   -1    0    0    0  501 -0.00000000000E+00 -0.00000000000E+00 -0.43335624354E+03  0.43335624354E+03  0.00000000000E+00 0.  1.
         24    2    1    2    0    0 -0.13632672300E+02  0.32234412117E+02 -0.32679730701E+03  0.33847752827E+03  0.80905192636E+02 0.  0.
         23    2    1    2    0    0  0.42860610653E+02 -0.14631790586E+02 -0.48975230291E+02  0.11193459609E+03  0.89886925513E+02 0.  0.
        -11    1    3    3    0    0  0.13234696543E+02  0.52339962443E+02 -0.18173360845E+03  0.18958305120E+03  0.00000000000E+00 0.  1.
         12    1    3    3    0    0 -0.26867368843E+02 -0.20105550326E+02 -0.14506369856E+03  0.14889447707E+03  0.00000000000E+00 0. -1.
        -13    1    4    4    0    0  0.22828877726E+02  0.12321805925E+02  0.21612787773E+02  0.33765324740E+02  0.00000000000E+00 0.  1.
         13    1    4    4    0    0  0.20031732927E+02 -0.26953596512E+02 -0.70588018064E+02  0.78169271348E+02  0.00000000000E+00 0. -1.
         -4    1    1    2    0  502 -0.29227938352E+02 -0.17602621531E+02 -0.59018706751E+01  0.34625954753E+02  0.00000000000E+00 0.  1.
<scales pt_clust_5="13000.00000" pt_clust_6="13000.00000" pt_clust_7="13000.00000" pt_clust_8="13000.00000" pt_clust_9="34.11927"></scales>
<clustering>
<clus scale="   34.119">  1  9  2 -1</clus>
<clus scale="   80.905">  5  6 -1 -1</clus>
<clus scale="   88.012">  2  5  1 -1</clus>
<clus scale="   89.887">  7  8 -1 -1</clus>
<clus scale="   34.119">  1  5  2 -1</clus>
</clustering>
</event>
<event>
 9    2  0.5615294E-005  0.1224564E+03  0.7546771E-02  0.1243664E+00
         21   -1    0    0  501  502  0.00000000000E+00  0.00000000000E+00  0.43673457801E+02  0.43673457801E+02  0.00000000000E+00 0. -1.
          2   -1    0    0  502    0 -0.00000000000E+00 -0.00000000000E+00 -0.68241316900E+03  0.68241316900E+03  0.00000000000E+00 0. -1.
         24    2    1    2    0    0 -0.70019631916E+02 -0.33159547511E+02 -0.46225108291E+03  0.47549707972E+03  0.80119315593E+02 0.  0.
         23    2    1    2    0    0  0.80742290178E+02  0.13314700263E+02 -0.73349511278E+02  0.14501269914E+03  0.94614657642E+02 0.  0.
        -13    1    3    3    0    0  0.12037069123E+02 -0.26407735043E+02 -0.12931094485E+03  0.13252765734E+03  0.00000000000E+00 0.  1.
         14    1    3    3    0    0 -0.82056701038E+02 -0.67518124678E+01 -0.33294013806E+03  0.34296942238E+03  0.00000000000E+00 0. -1.
        -11    1    4    4    0    0 -0.19876569201E+02  0.23205923224E+01 -0.27205717626E+02  0.33772980672E+02  0.00000000000E+00 0.  1.
         11    1    4    4    0    0  0.10061885938E+03  0.10994107941E+02 -0.46143793652E+02  0.11123971847E+03  0.00000000000E+00 0. -1.
          1    1    1    2  501    0 -0.10722658262E+02  0.19844847248E+02 -0.10313911702E+03  0.10557684795E+03  0.00000000000E+00 0. -1.
<scales pt_clust_5="13000.00000" pt_clust_6="13000.00000" pt_clust_7="13000.00000" pt_clust_8="13000.00000" pt_clust_9="22.55646"></scales>
<clustering>
<clus scale="   22.556">  1  9  2 -1</clus>
<clus scale="   80.119">  5  6 -1 -1</clus>
<clus scale="   94.615">  7  8 -1 -1</clus>
<clus scale="  111.637">  2  5  1 -1</clus>
<clus scale="   22.556">  1  5  2 -1</clus>
</clustering>
</event>
<event>
 9    2  0.5615294E-005  0.1140350E+03  0.7546771E-02  0.1257099E+00
          2   -1    0    0  502    0 -0.00000000000E+00  0.00000000000E+00  0.46651509671E+03  0.46651509671E+03  0.00000000000E+00 0. -1.
         21   -1    0    0  501  502  0.00000000000E+00 -0.00000000000E+00 -0.11370810955E+03  0.11370810955E+03  0.00000000000E+00 0. -1.
         24    2    1    2    0    0 -0.60070642042E+01  0.57836985316E+02  0.24489968155E+03  0.26426058910E+03  0.80477346117E+02 0.  0.
         23    2    1    2    0    0  0.67648964123E+02 -0.81089258689E+02  0.17375446580E+03  0.22281627775E+03  0.91129737312E+02 0.  0.
        -11    1    3    3    0    0 -0.24016286545E+02 -0.23489202407E+01  0.13939647356E+03  0.14146970095E+03  0.00000000000E+00 0.  1.
         12    1    3    3    0    0  0.18009222341E+02  0.60185905557E+02  0.10550320799E+03  0.12279088815E+03  0.00000000000E+00 0. -1.
        -13    1    4    4    0    0  0.14245532455E+01 -0.24348750480E+02  0.11524933641E+03  0.11780195476E+03  0.00000000000E+00 0.  1.
         13    1    4    4    0    0  0.66224410877E+02 -0.56740508209E+02  0.58505129386E+02  0.10501432299E+03  0.00000000000E+00 0. -1.
          1    1    1    2  501    0 -0.61641899918E+02  0.23252273372E+02 -0.65847160188E+02  0.93146339420E+02  0.00000000000E+00 0. -1.
<scales pt_clust_5="13000.00000" pt_clust_6="13000.00000" pt_clust_7="13000.00000" pt_clust_8="13000.00000" pt_clust_9="65.88165"></scales>
<clustering>
<clus scale="   65.882">  2  9  1 -1</clus>
<clus scale="   80.477">  5  6 -1 -1</clus>
<clus scale="   91.130">  7  8 -1 -1</clus>
<clus scale="  105.716">  1  5  2 -1</clus>
<clus scale="   65.882">  2  5  1 -1</clus>
</clustering>
</event>
<event>
 9    2  0.5615294E-005  0.9422746E+02  0.7546771E-02  0.1293730E+00
         21   -1    0    0  501  502  0.00000000000E+00  0.00000000000E+00  0.23089650992E+02  0.23089650992E+02  0.00000000000E+00 0.  1.
          2   -1    0    0  502    0 -0.00000000000E+00 -0.00000000000E+00 -0.58600151045E+03  0.58600151045E+03  0.00000000000E+00 0. -1.
         24    2    1    2    0    0  0.40727913510E+02  0.55446836356E+01 -0.33561773902E+03  0.34770205683E+03  0.81042872152E+02 0.  0.
         23    2    1    2    0    0 -0.58611317759E+02 -0.22533808205E+02 -0.20260105149E+03  0.22648646638E+03  0.79409535368E+02 0.  0.
        -13    1    3    3    0    0 -0.96512928604E+01  0.30257050812E+02 -0.81651974491E+02  0.87610966870E+02  0.00000000000E+00 0.  1.
         14    1    3    3    0    0  0.50379206370E+02 -0.24712367176E+02 -0.25396576452E+03  0.26009108996E+03  0.00000000000E+00 0. -1.
        -13    1    4    4    0    0  0.60879134912E+01 -0.34477991859E+02 -0.60662831151E+02  0.70041228548E+02  0.00000000000E+00 0. -1.
         13    1    4    4    0    0 -0.64699231251E+02  0.11944183654E+02 -0.14193822034E+03  0.15644523783E+03  0.00000000000E+00 0.  1.
          1    1    1    2  501    0  0.17883404250E+02  0.16989124569E+02 -0.24693068953E+02  0.34902638231E+02  0.00000000000E+00 0. -1.
<scales pt_clust_5="13000.00000" pt_clust_6="13000.00000" pt_clust_7="13000.00000" pt_clust_8="13000.00000" pt_clust_9="24.66671"></scales>
<clustering>
<clus scale="   24.667">  1  9  2 -1</clus>
<clus scale="   79.410">  7  8 -1 -1</clus>
<clus scale="   81.043">  5  6 -1 -1</clus>
<clus scale="   92.826">  1  7  2 -1</clus>
<clus scale="   24.667">  1  5  2 -1</clus>
</clustering>
</event>
<event>
 9    2  0.5615294E-005  0.1233366E+03  0.7546771E-02  0.1252363E+00
          2   -1    0    0  502    0 -0.00000000000E+00  0.00000000000E+00  0.25816679582E+03  0.25816679582E+03  0.00000000000E+00 0. -1.
         21   -1    0    0  501  502  0.00000000000E+00 -0.00000000000E+00 -0.27099703543E+03  0.27099703543E+03  0.00000000000E+00 0. -1.
         23    2    1    2    0    0  0.22064554456E+01  0.80757341231E+01 -0.21371053973E+03  0.23258540652E+03  0.91398526285E+02 0.  0.
         24    2    1    2    0    0  0.19081524534E+02  0.87873735966E+02  0.11638250896E+03  0.16696609656E+03  0.79037275745E+02 0.  0.
        -11    1    4    4    0    0  0.41963048278E+02  0.23937372482E+02  0.29171264903E+02  0.56434545432E+02  0.00000000000E+00 0.  1.
         12    1    4    4    0    0 -0.22881523744E+02  0.63936363484E+02  0.87211244060E+02  0.11053155113E+03  0.00000000000E+00 0. -1.
        -13    1    3    3    0    0  0.10651813240E+02  0.45654288559E+02 -0.15835535693E+03  0.16514900622E+03  0.00000000000E+00 0. -1.
         13    1    3    3    0    0 -0.84453577945E+01 -0.37578554436E+02 -0.55355182806E+02  0.67436400299E+02  0.00000000000E+00 0.  1.
          1    1    1    2  501    0 -0.21287979979E+02 -0.95949470089E+02  0.84497791160E+02  0.12961232817E+03  0.00000000000E+00 0. -1.
<scales pt_clust_5="13000.00000" pt_clust_6="13000.00000" pt_clust_7="13000.00000" pt_clust_8="13000.00000" pt_clust_9="94.68377"></scales>
<clustering>
<clus scale="   79.037">  5  6 -1 -1</clus>
<clus scale="   91.399">  7  8 -1 -1</clus>
<clus scale="   91.781">  1  7  2 -1</clus>
<clus scale="   94.684">  2  9  1 -1</clus>
<clus scale="   94.684">  2  5  1 -1</clus>
</clustering>
</event>
<event>
 9    2  0.5615294E-005  0.1172419E+03  0.7546771E-02  0.1250834E+00
          4   -1    0    0  502    0 -0.00000000000E+00  0.00000000000E+00  0.19527698746E+03  0.19527698746E+03  0.00000000000E+00 0. -1.
         21   -1    0    0  501  502  0.00000000000E+00 -0.00000000000E+00 -0.15210418046E+03  0.15210418046E+03  0.00000000000E+00 0.  1.
         23    2    1    2    0    0 -0.54814114250E+02 -0.30683108059E+02 -0.36861498104E+02  0.11522155361E+03  0.89281555390E+02 0.  0.
         24    2    1    2    0    0  0.65565111818E+02  0.61359308104E+02 -0.24599530285E+02  0.12259295558E+03  0.79750531584E+02 0.  0.
        -13    1    4    4    0    0 -0.18659552531E+02  0.81542219036E+01 -0.21850372674E+01  0.20480347248E+02  0.00000000000E+00 0.  1.
         14    1    4    4    0    0  0.84224664349E+02  0.53205086200E+02 -0.22414493018E+02  0.10211260833E+03  0.00000000000E+00 0. -1.
        -11    1    3    3    0    0  0.55383744088E+01 -0.23025201814E+02 -0.47860309382E+02  0.53398901897E+02  0.00000000000E+00 0.  1.
         11    1    3    3    0    0 -0.60352488659E+02 -0.76579062450E+01  0.10998811278E+02  0.61822651714E+02  0.00000000000E+00 0. -1.
          3    1    1    2  501    0 -0.10750997568E+02 -0.30676200045E+02  0.10463383539E+03  0.10956665874E+03  0.00000000000E+00 0. -1.
<scales pt_clust_5="13000.00000" pt_clust_6="13000.00000" pt_clust_7="13000.00000" pt_clust_8="13000.00000" pt_clust_9="32.50560"></scales>
<clustering>
<clus scale="   32.506">  2  9  1 -1</clus>
<clus scale="   79.751">  5  6 -1 -1</clus>
<clus scale="   89.282">  7  8 -1 -1</clus>
<clus scale="  110.157">  2  5  1 -1</clus>
<clus scale="   32.506">  2  5  1 -1</clus>
</clustering>
</event>
<event>
 9    2  0.5615294E-005  0.1217217E+03  0.7546771E-02  0.1244323E+00
          2   -1    0    0  502    0 -0.00000000000E+00  0.00000000000E+00  0.60490615768E+03  0.60490615768E+03  0.00000000000E+00 0. -1.
         21   -1    0    0  501  502  0.00000000000E+00 -0.00000000000E+00 -0.29149773683E+02  0.29149773683E+02  0.00000000000E+00 0. -1.
         24    2    1    2    0    0  0.69156589294E+02 -0.11781236654E+02  0.24217167176E+03  0.26378916430E+03  0.77563994351E+02 0.  0.
         23    2    1    2    0    0 -0.95647957378E+02  0.16369268976E+02  0.26171822795E+03  0.29353584639E+03  0.90831588978E+02 0.  0.
        -11    1    3    3    0    0  0.59325789859E+02 -0.42041032347E+02  0.17233136167E+03  0.18704303237E+03  0.00000000000E+00 0.  1.
         12    1    3    3    0    0  0.98307994347E+01  0.30259795692E+02  0.69840310096E+02  0.76746131936E+02  0.00000000000E+00 0. -1.
        -11    1    4    4    0    0 -0.86621001912E+02  0.48217132793E+02  0.20838459693E+03  0.23076444723E+03  0.00000000000E+00 0. -1.
         11    1    4    4    0    0 -0.90269554655E+01 -0.31847863817E+02  0.53333631016E+02  0.62771399157E+02  0.00000000000E+00 0.  1.
          1    1    1    2  501    0  0.26491368084E+02 -0.45880323217E+01  0.71866484282E+02  0.76730920668E+02  0.00000000000E+00 0. -1.
<scales pt_clust_5="13000.00000" pt_clust_6="13000.00000" pt_clust_7="13000.00000" pt_clust_8="13000.00000" pt_clust_9="26.88575"></scales>
<clustering>
<clus scale="   26.886">  2  9  1 -1</clus>
<clus scale="   77.564">  5  6 -1 -1</clus>
<clus scale="   90.832">  7  8 -1 -1</clus>
<clus scale="  112.169">  1  5  2 -1</clus>
<clus scale="   26.886">  2  5  1 -1</clus>
</clustering>
</event>
<event>
 9    2  0.5615294E-005  0.9254394E+02  0.7546771E-02  0.1305028E+00
         21   -1    0    0  501  502  0.00000000000E+00  0.00000000000E+00  0.73538256229E+02  0.73538256229E+02  0.00000000000E+00 0.  1.
          2   -1    0    0  502    0 -0.00000000000E+00 -0.00000000000E+00 -0.20634442327E+03  0.20634442327E+03  0.00000000000E+00 0. -1.
         24    2    1    2    0    0  0.79554889707E+01 -0.19632317769E+01 -0.13167585895E+03  0.15384122830E+03  0.79129309430E+02 0.  0.
         23    2    1    2    0    0 -0.59928346200E+01 -0.25517956966E+02  0.99255571851E+01  0.96354755459E+02  0.92188079596E+02 0.  0.
        -11    1    3    3    0    0 -0.22391944371E+02  0.28661895545E+02 -0.63387077341E+02  0.73080948288E+02  0.00000000000E+00 0.  1.
         12    1    3    3    0    0  0.30347433342E+02 -0.30625127321E+02 -0.68288781608E+02  0.80760280010E+02  0.00000000000E+00 0. -1.
        -13    1    4    4    0    0 -0.27276045663E+02 -0.50121329132E+02  0.22690586123E+02  0.61408411472E+02  0.00000000000E+00 0.  1.
         13    1    4    4    0    0  0.21283211043E+02  0.24603372166E+02 -0.12765028938E+02  0.34946343986E+02  0.00000000000E+00 0. -1.
          1    1    1    2  501    0 -0.19626543507E+01  0.27481188743E+02 -0.11055865274E+02  0.29686695737E+02  0.00000000000E+00 0. -1.
<scales pt_clust_5="13000.00000" pt_clust_6="13000.00000" pt_clust_7="13000.00000" pt_clust_8="13000.00000" pt_clust_9="27.55118"></scales>
<clustering>
<clus scale="   27.551">  1  9  2 -1</clus>
<clus scale="   79.129">  5  6 -1 -1</clus>
<clus scale="   79.544">  2  5  1 -1</clus>
<clus scale="   92.188">  7  8 -1 -1</clus>
<clus scale="   27.551">  1  5  2 -1</clus>
</clustering>
</event>
<event>
 9    2  0.5615294E-005  0.9640559E+02  0.7546771E-02  0.1296608E+00
         21   -1    0    0  501  502  0.00000000000E+00  0.00000000000E+00  0.25167298214E+02  0.25167298214E+02  0.00000000000E+00 0. -1.
          2   -1    0    0  502    0 -0.00000000000E+00 -0.00000000000E+00 -0.77141177503E+03  0.77141177503E+03  0.00000000000E+00 0. -1.
         23    2    1    2    0    0 -0.55863248437E+01  0.11584135201E+01 -0.40830958555E+03  0.41921768999E+03  0.94837782582E+02 0.  0.
         24    2    1    2    0    0 -0.59520301027E+02 -0.49509095381E+01 -0.23602017181E+03  0.25636607012E+03  0.80317262569E+02 0.  0.
        -11    1    4    4    0    0 -0.20960430436E+02  0.30918104751E+02 -0.15715929444E+03  0.16153734142E+03  0.00000000000E+00 0.  1.
         12    1    4    4    0    0 -0.38559870591E+02 -0.35869014289E+02 -0.78860877372E+02  0.94828728695E+02  0.00000000000E+00 0. -1.
        -13    1    3    3    0    0  0.42206754237E+02  0.10788821452E+02 -0.14385282214E+03  0.15030450163E+03  0.00000000000E+00 0.  1.
         13    1    3    3    0    0 -0.47793079081E+02 -0.96304079321E+01 -0.26445676340E+03  0.26891318836E+03  0.00000000000E+00 0. -1.
          1    1    1    2  501    0  0.65106625871E+02  0.37924960179E+01 -0.10191471946E+03  0.12099531314E+03  0.00000000000E+00 0. -1.
<scales pt_clust_5="13000.00000" pt_clust_6="13000.00000" pt_clust_7="13000.00000" pt_clust_8="13000.00000" pt_clust_9="65.21699"></scales>
<clustering>
<clus scale="   65.217">  1  9  2 -1</clus>
<clus scale="   80.317">  5  6 -1 -1</clus>
<clus scale="   82.163">  1  5  2 -1</clus>
<clus scale="   94.838">  7  8 -1 -1</clus>
<clus scale="   65.217">  1  5  2 -1</clus>
</clustering>
</event>
<event>
 9    2  0.5615294E-005  0.9330934E+02  0.7546771E-02  0.1299656E+00
         21   -1    0    0  501  502  0.00000000000E+00  0.00000000000E+00  0.17702129685E+02  0.17702129685E+02  0.00000000000E+00 0. -1.
         -3   -1    0    0    0  501 -0.00000000000E+00 -0.00000000000E+00 -0.71159174213E+03  0.71159174213E+03  0.00000000000E+00 0.  1.
         24    2    1    2    0    0 -0.79288325337E+01  0.28999873271E+02 -0.38094498175E+03  0.39055125486E+03  0.80668113366E+02 0.  0.
         23    2    1    2    0    0 -0.25139845458E+02 -0.27800930339E+02 -0.24136860869E+03  0.25988767511E+03  0.88757505908E+02 0.  0.
        -13    1    3    3    0    0 -0.42828344186E+02  0.37657579742E+01 -0.18532062236E+03  0.19024242711E+03  0.00000000000E+00 0.  1.
         14    1    3    3    0    0  0.34899511652E+02  0.25234115297E+02 -0.19562435939E+03  0.20030882775E+03  0.00000000000E+00 0. -1.
        -13    1    4    4    0    0  0.15123739328E+02  0.25306609179E+02 -0.82351999354E+02  0.87470016331E+02  0.00000000000E+00 0.  1.
         13    1    4    4    0    0 -0.40263584785E+02 -0.53107539518E+02 -0.15901660934E+03  0.17241765878E+03  0.00000000000E+00 0. -1.
         -4    1    1    2    0  502  0.33068677992E+02 -0.11989429326E+01 -0.71576022001E+02  0.78854941848E+02  0.00000000000E+00 0.  1.
<scales pt_clust_5="13000.00000" pt_clust_6="13000.00000" pt_clust_7="13000.00000" pt_clust_8="13000.00000" pt_clust_9="33.09041"></scales>
<clustering>
<clus scale="   33.090">  1  9  2 -1</clus>
<clus scale="   80.668">  5  6 -1 -1</clus>
<clus scale="   85.651">  2  5  1 -1</clus>
<clus scale="   88.758">  7  8 -1 -1</clus>
<clus scale="   33.090">  1  5  2 -1</clus>
</clustering>
</event>
<event>
 9    2  0.5615294E-005  0.1104811E+03  0.7546771E-02  0.1281966E+00
         -3   -1    0    0    0  501 -0.00000000000E+00  0.00000000000E+00  0.14254889435E+03  0.14254889435E+03  0.00000000000E+00 0.  1.
         21   -1    0    0  501  502  0.00000000000E+00 -0.00000000000E+00 -0.11160591867E+03  0.11160591867E+03  0.00000000000E+00 0.  1.
         24    2    1    2    0    0 -0.11535181057E+02 -0.16503469350E+02  0.68374536115E+02  0.12788000758E+03  0.10617341592E+03 0.  0.
         23    2    1    2    0    0  0.31413315440E+02  0.43418804674E+02 -0.38850791053E+02  0.92784661856E+02  0.65020154753E+02 0.  0.
        -13    1    3    3    0    0 -0.49867189351E+02 -0.16023242968E+02  0.34614990655E+01  0.52492502939E+02  0.00000000000E+00 0.  1.
         14    1    3    3    0    0  0.38332008295E+02 -0.48022638176E+00  0.64913037050E+02  0.75387504643E+02  0.00000000000E+00 0. -1.
        -11    1    4    4    0    0  0.22614056497E+02  0.22724353935E+02  0.14276375544E+02  0.35094254682E+02  0.00000000000E+00 0.  1.
         11    1    4    4    0    0  0.87992589436E+01  0.20694450739E+02 -0.53127166597E+02  0.57690407174E+02  0.00000000000E+00 0. -1.
         -4    1    1    2    0  502 -0.19878134384E+02 -0.26915335324E+02  0.14192306183E+01  0.33490143590E+02  0.00000000000E+00 0.  1.
<scales pt_clust_5="13000.00000" pt_clust_6="13000.00000" pt_clust_7="13000.00000" pt_clust_8="13000.00000" pt_clust_9="33.46006"></scales>
<clustering>
<clus scale="   33.460">  2  9  1 -1</clus>
<clus scale="   65.020">  7  8 -1 -1</clus>
<clus scale="   71.839">  2  7  1 -1</clus>
<clus scale="  106.173">  5  6 -1 -1</clus>
<clus scale="   33.460">  2  5  1 -1</clus>
</clustering>
</event>
<event>
 9    2  0.5615294E-005  0.1089405E+03  0.7546771E-02  0.1268428E+00
          2   -1    0    0  502    0 -0.00000000000E+00  0.00000000000E+00  0.96687135126E+03  0.96687135126E+03  0.00000000000E+00 0. -1.
         21   -1    0    0  501  502  0.00000000000E+00 -0.00000000000E+00 -0.66973837548E+02  0.66973837548E+02  0.00000000000E+00 0. -1.
         24    2    1    2    0    0  0.30279591241E+02 -0.49523855793E+02  0.86514534824E+03  0.87075597477E+03  0.79812455615E+02 0.  0.
         23    2    1    2    0    0 -0.42413046167E+02 -0.11790543617E+01  0.40493044444E+02  0.11063958566E+03  0.93814575689E+02 0.  0.
        -11    1    3    3    0    0  0.19461662527E+02 -0.33511665303E+02  0.13757073233E+03  0.14292478586E+03  0.00000000000E+00 0.  1.
         12    1    3    3    0    0  0.10817928714E+02 -0.16012190490E+02  0.72757461591E+03  0.72783118891E+03  0.00000000000E+00 0. -1.
        -13    1    4    4    0    0  0.19387678699E+02  0.28449273222E+02  0.13521098729E+02  0.36987340308E+02  0.00000000000E+00 0.  1.
         13    1    4    4    0    0 -0.61800724866E+02 -0.29628327584E+02  0.26971945714E+02  0.73652245349E+02  0.00000000000E+00 0. -1.
          1    1    1    2  501    0  0.12133454926E+02  0.50702910154E+02 -0.57408789701E+01  0.52449628387E+02  0.00000000000E+00 0. -1.
<scales pt_clust_5="13000.00000" pt_clust_6="13000.00000" pt_clust_7="13000.00000" pt_clust_8="13000.00000" pt_clust_9="52.13450"></scales>
<clustering>
<clus scale="   52.134">  2  9  1 -1</clus>
<clus scale="   79.812">  5  6 -1 -1</clus>
<clus scale="   93.815">  7  8 -1 -1</clus>
<clus scale="   97.144">  1  5  2 -1</clus>
<clus scale="   52.134">  2  5  1 -1</clus>
</clustering>
</event>
<event>
 9    2  0.5615294E-005  0.1245650E+03  0.7546771E-02  0.1240180E+00
         -1   -1    0    0    0  501 -0.00000000000E+00  0.00000000000E+00  0.34506818056E+03  0.34506818056E+03  0.00000000000E+00 0.  1.
         21   -1    0    0  501  502  0.00000000000E+00 -0.00000000000E+00 -0.10164735049E+03  0.10164735049E+03  0.00000000000E+00 0.  1.
         23    2    1    2    0    0  0.21038608819E+02  0.79943634316E+02  0.23392794016E+03  0.26619759635E+03  0.96463834594E+02 0.  0.
         24    2    1    2    0    0 -0.71041076528E+02 -0.43197628410E+02 -0.43653424857E+01  0.11693675564E+03  0.82111381360E+02 0.  0.
        -13    1    4    4    0    0 -0.43874955358E+02 -0.18146161544E+01 -0.37185772027E+02  0.57542038378E+02  0.00000000000E+00 0.  1.
         14    1    4    4    0    0 -0.27166121170E+02 -0.41383012256E+02  0.32820429541E+02  0.59394717257E+02  0.00000000000E+00 0. -1.
        -13    1    3    3    0    0  0.57004114011E+02  0.50245255833E+02  0.17686572986E+03  0.19249815882E+03  0.00000000000E+00 0. -1.
         13    1    3    3    0    0 -0.35965505192E+02  0.29698378483E+02  0.57062210296E+02  0.73699437529E+02  0.00000000000E+00 0.  1.
         -2    1    1    2    0  502  0.50002467709E+02 -0.36746005906E+02  0.13858232393E+02  0.63581179071E+02  0.00000000000E+00 0.  1.
<scales pt_clust_5="13000.00000" pt_clust_6="13000.00000" pt_clust_7="13000.00000" pt_clust_8="13000.00000" pt_clust_9="62.05252"></scales>
<clustering>
<clus scale="   62.053">  2  9  1 -1</clus>
<clus scale="   82.111">  5  6 -1 -1</clus>
<clus scale="   96.464">  7  8 -1 -1</clus>
<clus scale="  113.813">  2  5  1 -1</clus>
<clus scale="   62.053">  2  5  1 -1</clus>
</clustering>
</event>
<event>
 9    2  0.5615294E-005  0.1640991E+03  0.7546771E-02  0.1198353E+00
         21   -1    0    0  501  502  0.00000000000E+00  0.00000000000E+00  0.60629606250E+02  0.60629606250E+02  0.00000000000E+00 0.  1.
          2   -1    0    0  502    0 -0.00000000000E+00 -0.00000000000E+00 -0.90716792838E+03  0.90716792838E+03  0.00000000000E+00 0. -1.
         24    2    1    2    0    0 -0.89611718405E+02 -0.30774618992E+01 -0.38920858291E+03  0.40727801547E+03  0.79701505820E+02 0.  0.
         23    2    1    2    0    0 -0.98560854877E+02 -0.58754492840E+01 -0.18498172549E+03  0.22936621246E+03  0.92961592252E+02 0.  0.
        -11    1    3    3    0    0 -0.53735140056E+02 -0.24608452965E+02 -0.10926794980E+03  0.12422771867E+03  0.00000000000E+00 0.  1.
         12    1    3    3    0    0 -0.35876578348E+02  0.21530991066E+02 -0.27994063311E+03  0.28305029680E+03  0.00000000000E+00 0. -1.
        -13    1    4    4    0    0 -0.74992620623E+02  0.34278871122E+02 -0.14985391414E+03  0.17104131003E+03  0.00000000000E+00 0.  1.
         13    1    4    4    0    0 -0.23568234254E+02 -0.40154320406E+02 -0.35127811349E+02  0.58324902428E+02  0.00000000000E+00 0. -1.
          1    1    1    2  501    0  0.18817257328E+03  0.89529111832E+01 -0.27234801373E+03  0.33115330670E+03  0.00000000000E+00 0. -1.
<scales pt_clust_5="13000.00000" pt_clust_6="13000.00000" pt_clust_7="13000.00000" pt_clust_8="13000.00000" pt_clust_9="135.22823"></scales>
<clustering>
<clus scale="   79.702">  5  6 -1 -1</clus>
<clus scale="   92.962">  7  8 -1 -1</clus>
<clus scale="  119.967">  2  5  1 -1</clus>
<clus scale="  135.228">  1  9  2 -1</clus>
<clus scale="  135.228">  1  5  2 -1</clus>
</clustering>
</event>
<event>
 9    2  0.5615294E-005  0.1162695E+03  0.7546771E-02  0.1253142E+00
         21   -1    0    0  501  502  0.00000000000E+00  0.00000000000E+00  0.12346236244E+03  0.12346236244E+03  0.00000000000E+00 0. -1.
          2   -1    0    0  502    0 -0.00000000000E+00 -0.00000000000E+00 -0.20246168617E+03  0.20246168617E+03  0.00000000000E+00 0. -1.
         23    2    1    2    0    0 -0.13066190763E+02 -0.88744884260E+02 -0.22127343480E+02  0.12939013282E+03  0.90585911261E+02 0.  0.
         24    2    1    2    0    0  0.43698783539E+02  0.43413578880E+02  0.19628589790E+02  0.10248275841E+03  0.79517996207E+02 0.  0.
        -13    1    4    4    0    0  0.32826734555E+02 -0.38998024405E+01  0.38188830360E+02  0.50509303350E+02  0.00000000000E+00 0.  1.
         14    1    4    4    0    0  0.10872048984E+02  0.47313381321E+02 -0.18560240570E+02  0.51973455063E+02  0.00000000000E+00 0. -1.
        -13    1    3    3    0    0 -0.30733190624E+02 -0.98222357628E+01 -0.34880654966E+02  0.47514896739E+02  0.00000000000E+00 0.  1.
         13    1    3    3    0    0  0.17666999861E+02 -0.78922648497E+02  0.12753311486E+02  0.81875236084E+02  0.00000000000E+00 0. -1.
          1    1    1    2  501    0 -0.30632592776E+02  0.45331305380E+02 -0.76500570042E+02  0.94051157379E+02  0.00000000000E+00 0. -1.
<scales pt_clust_5="13000.00000" pt_clust_6="13000.00000" pt_clust_7="13000.00000" pt_clust_8="13000.00000" pt_clust_9="54.71093"></scales>
<clustering>
<clus scale="   54.711">  1  9  2 -1</clus>
<clus scale="   79.518">  5  6 -1 -1</clus>
<clus scale="   90.586">  7  8 -1 -1</clus>
<clus scale="  107.870">  1  5  2 -1</clus>
<clus scale="   54.711">  1  5  2 -1</clus>
</clustering>
</event>
<event>
 9    2  0.5615294E-005  0.2046401E+03  0.7546771E-02  0.1146872E+00
         21   -1    0    0  501  502  0.00000000000E+00  0.00000000000E+00  0.25438418187E+03  0.25438418187E+03  0.00000000000E+00 0.  1.
         -1   -1    0    0    0  501 -0.00000000000E+00 -0.00000000000E+00 -0.43426160006E+03  0.43426160006E+03  0.00000000000E+00 0.  1.
         24    2    1    2    0    0  0.75765177607E+02 -0.18956630652E+03 -0.33396712289E+03  0.39983210349E+03  0.81583853208E+02 0.  0.
         23    2    1    2    0    0 -0.52695976540E+02  0.96539877744E+02  0.64508174566E+02  0.15762314895E+03  0.92665735637E+02 0.  0.
        -13    1    3    3    0    0  0.90010703255E+02 -0.18340803055E+03 -0.31175319631E+03  0.37273380284E+03  0.00000000000E+00 0.  1.
         14    1    3    3    0    0 -0.14245525648E+02 -0.61582759660E+01 -0.22213926576E+02  0.27098300644E+02  0.00000000000E+00 0. -1.
        -13    1    4    4    0    0  0.21166969171E+02 -0.12911178290E+01  0.84009244352E+01  0.22809715047E+02  0.00000000000E+00 0.  1.
         13    1    4    4    0    0 -0.73862945711E+02  0.97830995573E+02  0.56107250131E+02  0.13481343390E+03  0.00000000000E+00 0. -1.
         -2    1    1    2    0  502 -0.23069201068E+02  0.93026428772E+02  0.89581530131E+02  0.13119052949E+03  0.00000000000E+00 0.  1.
<scales pt_clust_5="13000.00000" pt_clust_6="13000.00000" pt_clust_7="13000.00000" pt_clust_8="13000.00000" pt_clust_9="95.84417"></scales>
<clustering>
<clus scale="   81.584">  5  6 -1 -1</clus>
<clus scale="   92.666">  7  8 -1 -1</clus>
<clus scale="   95.844">  1  9  2 -1</clus>
<clus scale="  199.866">  2  5  1 -1</clus>
<clus scale="   95.844">  1  5  2 -1</clus>
</clustering>
</event>
<event>
 9    2  0.5615294E-005  0.1016499E+03  0.7546771E-02  0.1281910E+00
         21   -1    0    0  501  502  0.00000000000E+00  0.00000000000E+00  0.71764729215E+02  0.71764729215E+02  0.00000000000E+00 0.  1.
          2   -1    0    0  502    0 -0.00000000000E+00 -0.00000000000E+00 -0.35756128426E+03  0.35756128426E+03  0.00000000000E+00 0. -1.
         24    2    1    2    0    0 -0.20711941428E+02 -0.44435976563E+02 -0.20647575668E+03  0.22691277419E+03  0.80334478652E+02 0.  0.
         23    2    1    2    0    0 -0.29003402881E+02  0.39456758990E+02  0.61339732755E+01  0.10342371427E+03  0.90888975332E+02 0.  0.
        -11    1    3    3    0    0  0.27848858776E+02 -0.25916735586E+02 -0.12137221823E+03  0.12719454185E+03  0.00000000000E+00 0.  1.
         12    1    3    3    0    0 -0.48560800205E+02 -0.18519240976E+02 -0.85103538451E+02  0.99718232334E+02  0.00000000000E+00 0. -1.
        -11    1    4    4    0    0 -0.24939649838E+02  0.66444055468E+02  0.18678430433E+02  0.73387208726E+02  0.00000000000E+00 0.  1.
         11    1    4    4    0    0 -0.40637530433E+01 -0.26987296479E+02 -0.12544457157E+02  0.30036505546E+02  0.00000000000E+00 0. -1.
          1    1    1    2  501    0  0.49715344309E+02  0.49792175729E+01 -0.85454771634E+02  0.98989525014E+02  0.00000000000E+00 0. -1.
<scales pt_clust_5="13000.00000" pt_clust_6="13000.00000" pt_clust_7="13000.00000" pt_clust_8="13000.00000" pt_clust_9="49.96409"></scales>
<clustering>
<clus scale="   49.964">  1  9  2 -1</clus>
<clus scale="   80.334">  5  6 -1 -1</clus>
<clus scale="   90.889">  7  8 -1 -1</clus>
<clus scale="   92.334">  2  5  1 -1</clus>
<clus scale="   49.964">  1  5  2 -1</clus>
</clustering>
</event>
<event>
 9    2  0.5615294E-005  0.1297777E+03  0.7546771E-02  0.1229881E+00
         21   -1    0    0  501  502  0.00000000000E+00  0.00000000000E+00  0.10185616729E+03  0.10185616729E+03  0.00000000000E+00 0.  1.
          2   -1    0    0  502    0 -0.00000000000E+00 -0.00000000000E+00 -0.23511282206E+03  0.23511282206E+03  0.00000000000E+00 0. -1.
         23    2    1    2    0    0 -0.77124280635E+01  0.92381070009E+02 -0.10589829732E+03  0.16690885252E+03  0.89723865447E+02 0.  0.
         24    2    1    2    0    0  0.38179604588E+02 -0.91574116534E+02  0.98829067981E+00  0.12843763716E+03  0.81558254605E+02 0.  0.
        -13    1    4    4    0    0  0.60416243414E+02 -0.72894437148E+02 -0.14082808871E+02  0.95718582005E+02  0.00000000000E+00 0.  1.
         14    1    4    4    0    0 -0.22236638827E+02 -0.18679679386E+02  0.15071099551E+02  0.32719055150E+02  0.00000000000E+00 0. -1.
        -11    1    3    3    0    0 -0.47484745978E+02  0.35080013623E+02 -0.43667425381E+02  0.73431958273E+02  0.00000000000E+00 0.  1.
         11    1    3    3    0    0  0.39772317915E+02  0.57301056386E+02 -0.62230871942E+02  0.93476894247E+02  0.00000000000E+00 0. -1.
          1    1    1    2  501    0 -0.30467176524E+02 -0.80695347533E+00 -0.28346648123E+02  0.41622499674E+02  0.00000000000E+00 0. -1.
<scales pt_clust_5="13000.00000" pt_clust_6="13000.00000" pt_clust_7="13000.00000" pt_clust_8="13000.00000" pt_clust_9="30.47788"></scales>
<clustering>
<clus scale="   30.478">  1  9  2 -1</clus>
<clus scale="   81.558">  5  6 -1 -1</clus>
<clus scale="   89.724">  7  8 -1 -1</clus>
<clus scale="  124.272">  1  5  2 -1</clus>
<clus scale="   30.478">  1  5  2 -1</clus>
</clustering>
</event>
<event>
 9    2  0.5615294E-005  0.1943462E+03  0.7546771E-02  0.1188133E+00
          4   -1    0    0  502    0 -0.00000000000E+00  0.00000000000E+00  0.19122629465E+03  0.19122629465E+03  0.00000000000E+00 0. -1.
         21   -1    0    0  501  502  0.00000000000E+00 -0.00000000000E+00 -0.35843653899E+03  0.35843653899E+03  0.00000000000E+00 0.  1.
         24    2    1    2    0    0 -0.14185761678E+02  0.57965332552E+01 -0.66886978695E+02  0.11245549909E+03  0.89092848902E+02 0.  0.
         23    2    1    2    0    0  0.17309880774E+03 -0.21609751832E+02 -0.17201808722E+03  0.26215430963E+03  0.93297808728E+02 0.  0.
        -13    1    3    3    0    0  0.13341529727E+02  0.41515125754E+02 -0.22051978218E+02  0.48865036838E+02  0.00000000000E+00 0.  1.
         14    1    3    3    0    0 -0.27527291405E+02 -0.35718592499E+02 -0.44835000477E+02  0.63590462257E+02  0.00000000000E+00 0. -1.
        -13    1    4    4    0    0  0.13704762272E+03 -0.54067769804E+02 -0.14459634677E+03  0.20643032269E+03  0.00000000000E+00 0.  1.
         13    1    4    4    0    0  0.36051185015E+02  0.32458017971E+02 -0.27421740443E+02  0.55723986941E+02  0.00000000000E+00 0. -1.
          3    1    1    2  501    0 -0.15891304606E+03  0.15813218577E+02  0.71694821579E+02  0.17505302491E+03  0.00000000000E+00 0. -1.
<scales pt_clust_5="13000.00000" pt_clust_6="13000.00000" pt_clust_7="13000.00000" pt_clust_8="13000.00000" pt_clust_9="170.48750"></scales>
<clustering>
<clus scale="   89.093">  5  6 -1 -1</clus>
<clus scale="   90.401">  1  5  2 -1</clus>
<clus scale="   93.298">  7  8 -1 -1</clus>
<clus scale="  170.488">  2  9  1 -1</clus>
<clus scale="  170.488">  2  5  1 -1</clus>
</clustering>
</event>
<event>
 9    2  0.5615294E-005  0.1723906E+03  0.7546771E-02  0.1188844E+00
         21   -1    0    0  501  502  0.00000000000E+00  0.00000000000E+00  0.59447442447E+03  0.59447442447E+03  0.00000000000E+00 0. -1.
          2   -1    0    0  502    0 -0.00000000000E+00 -0.00000000000E+00 -0.72072247473E+03  0.72072247473E+03  0.00000000000E+00 0. -1.
         24    2    1    2    0    0 -0.93505830637E+02 -0.11709924036E+01 -0.51454098114E+03  0.53010315054E+03  0.86673048591E+02 0.  0.
         23    2    1    2    0    0  0.17451823366E+03 -0.11733501556E+03 -0.11869356325E+03  0.25817630864E+03  0.91338516680E+02 0.  0.
        -13    1    3    3    0    0 -0.15375666679E+02  0.13460588050E+02 -0.17976463000E+02  0.27216755472E+02  0.00000000000E+00 0.  1.
         14    1    3    3    0    0 -0.78130163958E+02 -0.14631580454E+02 -0.49656451814E+03  0.50288639506E+03  0.00000000000E+00 0. -1.
        -13    1    4    4    0    0  0.11167090240E+03 -0.10068273038E+03 -0.39013408566E+02  0.15533656584E+03  0.00000000000E+00 0. -1.
         13    1    4    4    0    0  0.62847331268E+02 -0.16652285181E+02 -0.79680154684E+02  0.10283974280E+03  0.00000000000E+00 0.  1.
          1    1    1    2  501    0 -0.81012403027E+02  0.11850600797E+03  0.50698649413E+03  0.52691744002E+03  0.00000000000E+00 0. -1.
<scales pt_clust_5="13000.00000" pt_clust_6="13000.00000" pt_clust_7="13000.00000" pt_clust_8="13000.00000" pt_clust_9="146.20461"></scales>
<clustering>
<clus scale="   86.673">  5  6 -1 -1</clus>
<clus scale="   91.339">  7  8 -1 -1</clus>
<clus scale="  127.503">  2  5  1 -1</clus>
<clus scale="  146.205">  1  9  2 -1</clus>
<clus scale="  146.205">  1  5  2 -1</clus>
</clustering>
</event>
<event>
 9    2  0.5615294E-005  0.2004241E+03  0.7546771E-02  0.1185998E+00
          2   -1    0    0  502    0 -0.00000000000E+00  0.00000000000E+00  0.62213637594E+03  0.62213637594E+03  0.00000000000E+00 0. -1.
         21   -1    0    0  501  502  0.00000000000E+00 -0.00000000000E+00 -0.12104527782E+03  0.12104527782E+03  0.00000000000E+00 0. -1.
         24    2    1    2    0    0  0.20088449411E+02 -0.22167584850E+02  0.21915979388E+03  0.23558510995E+03  0.81082557656E+02 0.  0.
         23    2    1    2    0    0 -0.87514653143E+02  0.16570058719E+03  0.30833836664E+02  0.21061514046E+03  0.91063235156E+02 0.  0.
        -13    1    3    3    0    0 -0.12267418921E+02 -0.33121313547E+02  0.40714912742E+02  0.53900047289E+02  0.00000000000E+00 0.  1.
         14    1    3    3    0    0  0.32355868332E+02  0.10953728697E+02  0.17844488114E+03  0.18168506266E+03  0.00000000000E+00 0. -1.
        -13    1    4    4    0    0 -0.38781980967E+02  0.14423837846E+03  0.56135922085E+00  0.14936220068E+03  0.00000000000E+00 0. -1.
         13    1    4    4    0    0 -0.48732672176E+02  0.21462208735E+02  0.30272477443E+02  0.61252939780E+02  0.00000000000E+00 0.  1.
          1    1    1    2  501    0  0.67426203732E+02 -0.14353300234E+03  0.25109746758E+03  0.29698140335E+03  0.00000000000E+00 0. -1.
<scales pt_clust_5="13000.00000" pt_clust_6="13000.00000" pt_clust_7="13000.00000" pt_clust_8="13000.00000" pt_clust_9="178.54227"></scales>
<clustering>
<clus scale="   81.083">  5  6 -1 -1</clus>
<clus scale="   86.425">  1  5  2 -1</clus>
<clus scale="   91.063">  7  8 -1 -1</clus>
<clus scale="  178.542">  2  9  1 -1</clus>
<clus scale="  178.542">  2  5  1 -1</clus>
</clustering>
</event>
<event>
 9    2  0.5615294E-005  0.3318265E+03  0.7546771E-02  0.1101435E+00
          2   -1    0    0  502    0 -0.00000000000E+00  0.00000000000E+00  0.60174819666E+03  0.60174819666E+03  0.00000000000E+00 0. -1.
         21   -1    0    0  501  502  0.00000000000E+00 -0.00000000000E+00 -0.43358862992E+03  0.43358862992E+03  0.00000000000E+00 0.  1.
         24    2    1    2    0    0 -0.11697547651E+03  0.28977403286E+02  0.15883729780E+03  0.21497884652E+03  0.80396923290E+02 0.  0.
         23    2    1    2    0    0  0.29106862764E+03 -0.18119547257E+03 -0.27861964545E+03  0.45104874384E+03  0.90902789945E+02 0.  0.
        -13    1    3    3    0    0 -0.31004473669E+02  0.30899124311E+02  0.12974843071E+02  0.45655008744E+02  0.00000000000E+00 0.  1.
         14    1    3    3    0    0 -0.85971002839E+02 -0.19217210249E+01  0.14586245472E+03  0.16932383778E+03  0.00000000000E+00 0. -1.
        -11    1    4    4    0    0  0.78441782867E+02 -0.99381221427E+02 -0.10806781794E+03  0.16645838443E+03  0.00000000000E+00 0. -1.
         11    1    4    4    0    0  0.21262684477E+03 -0.81814251141E+02 -0.17055182750E+03  0.28459035941E+03  0.00000000000E+00 0.  1.
          1    1    1    2  501    0 -0.17409315113E+03  0.15221806928E+03  0.28794191439E+03  0.36930923621E+03  0.00000000000E+00 0. -1.
<scales pt_clust_5="13000.00000" pt_clust_6="13000.00000" pt_clust_7="13000.00000" pt_clust_8="13000.00000" pt_clust_9="319.13263"></scales>
<clustering>
<clus scale="   80.397">  5  6 -1 -1</clus>
<clus scale="   90.903">  7  8 -1 -1</clus>
<clus scale="  144.868">  1  5  2 -1</clus>
<clus scale="  319.133">  2  9  1 -1</clus>
<clus scale="  319.133">  2  5  1 -1</clus>
</clustering>
</event>
<event>
 9    2  0.5615294E-005  0.1158706E+03  0.7546771E-02  0.1253765E+00
          2   -1    0    0  502    0 -0.00000000000E+00  0.00000000000E+00  0.58236110676E+03  0.58236110676E+03  0.00000000000E+00 0. -1.
         21   -1    0    0  501  502  0.00000000000E+00 -0.00000000000E+00 -0.10838635503E+03  0.10838635503E+03  0.00000000000E+00 0. -1.
         24    2    1    2    0    0  0.21307453688E+02  0.64106305698E+02  0.46089089697E+03  0.47275030011E+03  0.80677142584E+02 0.  0.
         23    2    1    2    0    0 -0.63183303410E+02 -0.82939889946E+02  0.61156776593E+02  0.15151937216E+03  0.91360897780E+02 0.  0.
        -13    1    3    3    0    0  0.31149227508E+02 -0.68055707442E+01  0.18468786598E+03  0.18741984422E+03  0.00000000000E+00 0.  1.
         14    1    3    3    0    0 -0.98417738195E+01  0.70911876442E+02  0.27620303099E+03  0.28533045589E+03  0.00000000000E+00 0. -1.
        -11    1    4    4    0    0 -0.53702090389E+02 -0.59627914240E+02 -0.53363403818E+01  0.80423126012E+02  0.00000000000E+00 0.  1.
         11    1    4    4    0    0 -0.94812130209E+01 -0.23311975705E+02  0.66493116975E+02  0.71096246150E+02  0.00000000000E+00 0. -1.
          1    1    1    2  501    0  0.41875849722E+02  0.18833584248E+02 -0.48072921826E+02  0.66477789512E+02  0.00000000000E+00 0. -1.
<scales pt_clust_5="13000.00000" pt_clust_6="13000.00000" pt_clust_7="13000.00000" pt_clust_8="13000.00000" pt_clust_9="45.91613"></scales>
<clustering>
<clus scale="   45.916">  2  9  1 -1</clus>
<clus scale="   80.677">  5  6 -1 -1</clus>
<clus scale="   91.361">  7  8 -1 -1</clus>
<clus scale="  107.647">  1  5  2 -1</clus>
<clus scale="   45.916">  2  5  1 -1</clus>
</clustering>
</event>
<event>
 9    2  0.5615294E-005  0.2490099E+03  0.7546771E-02  0.1145043E+00
         -3   -1    0    0    0  501 -0.00000000000E+00  0.00000000000E+00  0.23461932144E+03  0.23461932144E+03  0.00000000000E+00 0.  1.
         21   -1    0    0  501  502  0.00000000000E+00 -0.00000000000E+00 -0.66810097511E+03  0.66810097511E+03  0.00000000000E+00 0. -1.
         23    2    1    2    0    0 -0.50990382827E+02 -0.50790703942E+02 -0.24923195295E+03  0.27485565466E+03  0.90825931186E+02 0.  0.
         24    2    1    2    0    0  0.13458750625E+03  0.21163473502E+03 -0.31028004579E+03  0.40708663290E+03  0.80887341210E+02 0.  0.
        -11    1    4    4    0    0  0.22490195262E+01  0.68685865542E+02 -0.80428326269E+02  0.10578998951E+03  0.00000000000E+00 0.  1.
         12    1    4    4    0    0  0.13233848673E+03  0.14294886947E+03 -0.22985171952E+03  0.30129664339E+03  0.00000000000E+00 0. -1.
        -13    1    3    3    0    0  0.24068112021E+02  0.19394323453E+01 -0.50591921409E+02  0.56058700716E+02  0.00000000000E+00 0.  1.
         13    1    3    3    0    0 -0.75058494848E+02 -0.52730136287E+02 -0.19864003154E+03  0.21879695394E+03  0.00000000000E+00 0. -1.
         -4    1    1    2    0  502 -0.83597123428E+02 -0.16084403107E+03  0.12603034507E+03  0.22077800899E+03  0.00000000000E+00 0.  1.
<scales pt_clust_5="13000.00000" pt_clust_6="13000.00000" pt_clust_7="13000.00000" pt_clust_8="13000.00000" pt_clust_9="235.50633"></scales>
<clustering>
<clus scale="   80.887">  5  6 -1 -1</clus>
<clus scale="   90.826">  7  8 -1 -1</clus>
<clus scale="  115.884">  1  7  2 -1</clus>
<clus scale="  235.506">  2  9  1 -1</clus>
<clus scale="  235.506">  2  5  1 -1</clus>
</clustering>
</event>
<event>
 9    2  0.5615294E-005  0.1314343E+03  0.7546771E-02  0.1244170E+00
          2   -1    0    0  502    0 -0.00000000000E+00  0.00000000000E+00  0.49349055933E+03  0.49349055933E+03  0.00000000000E+00 0. -1.
         21   -1    0    0  501  502  0.00000000000E+00 -0.00000000000E+00 -0.59256254323E+02  0.59256254323E+02  0.00000000000E+00 0.  1.
         24    2    1    2    0    0  0.45866036891E+02  0.15634961590E+02  0.18154746756E+03  0.20235260157E+03  0.75092922578E+02 0.  0.
         23    2    1    2    0    0 -0.37949509724E+02 -0.10684602730E+03  0.19232631684E+03  0.24073326937E+03  0.90038080797E+02 0.  0.
        -13    1    3    3    0    0  0.92898010963E+01 -0.25386617351E+02  0.10298759309E+03  0.10647640619E+03  0.00000000000E+00 0.  1.
         14    1    3    3    0    0  0.36576235795E+02  0.41021578942E+02  0.78559874467E+02  0.95876195378E+02  0.00000000000E+00 0. -1.
        -13    1    4    4    0    0 -0.30707482409E+02 -0.20801688955E+02  0.91153745324E+01  0.38193583128E+02  0.00000000000E+00 0.  1.
         13    1    4    4    0    0 -0.72420273147E+01 -0.86044338340E+02  0.18321094231E+03  0.20253968624E+03  0.00000000000E+00 0. -1.
          1    1    1    2  501    0 -0.79165271670E+01  0.91211065705E+02  0.60360520606E+02  0.10966094272E+03  0.00000000000E+00 0. -1.
<scales pt_clust_5="13000.00000" pt_clust_6="13000.00000" pt_clust_7="13000.00000" pt_clust_8="13000.00000" pt_clust_9="95.75027"></scales>
<clustering>
<clus scale="   75.093">  5  6 -1 -1</clus>
<clus scale="   89.371">  1  5  2 -1</clus>
<clus scale="   90.038">  7  8 -1 -1</clus>
<clus scale="   95.750">  2  9  1 -1</clus>
<clus scale="   95.750">  2  5  1 -1</clus>
</clustering>
</event>
<event>
 9    2  0.5615294E-005  0.1229857E+03  0.7546771E-02  0.1244151E+00
         21   -1    0    0  501  502  0.00000000000E+00  0.00000000000E+00  0.50925720488E+03  0.50925720488E+03  0.00000000000E+00 0.  1.
          4   -1    0    0  502    0 -0.00000000000E+00 -0.00000000000E+00 -0.51250960908E+02  0.51250960908E+02  0.00000000000E+00 0. -1.
         24    2    1    2    0    0 -0.67670688899E+02  0.13847008177E+02  0.11513009337E+03  0.15574004558E+03  0.78923770986E+02 0.  0.
         23    2    1    2    0    0  0.78308781772E+02 -0.57499454317E+02  0.33085248060E+03  0.35825711383E+03  0.97192299796E+02 0.  0.
        -13    1    3    3    0    0 -0.24695879783E+02  0.21706044419E+02  0.10616818053E+03  0.11114279734E+03  0.00000000000E+00 0.  1.
         14    1    3    3    0    0 -0.42974809116E+02 -0.78590362420E+01  0.89619128388E+01  0.44597248244E+02  0.00000000000E+00 0. -1.
        -11    1    4    4    0    0  0.23033263398E+02 -0.62580703876E+02  0.95700646404E+02  0.11664257131E+03  0.00000000000E+00 0.  1.
         11    1    4    4    0    0  0.55275518374E+02  0.50812495594E+01  0.23515183420E+03  0.24161454252E+03  0.00000000000E+00 0. -1.
          3    1    1    2  501    0 -0.10638092873E+02  0.43652446140E+02  0.12023669999E+02  0.46511006377E+02  0.00000000000E+00 0. -1.
<scales pt_clust_5="13000.00000" pt_clust_6="13000.00000" pt_clust_7="13000.00000" pt_clust_8="13000.00000" pt_clust_9="44.93002"></scales>
<clustering>
<clus scale="   44.930">  1  9  2 -1</clus>
<clus scale="   78.924">  5  6 -1 -1</clus>
<clus scale="   97.192">  7  8 -1 -1</clus>
<clus scale="  109.124">  2  5  1 -1</clus>
<clus scale="   44.930">  1  5  2 -1</clus>
</clustering>
</event>
<event>
 9    2  0.5615294E-005  0.2739462E+03  0.7546771E-02  0.1137703E+00
          2   -1    0    0  502    0 -0.00000000000E+00  0.00000000000E+00  0.93479071577E+03  0.93479071577E+03  0.00000000000E+00 0. -1.
         21   -1    0    0  501  502  0.00000000000E+00 -0.00000000000E+00 -0.12770108425E+03  0.12770108425E+03  0.00000000000E+00 0. -1.
         24    2    1    2    0    0  0.16469409630E+02  0.43386084516E+02  0.17425083156E+03  0.20284677175E+03  0.92897075986E+02 0.  0.
         23    2    1    2    0    0 -0.15208209915E+03  0.18616522020E+03  0.49907878643E+03  0.56135600018E+03  0.90854112650E+02 0.  0.
        -11    1    3    3    0    0  0.10104853959E+01  0.64264777995E+02  0.68418893583E+02  0.93872934175E+02  0.00000000000E+00 0.  1.
         12    1    3    3    0    0  0.15458924234E+02 -0.20878693479E+02  0.10583193798E+03  0.10897383757E+03  0.00000000000E+00 0. -1.
        -11    1    4    4    0    0 -0.12925190347E+03  0.89768136719E+02  0.32396480971E+03  0.36016325583E+03  0.00000000000E+00 0. -1.
         11    1    4    4    0    0 -0.22830195684E+02  0.96397083478E+02  0.17511397672E+03  0.20119274435E+03  0.00000000000E+00 0.  1.
          1    1    1    2  501    0  0.13561268952E+03 -0.22955130471E+03  0.13376001353E+03  0.29828902808E+03  0.00000000000E+00 0. -1.
<scales pt_clust_5="13000.00000" pt_clust_6="13000.00000" pt_clust_7="13000.00000" pt_clust_8="13000.00000" pt_clust_9="258.44159"></scales>
<clustering>
<clus scale="   90.854">  7  8 -1 -1</clus>
<clus scale="   92.897">  5  6 -1 -1</clus>
<clus scale="  103.843">  1  5  2 -1</clus>
<clus scale="  258.442">  2  9  1 -1</clus>
<clus scale="  258.442">  2  5  1 -1</clus>
</clustering>
</event>
<event>
 9    2  0.5615294E-005  0.1474740E+03  0.7546771E-02  0.1222635E+00
         21   -1    0    0  501  502  0.00000000000E+00  0.00000000000E+00  0.53549842573E+02  0.53549842573E+02  0.00000000000E+00 0. -1.
          2   -1    0    0  502    0 -0.00000000000E+00 -0.00000000000E+00 -0.88489256124E+03  0.88489256124E+03  0.00000000000E+00 0. -1.
         24    2    1    2    0    0 -0.40770061705E+02 -0.41424833961E+02 -0.18007349557E+03  0.20522835963E+03  0.79460688322E+02 0.  0.
         23    2    1    2    0    0  0.12425011883E+03 -0.29982398206E+02 -0.58099834890E+03  0.60280733997E+03  0.97368226190E+02 0.  0.
        -13    1    3    3    0    0  0.20650995968E+02 -0.29272473534E+02 -0.63900648453E+02  0.73257315088E+02  0.00000000000E+00 0.  1.
         14    1    3    3    0    0 -0.61421057673E+02 -0.12152360427E+02 -0.11617284711E+03  0.13197104454E+03  0.00000000000E+00 0. -1.
        -13    1    4    4    0    0  0.57538543802E+01 -0.41149406245E+02 -0.14086777945E+03  0.14686766752E+03  0.00000000000E+00 0.  1.
         13    1    4    4    0    0  0.11849626445E+03  0.11167008039E+02 -0.44013056944E+03  0.45593967245E+03  0.00000000000E+00 0. -1.
          1    1    1    2  501    0 -0.83480057125E+02  0.71407232166E+02 -0.70270874203E+02  0.13040670422E+03  0.00000000000E+00 0. -1.
<scales pt_clust_5="13000.00000" pt_clust_6="13000.00000" pt_clust_7="13000.00000" pt_clust_8="13000.00000" pt_clust_9="110.76111"></scales>
<clustering>
<clus scale="   79.461">  5  6 -1 -1</clus>
<clus scale="   97.368">  7  8 -1 -1</clus>
<clus scale="   98.449">  2  5  1 -1</clus>
<clus scale="  110.761">  1  9  2 -1</clus>
<clus scale="  110.761">  1  5  2 -1</clus>
</clustering>
</event>
<event>
 9    2  0.5615294E-005  0.4190288E+03  0.7546771E-02  0.1045878E+00
         21   -1    0    0  501  502  0.00000000000E+00  0.00000000000E+00  0.45394206499E+03  0.45394206499E+03  0.00000000000E+00 0. -1.
          2   -1    0    0  502    0 -0.00000000000E+00 -0.00000000000E+00 -0.19823948984E+04  0.19823948984E+04  0.00000000000E+00 0. -1.
         24    2    1    2    0    0 -0.13688476372E+03  0.28625697272E+03 -0.13240866216E+04  0.13639940245E+04  0.81202367510E+02 0.  0.
         23    2    1    2    0    0 -0.37636377262E+03 -0.30434805281E+02  0.12740075538E+03  0.40981870391E+03  0.95626622260E+02 0.  0.
        -11    1    3    3    0    0 -0.13736925645E+03  0.21094915355E+03 -0.10493709797E+04  0.10791428594E+04  0.00000000000E+00 0.  1.
         12    1    3    3    0    0  0.48449272510E+00  0.75307819169E+02 -0.27471564190E+03  0.28485116511E+03  0.00000000000E+00 0. -1.
        -13    1    4    4    0    0 -0.62802226900E+02 -0.13782121908E+02  0.61501481652E+02  0.88974708953E+02  0.00000000000E+00 0.  1.
         13    1    4    4    0    0 -0.31356154572E+03 -0.16652683374E+02  0.65899273724E+02  0.32084399495E+03  0.00000000000E+00 0. -1.
          1    1    1    2  501    0  0.51324853634E+03 -0.25582216743E+03 -0.33176696721E+03  0.66252423499E+03  0.00000000000E+00 0. -1.
<scales pt_clust_5="13000.00000" pt_clust_6="13000.00000" pt_clust_7="13000.00000" pt_clust_8="13000.00000" pt_clust_9="407.97167"></scales>
<clustering>
<clus scale="   81.202">  5  6 -1 -1</clus>
<clus scale="   95.627">  7  8 -1 -1</clus>
<clus scale="  327.528">  2  5  1 -1</clus>
<clus scale="  407.972">  1  9  2 -1</clus>
<clus scale="  407.972">  1  5  2 -1</clus>
</clustering>
</event>
<event>
 9    2  0.5615294E-005  0.1047491E+03  0.7546771E-02  0.1274280E+00
          2   -1    0    0  502    0 -0.00000000000E+00  0.00000000000E+00  0.92738678451E+02  0.92738678451E+02  0.00000000000E+00 0. -1.
         21   -1    0    0  501  502  0.00000000000E+00 -0.00000000000E+00 -0.17768518451E+03  0.17768518451E+03  0.00000000000E+00 0. -1.
         24    2    1    2    0    0  0.54376183219E+02  0.27206851375E+02  0.17077793745E+02  0.10348826922E+03  0.81982856529E+02 0.  0.
         23    2    1    2    0    0 -0.38289093372E+02 -0.77231953163E+01 -0.53056769956E+02  0.11183363104E+03  0.90366131805E+02 0.  0.
        -13    1    3    3    0    0 -0.21755191342E+02  0.86032924387E+01  0.59393038522E+00  0.23402088463E+02  0.00000000000E+00 0.  1.
         14    1    3    3    0    0  0.76131374561E+02  0.18603558936E+02  0.16483863360E+02  0.80086180761E+02  0.00000000000E+00 0. -1.
        -13    1    4    4    0    0 -0.18833777689E+02  0.26745932530E+02 -0.63032529955E+02  0.71015180922E+02  0.00000000000E+00 0. -1.
         13    1    4    4    0    0 -0.19455315683E+02 -0.34469127846E+02  0.99757599991E+01  0.40818450122E+02  0.00000000000E+00 0.  1.
          1    1    1    2  501    0 -0.16087089847E+02 -0.19483656059E+02 -0.48967529847E+02  0.55101962692E+02  0.00000000000E+00 0. -1.
<scales pt_clust_5="13000.00000" pt_clust_6="13000.00000" pt_clust_7="13000.00000" pt_clust_8="13000.00000" pt_clust_9="25.26672"></scales>
<clustering>
<clus scale="   25.267">  2  9  1 -1</clus>
<clus scale="   81.983">  5  6 -1 -1</clus>
<clus scale="   90.366">  7  8 -1 -1</clus>
<clus scale="   97.609">  1  5  2 -1</clus>
<clus scale="   25.267">  2  5  1 -1</clus>
</clustering>
</event>
<event>
 9    2  0.5615294E-005  0.1003828E+03  0.7546771E-02  0.1284246E+00
         21   -1    0    0  501  502  0.00000000000E+00  0.00000000000E+00  0.39228147944E+02  0.39228147944E+02  0.00000000000E+00 0. -1.
          2   -1    0    0  502    0 -0.00000000000E+00 -0.00000000000E+00 -0.91556346747E+03  0.91556346747E+03  0.00000000000E+00 0. -1.
         24    2    1    2    0    0 -0.33906417959E+02  0.29859636418E+02 -0.65200110369E+03  0.65866370378E+03  0.81799709017E+02 0.  0.
         23    2    1    2    0    0 -0.38793106001E+02 -0.58116944008E+02 -0.12619824060E+03  0.17077095790E+03  0.91401531034E+02 0.  0.
        -11    1    3    3    0    0 -0.47556829257E+02 -0.14806230175E+01 -0.20908301722E+03  0.21442843175E+03  0.00000000000E+00 0.  1.
         12    1    3    3    0    0  0.13650411298E+02  0.31340259436E+02 -0.44291808647E+03  0.44423527203E+03  0.00000000000E+00 0. -1.
        -13    1    4    4    0    0 -0.16826729498E+02 -0.71293238676E+02 -0.45801874967E+02  0.86392571770E+02  0.00000000000E+00 0.  1.
         13    1    4    4    0    0 -0.21966376503E+02  0.13176294668E+02 -0.80396365635E+02  0.84378386126E+02  0.00000000000E+00 0. -1.
          1    1    1    2  501    0  0.72699523960E+02  0.28257307590E+02 -0.98135975232E+02  0.12535695374E+03  0.00000000000E+00 0. -1.
<scales pt_clust_5="13000.00000" pt_clust_6="13000.00000" pt_clust_7="13000.00000" pt_clust_8="13000.00000" pt_clust_9="77.99805"></scales>
<clustering>
<clus scale="   77.998">  1  9  2 -1</clus>
<clus scale="   81.800">  5  6 -1 -1</clus>
<clus scale="   91.402">  7  8 -1 -1</clus>
<clus scale="   91.726">  2  5  1 -1</clus>
<clus scale="   77.998">  1  5  2 -1</clus>
</clustering>
</event>
<event>
 9    2  0.5615294E-005  0.2957810E+03  0.7546771E-02  0.1087721E+00
         21   -1    0    0  501  502  0.00000000000E+00  0.00000000000E+00  0.83287918952E+02  0.83287918952E+02  0.00000000000E+00 0.  1.
          2   -1    0    0  502    0 -0.00000000000E+00 -0.00000000000E+00 -0.18201672355E+04  0.18201672355E+04  0.00000000000E+00 0. -1.
         24    2    1    2    0    0 -0.21254869263E+03 -0.19447885322E+03 -0.14346905986E+04  0.14655616892E+04  0.80839223135E+02 0.  0.
         23    2    1    2    0    0  0.17281371440E+03  0.19336434798E+03 -0.28077183533E+03  0.39274046448E+03  0.90321082646E+02 0.  0.
        -13    1    3    3    0    0 -0.22827485669E+02  0.52755169625E+01 -0.95961429814E+02  0.98780165991E+02  0.00000000000E+00 0.  1.
         14    1    3    3    0    0 -0.18972120696E+03 -0.19975437019E+03 -0.13387291688E+04  0.13667815232E+04  0.00000000000E+00 0. -1.
        -11    1    4    4    0    0  0.12878169278E+03  0.13282874103E+03 -0.25183021292E+03  0.31248464758E+03  0.00000000000E+00 0. -1.
         11    1    4    4    0    0  0.44032021627E+02  0.60535606954E+02 -0.28941622409E+02  0.80255816895E+02  0.00000000000E+00 0.  1.
          1    1    1    2  501    0  0.39734978228E+02  0.11145052418E+01 -0.21416882570E+02  0.45153000739E+02  0.00000000000E+00 0. -1.
<scales pt_clust_5="13000.00000" pt_clust_6="13000.00000" pt_clust_7="13000.00000" pt_clust_8="13000.00000" pt_clust_9="39.75061"></scales>
<clustering>
<clus scale="   39.751">  1  9  2 -1</clus>
<clus scale="   80.839">  5  6 -1 -1</clus>
<clus scale="   90.321">  7  8 -1 -1</clus>
<clus scale="  293.025">  2  5  1 -1</clus>
<clus scale="   39.751">  1  5  2 -1</clus>
</clustering>
</event>
<event>
 9    2  0.5615294E-005  0.9687370E+02  0.7546771E-02  0.1292346E+00
         21   -1    0    0  501  502  0.00000000000E+00  0.00000000000E+00  0.30205909313E+03  0.30205909313E+03  0.00000000000E+00 0. -1.
         -3   -1    0    0    0  501 -0.00000000000E+00 -0.00000000000E+00 -0.49533427882E+02  0.49533427882E+02  0.00000000000E+00 0.  1.
         24    2    1    2    0    0  0.21156612159E+02  0.93707521463E+00  0.38076331736E+02  0.95592688152E+02  0.85086277634E+02 0.  0.
         23    2    1    2    0    0 -0.16212506520E+02 -0.25361101666E+02  0.20769460274E+03  0.23018116449E+03  0.94553104815E+02 0.  0.
        -13    1    3    3    0    0  0.48576217788E+02  0.69595957912E+01  0.99385304990E+00  0.49082304877E+02  0.00000000000E+00 0.  1.
         14    1    3    3    0    0 -0.27419605628E+02 -0.60225205765E+01  0.37082478686E+02  0.46510383275E+02  0.00000000000E+00 0. -1.
        -13    1    4    4    0    0  0.27945797175E+02 -0.20169634175E+02  0.26125156141E+02  0.43247028868E+02  0.00000000000E+00 0.  1.
         13    1    4    4    0    0 -0.44158303695E+02 -0.51914674915E+01  0.18156944660E+03  0.18693413562E+03  0.00000000000E+00 0. -1.
         -4    1    1    2    0  502 -0.49441056394E+01  0.24424026452E+02  0.67547307655E+01  0.25818668370E+02  0.00000000000E+00 0.  1.
<scales pt_clust_5="13000.00000" pt_clust_6="13000.00000" pt_clust_7="13000.00000" pt_clust_8="13000.00000" pt_clust_9="24.91943"></scales>
<clustering>
<clus scale="   24.919">  1  9  2 -1</clus>
<clus scale="   85.086">  5  6 -1 -1</clus>
<clus scale="   87.658">  2  5  1 -1</clus>
<clus scale="   94.553">  7  8 -1 -1</clus>
<clus scale="   24.919">  1  5  2 -1</clus>
</clustering>
</event>
<event>
 9    2  0.5615294E-005  0.1383608E+03  0.7546771E-02  0.1216545E+00
          2   -1    0    0  502    0 -0.00000000000E+00  0.00000000000E+00  0.57349704608E+03  0.57349704608E+03  0.00000000000E+00 0. -1.
         21   -1    0    0  501  502  0.00000000000E+00 -0.00000000000E+00 -0.21291525143E+03  0.21291525143E+03  0.00000000000E+00 0. -1.
         24    2    1    2    0    0 -0.13847828829E+01  0.10755918037E+03  0.51701794786E+03  0.53447802292E+03  0.82391162589E+02 0.  0.
         23    2    1    2    0    0 -0.31524728709E+02 -0.10752267925E+03 -0.16531211013E+03  0.21784879533E+03  0.87034871158E+02 0.  0.
        -11    1    3    3    0    0  0.33978118553E+02  0.69502108719E+02  0.38316644841E+03  0.39089843034E+03  0.00000000000E+00 0.  1.
         12    1    3    3    0    0 -0.35362901436E+02  0.38057071655E+02  0.13385149945E+03  0.14357959258E+03  0.00000000000E+00 0. -1.
        -13    1    4    4    0    0  0.18563805965E+02 -0.13981985770E+02 -0.23117330877E+01  0.23354976511E+02  0.00000000000E+00 0.  1.
         13    1    4    4    0    0 -0.50088534674E+02 -0.93540693479E+02 -0.16300037704E+03  0.19449381881E+03  0.00000000000E+00 0. -1.
          1    1    1    2  501    0  0.32909511591E+02 -0.36501124911E-01  0.88759569196E+01  0.34085479265E+02  0.00000000000E+00 0. -1.
<scales pt_clust_5="13000.00000" pt_clust_6="13000.00000" pt_clust_7="13000.00000" pt_clust_8="13000.00000" pt_clust_9="32.90953"></scales>
<clustering>
<clus scale="   32.910">  2  9  1 -1</clus>
<clus scale="   82.391">  5  6 -1 -1</clus>
<clus scale="   87.035">  7  8 -1 -1</clus>
<clus scale="  135.488">  1  5  2 -1</clus>
<clus scale="   32.910">  2  5  1 -1</clus>
</clustering>
</event>
<event>
 9    2  0.5615294E-005  0.1855587E+03  0.7546771E-02  0.1184301E+00
          2   -1    0    0  502    0 -0.00000000000E+00  0.00000000000E+00  0.87479633101E+03  0.87479633101E+03  0.00000000000E+00 0. -1.
         21   -1    0    0  501  502  0.00000000000E+00 -0.00000000000E+00 -0.75062543351E+02  0.75062543351E+02  0.00000000000E+00 0. -1.
         23    2    1    2    0    0  0.32958033044E+02  0.61293810518E+02  0.12421571332E+03  0.16799292794E+03  0.89156700547E+02 0.  0.
         24    2    1    2    0    0 -0.19664107472E+03 -0.43562654145E+02  0.48985494755E+03  0.53371815036E+03  0.65816238739E+02 0.  0.
        -13    1    4    4    0    0 -0.14055656587E+03 -0.20722477857E+02  0.26303067612E+03  0.29894933664E+03  0.00000000000E+00 0.  1.
         14    1    4    4    0    0 -0.56084508854E+02 -0.22840176287E+02  0.22682427143E+03  0.23476881372E+03  0.00000000000E+00 0. -1.
        -13    1    3    3    0    0  0.57640070460E+02  0.66364411968E+02  0.97083453715E+02  0.13096491852E+03  0.00000000000E+00 0. -1.
         13    1    3    3    0    0 -0.24682037417E+02 -0.50706014501E+01  0.27132259607E+02  0.37028009418E+02  0.00000000000E+00 0.  1.
          1    1    1    2  501    0  0.16368304168E+03 -0.17731156374E+02  0.18566312679E+03  0.24814779606E+03  0.00000000000E+00 0. -1.
<scales pt_clust_5="13000.00000" pt_clust_6="13000.00000" pt_clust_7="13000.00000" pt_clust_8="13000.00000" pt_clust_9="173.49423"></scales>
<clustering>
<clus scale="   65.816">  5  6 -1 -1</clus>
<clus scale="   89.157">  7  8 -1 -1</clus>
<clus scale="  113.102">  1  7  2 -1</clus>
<clus scale="  173.494">  2  9  1 -1</clus>
<clus scale="  173.494">  2  5  1 -1</clus>
</clustering>
</event>
<event>
 9    2  0.5615294E-005  0.9700547E+02  0.7546771E-02  0.1293457E+00
          2   -1    0    0  502    0 -0.00000000000E+00  0.00000000000E+00  0.53820175501E+03  0.53820175501E+03  0.00000000000E+00 0. -1.
         21   -1    0    0  501  502  0.00000000000E+00 -0.00000000000E+00 -0.22397785942E+02  0.22397785942E+02  0.00000000000E+00 0.  1.
         23    2    1    2    0    0 -0.23060477949E+02  0.98880822797E+01  0.30409572545E+03  0.31840420606E+03  0.90980593450E+02 0.  0.
         24    2    1    2    0    0  0.46089475797E+02 -0.16743131899E+02  0.15456828343E+03  0.18020903401E+03  0.78608965462E+02 0.  0.
        -11    1    4    4    0    0 -0.12786120431E+02  0.19189659096E+02  0.30230641874E+02  0.38021304554E+02  0.00000000000E+00 0.  1.
         12    1    4    4    0    0  0.58875596228E+02 -0.35932790994E+02  0.12433764156E+03  0.14218772946E+03  0.00000000000E+00 0. -1.
        -11    1    3    3    0    0  0.33903848088E+02 -0.58449391022E+01  0.13352189950E+03  0.13788303693E+03  0.00000000000E+00 0.  1.
         11    1    3    3    0    0 -0.56964326037E+02  0.15733021382E+02  0.17057382595E+03  0.18052116913E+03  0.00000000000E+00 0. -1.
          1    1    1    2  501    0 -0.23028997848E+02  0.68550496189E+01  0.57139960185E+02  0.61986300882E+02  0.00000000000E+00 0. -1.
<scales pt_clust_5="13000.00000" pt_clust_6="13000.00000" pt_clust_7="13000.00000" pt_clust_8="13000.00000" pt_clust_9="24.02763"></scales>
<clustering>
<clus scale="   24.028">  2  9  1 -1</clus>
<clus scale="   78.609">  5  6 -1 -1</clus>
<clus scale="   85.510">  2  5  1 -1</clus>
<clus scale="   90.981">  7  8 -1 -1</clus>
<clus scale="   24.028">  2  5  1 -1</clus>
</clustering>
</event>
<event>
 9    2  0.5615294E-005  0.1141866E+03  0.7546771E-02  0.1257621E+00
          2   -1    0    0  502    0 -0.00000000000E+00  0.00000000000E+00  0.17190200911E+03  0.17190200911E+03  0.00000000000E+00 0. -1.
         21   -1    0    0  501  502  0.00000000000E+00 -0.00000000000E+00 -0.96925434855E+02  0.96925434855E+02  0.00000000000E+00 0. -1.
         23    2    1    2    0    0  0.51773957545E+02 -0.18022496326E+02  0.41610694720E+02  0.11532040454E+03  0.92531036599E+02 0.  0.
         24    2    1    2    0    0 -0.68185026264E+02  0.48123068994E+02  0.26574316605E+02  0.11855717564E+03  0.79903579502E+02 0.  0.
        -11    1    4    4    0    0 -0.14919429765E+02  0.56367204263E+02 -0.34448416774E+00  0.58309259730E+02  0.00000000000E+00 0.  1.
         12    1    4    4    0    0 -0.53265596499E+02 -0.82441352689E+01  0.26918800773E+02  0.60247915913E+02  0.00000000000E+00 0. -1.
        -11    1    3    3    0    0  0.31750544082E+02  0.36935754640E+02  0.23564239738E+02  0.54107489452E+02  0.00000000000E+00 0. -1.
         11    1    3    3    0    0  0.20023413464E+02 -0.54958250967E+02  0.18046454982E+02  0.61212915087E+02  0.00000000000E+00 0.  1.
          1    1    1    2  501    0  0.16411068719E+02 -0.30100572667E+02  0.67915629279E+01  0.34949863782E+02  0.00000000000E+00 0. -1.
<scales pt_clust_5="13000.00000" pt_clust_6="13000.00000" pt_clust_7="13000.00000" pt_clust_8="13000.00000" pt_clust_9="34.28364"></scales>
<clustering>
<clus scale="   34.284">  2  9  1 -1</clus>
<clus scale="   79.904">  5  6 -1 -1</clus>
<clus scale="   92.531">  7  8 -1 -1</clus>
<clus scale="  104.217">  2  5  1 -1</clus>
<clus scale="   34.284">  2  5  1 -1</clus>
</clustering>
</event>
<event>
 9    2  0.5615294E-005  0.1001413E+03  0.7546771E-02  0.1284282E+00
         21   -1    0    0  501  502  0.00000000000E+00  0.00000000000E+00  0.43940474718E+02  0.43940474718E+02  0.00000000000E+00 0.  1.
          2   -1    0    0  502    0 -0.00000000000E+00 -0.00000000000E+00 -0.40424208998E+03  0.40424208998E+03  0.00000000000E+00 0. -1.
         24    2    1    2    0    0  0.31112527583E+02  0.29253826557E+02 -0.25624667740E+03  0.27241541094E+03  0.82000126205E+02 0.  0.
         23    2    1    2    0    0 -0.48093031890E+02 -0.57842825188E+01 -0.10475385046E+03  0.14679051657E+03  0.90706609071E+02 0.  0.
        -13    1    3    3    0    0  0.29780477278E+02 -0.16344499088E+02 -0.45469155050E+02  0.56757938109E+02  0.00000000000E+00 0.  1.
         14    1    3    3    0    0  0.13320503045E+01  0.45598325645E+02 -0.21077752235E+03  0.21565747283E+03  0.00000000000E+00 0. -1.
        -11    1    4    4    0    0 -0.19547116428E+02  0.98781461267E+01  0.12419292855E+02  0.25177497226E+02  0.00000000000E+00 0.  1.
         11    1    4    4    0    0 -0.28545915462E+02 -0.15662428646E+02 -0.11717314332E+03  0.12161301935E+03  0.00000000000E+00 0. -1.
          1    1    1    2  501    0  0.16980504307E+02 -0.23469544038E+02  0.69891259631E+00  0.28976637187E+02  0.00000000000E+00 0. -1.
<scales pt_clust_5="13000.00000" pt_clust_6="13000.00000" pt_clust_7="13000.00000" pt_clust_8="13000.00000" pt_clust_9="28.96821"></scales>
<clustering>
<clus scale="   28.968">  1  9  2 -1</clus>
<clus scale="   82.000">  5  6 -1 -1</clus>
<clus scale="   90.707">  7  8 -1 -1</clus>
<clus scale="   92.329">  2  5  1 -1</clus>
<clus scale="   28.968">  1  5  2 -1</clus>
</clustering>
</event>
<event>
 9    2  0.5615294E-005  0.8825782E+02  0.7546771E-02  0.1313351E+00
         21   -1    0    0  501  502  0.00000000000E+00  0.00000000000E+00  0.50222816799E+03  0.50222816799E+03  0.00000000000E+00 0. -1.
          2   -1    0    0  502    0 -0.00000000000E+00 -0.00000000000E+00 -0.86186848713E+02  0.86186848713E+02  0.00000000000E+00 0. -1.
         24    2    1    2    0    0  0.16976794482E+02  0.20462713433E+02 -0.29514585196E+02  0.87217188852E+02  0.77645303142E+02 0.  0.
         23    2    1    2    0    0  0.38617339576E+02  0.99878998371E+01  0.66051059235E+02  0.11643572583E+03  0.87197928674E+02 0.  0.
        -13    1    3    3    0    0  0.71955375313E+01  0.29230278509E+02 -0.52629642880E+02  0.60630555430E+02  0.00000000000E+00 0.  1.
         14    1    3    3    0    0  0.97812569508E+01 -0.87675650766E+01  0.23115057685E+02  0.26586633421E+02  0.00000000000E+00 0. -1.
        -13    1    4    4    0    0  0.20570846523E+02 -0.14135605277E+02 -0.15579880778E+02  0.29422911961E+02  0.00000000000E+00 0. -1.
         13    1    4    4    0    0  0.18046493054E+02  0.24123505114E+02  0.81630940013E+02  0.87012813872E+02  0.00000000000E+00 0.  1.
          1    1    1    2  501    0 -0.55594134058E+02 -0.30450613270E+02  0.37950484524E+03  0.38476210202E+03  0.00000000000E+00 0. -1.
<scales pt_clust_5="13000.00000" pt_clust_6="13000.00000" pt_clust_7="13000.00000" pt_clust_8="13000.00000" pt_clust_9="63.38728"></scales>
<clustering>
<clus scale="   63.387">  1  9  2 -1</clus>
<clus scale="   77.645">  5  6 -1 -1</clus>
<clus scale="   78.834">  2  5  1 -1</clus>
<clus scale="   87.198">  7  8 -1 -1</clus>
<clus scale="   63.387">  1  5  2 -1</clus>
</clustering>
</event>
<event>
 9    2  0.5615294E-005  0.1253678E+03  0.7546771E-02  0.1237585E+00
         -3   -1    0    0    0  501 -0.00000000000E+00  0.00000000000E+00  0.38781944292E+03  0.38781944292E+03  0.00000000000E+00 0.  1.
         21   -1    0    0  501  502  0.00000000000E+00 -0.00000000000E+00 -0.12399589417E+03  0.12399589417E+03  0.00000000000E+00 0.  1.
         24    2    1    2    0    0  0.82202628333E+02 -0.60626740994E+02  0.28242919910E+03  0.31086289876E+03  0.80228520427E+02 0.  0.
         23    2    1    2    0    0 -0.50007912813E+02 -0.24444593932E+02  0.53061895006E+01  0.10690241005E+03  0.91113336624E+02 0.  0.
        -13    1    3    3    0    0  0.80798039101E+02 -0.43471844529E+02  0.27847758579E+03  0.29320281406E+03  0.00000000000E+00 0.  1.
         14    1    3    3    0    0  0.14045892319E+01 -0.17154896465E+02  0.39516133179E+01  0.17660084696E+02  0.00000000000E+00 0. -1.
        -11    1    4    4    0    0 -0.71585320704E+02 -0.34287024172E+02 -0.78865664174E+01  0.79763751772E+02  0.00000000000E+00 0.  1.
         11    1    4    4    0    0  0.21577407891E+02  0.98424302406E+01  0.13192755918E+02  0.27138658277E+02  0.00000000000E+00 0. -1.
         -4    1    1    2    0  502 -0.32194715520E+02  0.85071334926E+02 -0.23911839853E+02  0.94050028276E+02  0.00000000000E+00 0.  1.
<scales pt_clust_5="13000.00000" pt_clust_6="13000.00000" pt_clust_7="13000.00000" pt_clust_8="13000.00000" pt_clust_9="90.95951"></scales>
<clustering>
<clus scale="   80.229">  5  6 -1 -1</clus>
<clus scale="   90.960">  2  9  1 -1</clus>
<clus scale="   91.113">  7  8 -1 -1</clus>
<clus scale="  117.695">  1  5  2 -1</clus>
<clus scale="   90.960">  2  5  1 -1</clus>
</clustering>
</event>
<event>
 9    2  0.5615294E-005  0.1141738E+03  0.7546771E-02  0.1256680E+00
         21   -1    0    0  501  502  0.00000000000E+00  0.00000000000E+00  0.13577492049E+03  0.13577492049E+03  0.00000000000E+00 0.  1.
         -1   -1    0    0    0  501 -0.00000000000E+00 -0.00000000000E+00 -0.21962776057E+03  0.21962776057E+03  0.00000000000E+00 0.  1.
         23    2    1    2    0    0 -0.32508996607E+02  0.19324651343E+02  0.20802787952E+02  0.10020198679E+03  0.90429006183E+02 0.  0.
         24    2    1    2    0    0  0.80015756844E+02 -0.67174905477E+02 -0.11551831644E+01  0.13167385031E+03  0.80135380071E+02 0.  0.
        -13    1    4    4    0    0  0.73545550479E+02 -0.70345874630E+02 -0.26631223715E+02  0.10519844176E+03  0.00000000000E+00 0.  1.
         14    1    4    4    0    0  0.64702063650E+01  0.31709691528E+01  0.25476040551E+02  0.26475408551E+02  0.00000000000E+00 0. -1.
        -13    1    3    3    0    0  0.29094326014E+02  0.88529424387E+01 -0.79258560685E+01  0.31427274627E+02  0.00000000000E+00 0. -1.
         13    1    3    3    0    0 -0.61603322621E+02  0.10471708904E+02  0.28728644021E+02  0.68774712159E+02  0.00000000000E+00 0.  1.
         -2    1    1    2    0  502 -0.47506760238E+02  0.47850254134E+02 -0.10350044487E+03  0.12352684395E+03  0.00000000000E+00 0.  1.
<scales pt_clust_5="13000.00000" pt_clust_6="13000.00000" pt_clust_7="13000.00000" pt_clust_8="13000.00000" pt_clust_9="67.42806"></scales>
<clustering>
<clus scale="   67.428">  1  9  2 -1</clus>
<clus scale="   80.135">  5  6 -1 -1</clus>
<clus scale="   90.429">  7  8 -1 -1</clus>
<clus scale="  106.207">  1  5  2 -1</clus>
<clus scale="   67.428">  1  5  2 -1</clus>
</clustering>
</event>
<event>
 9    2  0.5615294E-005  0.1765583E+03  0.7546771E-02  0.1172239E+00
          2   -1    0    0  502    0 -0.00000000000E+00  0.00000000000E+00  0.63974086100E+03  0.63974086100E+03  0.00000000000E+00 0. -1.
         21   -1    0    0  501  502  0.00000000000E+00 -0.00000000000E+00 -0.10964773912E+03  0.10964773912E+03  0.00000000000E+00 0.  1.
         24    2    1    2    0    0  0.12323566530E+03  0.75740700209E+02  0.44034718032E+03  0.47087546186E+03  0.83032394219E+02 0.  0.
         23    2    1    2    0    0 -0.15683374623E+03 -0.76422605714E+02  0.12218169647E+03  0.23180795404E+03  0.91483998509E+02 0.  0.
        -11    1    3    3    0    0  0.27512483717E+02 -0.14265833068E+02  0.48219708468E+02  0.57320075350E+02  0.00000000000E+00 0.  1.
         12    1    3    3    0    0  0.95723181584E+02  0.90006533277E+02  0.39212747186E+03  0.41355538651E+03  0.00000000000E+00 0. -1.
        -11    1    4    4    0    0 -0.29180251731E+02  0.93913946482E+01  0.57062533104E+02  0.64775134649E+02  0.00000000000E+00 0. -1.
         11    1    4    4    0    0 -0.12765349450E+03 -0.85814000362E+02  0.65119163361E+02  0.16703281939E+03  0.00000000000E+00 0.  1.
          1    1    1    2  501    0  0.33598080930E+02  0.68190550536E+00 -0.32435754909E+02  0.46705184229E+02  0.00000000000E+00 0. -1.
<scales pt_clust_5="13000.00000" pt_clust_6="13000.00000" pt_clust_7="13000.00000" pt_clust_8="13000.00000" pt_clust_9="33.60500"></scales>
<clustering>
<clus scale="   33.605">  2  9  1 -1</clus>
<clus scale="   83.032">  5  6 -1 -1</clus>
<clus scale="   91.484">  7  8 -1 -1</clus>
<clus scale="  172.331">  1  5  2 -1</clus>
<clus scale="   33.605">  2  5  1 -1</clus>
</clustering>
</event>
<event>
 9    2  0.5615294E-005  0.1396782E+03  0.7546771E-02  0.1225041E+00
          2   -1    0    0  502    0 -0.00000000000E+00  0.00000000000E+00  0.81966126255E+03  0.81966126255E+03  0.00000000000E+00 0. -1.
         21   -1    0    0  501  502  0.00000000000E+00 -0.00000000000E+00 -0.39259522120E+02  0.39259522120E+02  0.00000000000E+00 0. -1.
         23    2    1    2    0    0 -0.97776402553E+02 -0.40673370793E+01  0.44542914120E+03  0.47083030767E+03  0.11703542481E+03 0.  0.
         24    2    1    2    0    0  0.33953521280E+02  0.61166429193E+02  0.14383137560E+03  0.17864207318E+03  0.79569793481E+02 0.  0.
        -11    1    4    4    0    0  0.71823012710E+01  0.24336632653E+02  0.12791683505E+03  0.13040925515E+03  0.00000000000E+00 0.  1.
         12    1    4    4    0    0  0.26771220009E+02  0.36829796540E+02  0.15914540556E+02  0.48232818029E+02  0.00000000000E+00 0. -1.
        -11    1    3    3    0    0 -0.96985555014E+02  0.38029358542E+02  0.24853770690E+03  0.26948733132E+03  0.00000000000E+00 0. -1.
         11    1    3    3    0    0 -0.79084753813E+00 -0.42096695622E+02  0.19689143430E+03  0.20134297634E+03  0.00000000000E+00 0.  1.
          1    1    1    2  501    0  0.63822881273E+02 -0.57099092114E+02  0.19114122363E+03  0.20944840382E+03  0.00000000000E+00 0. -1.
<scales pt_clust_5="13000.00000" pt_clust_6="13000.00000" pt_clust_7="13000.00000" pt_clust_8="13000.00000" pt_clust_9="85.63687"></scales>
<clustering>
<clus scale="   79.570">  5  6 -1 -1</clus>
<clus scale="   85.637">  2  9  1 -1</clus>
<clus scale="  110.200">  2  5  1 -1</clus>
<clus scale="  117.035">  7  8 -1 -1</clus>
<clus scale="   85.637">  2  5  1 -1</clus>
</clustering>
</event>
<event>
 9    2  0.5615294E-005  0.9252553E+02  0.7546771E-02  0.1305260E+00
         21   -1    0    0  501  502  0.00000000000E+00  0.00000000000E+00  0.86083726869E+02  0.86083726869E+02  0.00000000000E+00 0. -1.
          2   -1    0    0  502    0 -0.00000000000E+00 -0.00000000000E+00 -0.24281189257E+03  0.24281189257E+03  0.00000000000E+00 0. -1.
         24    2    1    2    0    0 -0.18572422014E+02  0.13725692656E+02 -0.11751847854E+03  0.14333985893E+03  0.78755271961E+02 0.  0.
         23    2    1    2    0    0 -0.27190782143E+02  0.44511412178E+02 -0.11457686321E+02  0.10646085053E+03  0.92097935216E+02 0.  0.
        -13    1    3    3    0    0  0.25013607807E+02  0.25191166486E+02 -0.38477165883E+02  0.52352342248E+02  0.00000000000E+00 0.  1.
         14    1    3    3    0    0 -0.43586029821E+02 -0.11465473830E+02 -0.79041312657E+02  0.90987516683E+02  0.00000000000E+00 0. -1.
        -13    1    4    4    0    0  0.27944591290E+02 -0.50145070225E+01 -0.15294787427E+02  0.32248658662E+02  0.00000000000E+00 0.  1.
         13    1    4    4    0    0 -0.55135373433E+02  0.49525919200E+02  0.38371011054E+01  0.74212191864E+02  0.00000000000E+00 0. -1.
          1    1    1    2  501    0  0.45763204157E+02 -0.58237104834E+02 -0.27752000835E+02  0.79094909979E+02  0.00000000000E+00 0. -1.
<scales pt_clust_5="13000.00000" pt_clust_6="13000.00000" pt_clust_7="13000.00000" pt_clust_8="13000.00000" pt_clust_9="74.06640"></scales>
<clustering>
<clus scale="   74.066">  1  9  2 -1</clus>
<clus scale="   78.755">  5  6 -1 -1</clus>
<clus scale="   79.255">  2  5  1 -1</clus>
<clus scale="   92.098">  7  8 -1 -1</clus>
<clus scale="   74.066">  1  5  2 -1</clus>
</clustering>
</event>
<event>
 9    2  0.5615294E-005  0.9237734E+02  0.7546771E-02  0.1301277E+00
          2   -1    0    0  502    0 -0.00000000000E+00  0.00000000000E+00  0.10383366186E+04  0.10383366186E+04  0.00000000000E+00 0. -1.
         21   -1    0    0  501  502  0.00000000000E+00 -0.00000000000E+00 -0.22207972815E+02  0.22207972815E+02  0.00000000000E+00 0.  1.
         24    2    1    2    0    0 -0.25845760907E+02 -0.59584540754E+01  0.75460279302E+03  0.75951611477E+03  0.82072204951E+02 0.  0.
         23    2    1    2    0    0  0.26537431943E+01  0.26504810168E+02  0.99870158914E+02  0.13643022092E+03  0.89048353290E+02 0.  0.
        -11    1    3    3    0    0  0.16920282562E+02 -0.16180080315E+02  0.76811247757E+02  0.80299805373E+02  0.00000000000E+00 0.  1.
         12    1    3    3    0    0 -0.42766043469E+02  0.10221626240E+02  0.67779154526E+03  0.67921630939E+03  0.00000000000E+00 0. -1.
        -11    1    4    4    0    0 -0.11139324876E+02 -0.30703472141E+02  0.24616758650E+02  0.40899542377E+02  0.00000000000E+00 0.  1.
         11    1    4    4    0    0  0.13793068070E+02  0.57208282309E+02  0.75253400264E+02  0.95530678543E+02  0.00000000000E+00 0. -1.
          1    1    1    2  501    0  0.23192017713E+02 -0.20546356093E+02  0.16165569381E+03  0.16459825569E+03  0.00000000000E+00 0. -1.
<scales pt_clust_5="13000.00000" pt_clust_6="13000.00000" pt_clust_7="13000.00000" pt_clust_8="13000.00000" pt_clust_9="30.98424"></scales>
<clustering>
<clus scale="   30.984">  2  9  1 -1</clus>
<clus scale="   82.072">  5  6 -1 -1</clus>
<clus scale="   85.673">  1  5  2 -1</clus>
<clus scale="   89.048">  7  8 -1 -1</clus>
<clus scale="   30.984">  2  5  1 -1</clus>
</clustering>
</event>
<event>
 9    2  0.5615294E-005  0.2431507E+03  0.7546771E-02  0.1118516E+00
          2   -1    0    0  502    0 -0.00000000000E+00  0.00000000000E+00  0.16646231317E+04  0.16646231317E+04  0.00000000000E+00 0. -1.
         21   -1    0    0  501  502  0.00000000000E+00 -0.00000000000E+00 -0.48390090520E+02  0.48390090520E+02  0.00000000000E+00 0. -1.
         24    2    1    2    0    0 -0.21422411820E+03  0.28103840208E+02  0.95485972301E+03  0.98212314702E+03  0.78275070370E+02 0.  0.
         23    2    1    2    0    0  0.24721683426E+03 -0.63644205833E+01  0.50715541617E+03  0.57169119650E+03  0.92019231782E+02 0.  0.
        -13    1    3    3    0    0 -0.55105253819E+02 -0.18871308312E+02  0.16367104309E+03  0.17372658295E+03  0.00000000000E+00 0.  1.
         14    1    3    3    0    0 -0.15911886438E+03  0.46975148521E+02  0.79118867992E+03  0.80839656408E+03  0.00000000000E+00 0. -1.
        -13    1    4    4    0    0  0.52716821419E+02  0.33443528573E+02  0.16043844931E+03  0.17215698906E+03  0.00000000000E+00 0.  1.
         13    1    4    4    0    0  0.19450001284E+03 -0.39807949156E+02  0.34671696686E+03  0.39953420744E+03  0.00000000000E+00 0. -1.
          1    1    1    2  501    0 -0.32992716065E+02 -0.21739419625E+02  0.15421790196E+03  0.15919887865E+03  0.00000000000E+00 0. -1.
<scales pt_clust_5="13000.00000" pt_clust_6="13000.00000" pt_clust_7="13000.00000" pt_clust_8="13000.00000" pt_clust_9="39.51105"></scales>
<clustering>
<clus scale="   39.511">  2  9  1 -1</clus>
<clus scale="   78.275">  5  6 -1 -1</clus>
<clus scale="   92.019">  7  8 -1 -1</clus>
<clus scale="  238.289">  1  5  2 -1</clus>
<clus scale="   39.511">  2  5  1 -1</clus>
</clustering>
</event>
<event>
 9    2  0.5615294E-005  0.1635151E+03  0.7546771E-02  0.1203120E+00
         21   -1    0    0  501  502  0.00000000000E+00  0.00000000000E+00  0.18680740989E+03  0.18680740989E+03  0.00000000000E+00 0. -1.
          2   -1    0    0  502    0 -0.00000000000E+00 -0.00000000000E+00 -0.57418853572E+03  0.57418853572E+03  0.00000000000E+00 0. -1.
         24    2    1    2    0    0 -0.25999575873E+02 -0.70064135431E+02 -0.38254067000E+03  0.39786136440E+03  0.79820674417E+02 0.  0.
         23    2    1    2    0    0  0.69254820949E+02  0.18331479412E+03 -0.68141991562E+02  0.22637269929E+03  0.90557848943E+02 0.  0.
        -11    1    3    3    0    0 -0.17143180549E+02  0.13469622766E+02 -0.44691009176E+02  0.49725302190E+02  0.00000000000E+00 0.  1.
         12    1    3    3    0    0 -0.88563953244E+01 -0.83533758197E+02 -0.33784966082E+03  0.34813606221E+03  0.00000000000E+00 0. -1.
        -13    1    4    4    0    0  0.22814746938E+02  0.14359767859E+03 -0.77158946115E+02  0.16460349006E+03  0.00000000000E+00 0. -1.
         13    1    4    4    0    0  0.46440074012E+02  0.39717115523E+02  0.90169545533E+01  0.61769209231E+02  0.00000000000E+00 0.  1.
          1    1    1    2  501    0 -0.43255245076E+02 -0.11325065869E+03  0.63301535728E+02  0.13676188191E+03  0.00000000000E+00 0. -1.
<scales pt_clust_5="13000.00000" pt_clust_6="13000.00000" pt_clust_7="13000.00000" pt_clust_8="13000.00000" pt_clust_9="136.14863"></scales>
<clustering>
<clus scale="   79.821">  5  6 -1 -1</clus>
<clus scale="   90.558">  7  8 -1 -1</clus>
<clus scale="  109.345">  2  5  1 -1</clus>
<clus scale="  136.149">  1  9  2 -1</clus>
<clus scale="  136.149">  1  5  2 -1</clus>
</clustering>
</event>
<event>
 9    2  0.5615294E-005  0.1261113E+03  0.7546771E-02  0.1248409E+00
          2   -1    0    0  502    0 -0.00000000000E+00  0.00000000000E+00  0.12170460829E+04  0.12170460829E+04  0.00000000000E+00 0. -1.
         21   -1    0    0  501  502  0.00000000000E+00 -0.00000000000E+00 -0.40004913181E+02  0.40004913181E+02  0.00000000000E+00 0. -1.
         24    2    1    2    0    0  0.32093038992E+02  0.35450875354E+02  0.84249233023E+03  0.84759956719E+03  0.79655333041E+02 0.  0.
         23    2    1    2    0    0  0.32588615389E+02  0.35854731705E+02  0.27986403371E+03  0.29873271323E+03  0.92573089786E+02 0.  0.
        -13    1    3    3    0    0  0.21786035862E+02 -0.16404994765E+02  0.11503641347E+03  0.11822491969E+03  0.00000000000E+00 0.  1.
         14    1    3    3    0    0  0.10307003130E+02  0.51855870119E+02  0.72745591676E+03  0.72937464750E+03  0.00000000000E+00 0. -1.
        -13    1    4    4    0    0  0.63192271872E+02  0.24858091128E+02  0.14667998144E+03  0.16163602592E+03  0.00000000000E+00 0. -1.
         13    1    4    4    0    0 -0.30603656483E+02  0.10996640577E+02  0.13318405226E+03  0.13709668731E+03  0.00000000000E+00 0.  1.
          1    1    1    2  501    0 -0.64681654381E+02 -0.71305607059E+02  0.54684805748E+02  0.11071871563E+03  0.00000000000E+00 0. -1.
<scales pt_clust_5="13000.00000" pt_clust_6="13000.00000" pt_clust_7="13000.00000" pt_clust_8="13000.00000" pt_clust_9="85.64041"></scales>
<clustering>
<clus scale="   79.655">  5  6 -1 -1</clus>
<clus scale="   92.573">  7  8 -1 -1</clus>
<clus scale="   92.907">  1  5  2 -1</clus>
<clus scale="   85.640">  2  9  1 -1</clus>
<clus scale="   85.640">  2  5  1 -1</clus>
</clustering>
</event>
<event>
 9    2  0.5615294E-005  0.1101803E+03  0.7546771E-02  0.1267078E+00
          2   -1    0    0  502    0 -0.00000000000E+00  0.00000000000E+00  0.41710094063E+03  0.41710094063E+03  0.00000000000E+00 0. -1.
         21   -1    0    0  501  502  0.00000000000E+00 -0.00000000000E+00 -0.55872051248E+02  0.55872051248E+02  0.00000000000E+00 0.  1.
         23    2    1    2    0    0 -0.81078854288E+02 -0.18233033265E+01  0.21329192651E+03  0.24573358114E+03  0.91183561781E+02 0.  0.
         24    2    1    2    0    0  0.21604158989E+02  0.18668776041E+02  0.15043818014E+02  0.80673393930E+02  0.73936575139E+02 0.  0.
        -13    1    4    4    0    0  0.19440995334E+02 -0.11120354309E+02 -0.23134808154E+02  0.32199905712E+02  0.00000000000E+00 0.  1.
         14    1    4    4    0    0  0.21631636546E+01  0.29789130349E+02  0.38178626168E+02  0.48473488218E+02  0.00000000000E+00 0. -1.
        -11    1    3    3    0    0 -0.12732525642E+02  0.36243519768E+02  0.10750002186E+03  0.11415763065E+03  0.00000000000E+00 0.  1.
         11    1    3    3    0    0 -0.68346328646E+02 -0.38066823094E+02  0.10579190464E+03  0.13157595049E+03  0.00000000000E+00 0. -1.
          1    1    1    2  501    0  0.59474695299E+02 -0.16845472714E+02  0.13289314486E+03  0.14656601680E+03  0.00000000000E+00 0. -1.
<scales pt_clust_5="13000.00000" pt_clust_6="13000.00000" pt_clust_7="13000.00000" pt_clust_8="13000.00000" pt_clust_9="61.81434"></scales>
<clustering>
<clus scale="   61.814">  2  9  1 -1</clus>
<clus scale="   73.937">  5  6 -1 -1</clus>
<clus scale="   91.184">  7  8 -1 -1</clus>
<clus scale="   96.394">  2  5  1 -1</clus>
<clus scale="   61.814">  2  5  1 -1</clus>
</clustering>
</event>
<event>
 9    2  0.5615294E-005  0.1233105E+03  0.7546771E-02  0.1253280E+00
          2   -1    0    0  502    0 -0.00000000000E+00  0.00000000000E+00  0.46447598176E+02  0.46447598176E+02  0.00000000000E+00 0. -1.
         21   -1    0    0  501  502  0.00000000000E+00 -0.00000000000E+00 -0.54798775508E+03  0.54798775508E+03  0.00000000000E+00 0. -1.
         24    2    1    2    0    0 -0.80689914813E-01 -0.34811307706E+02 -0.11291962727E+03  0.14263707272E+03  0.79891542961E+02 0.  0.
         23    2    1    2    0    0 -0.23946431616E+02  0.62397181832E+02 -0.39279110463E+03  0.41497876511E+03  0.11599863675E+03 0.  0.
        -11    1    3    3    0    0  0.13516254069E+02  0.20655534205E+02 -0.13900827668E+02  0.28329723387E+02  0.00000000000E+00 0.  1.
         12    1    3    3    0    0 -0.13596943983E+02 -0.55466841911E+02 -0.99018799601E+02  0.11430734933E+03  0.00000000000E+00 0. -1.
        -13    1    4    4    0    0 -0.69845812129E+02  0.45688253109E+02 -0.21600303137E+03  0.23156675820E+03  0.00000000000E+00 0. -1.
         13    1    4    4    0    0  0.45899380513E+02  0.16708928723E+02 -0.17678807326E+03  0.18341200691E+03  0.00000000000E+00 0.  1.
          1    1    1    2  501    0  0.24027121531E+02 -0.27585874126E+02  0.41705749948E+01  0.36819515425E+02  0.00000000000E+00 0. -1.
<scales pt_clust_5="13000.00000" pt_clust_6="13000.00000" pt_clust_7="13000.00000" pt_clust_8="13000.00000" pt_clust_9="36.58257"></scales>
<clustering>
<clus scale="   36.583">  2  9  1 -1</clus>
<clus scale="   79.892">  5  6 -1 -1</clus>
<clus scale="   90.180">  1  5  2 -1</clus>
<clus scale="  115.999">  7  8 -1 -1</clus>
<clus scale="   36.583">  2  5  1 -1</clus>
</clustering>
</event>
<event>
 9    2  0.6086824E-005  0.1128680E+03  0.7546771E-02  0.1255825E+00
          2   -1    0    0  502    0 -0.00000000000E+00  0.00000000000E+00  0.51911561169E+03  0.51911561169E+03  0.00000000000E+00 0. -1.
         21   -1    0    0  501  502  0.00000000000E+00 -0.00000000000E+00 -0.10859062378E+03  0.10859062378E+03  0.00000000000E+00 0. -1.
         24    2    1    2    0    0  0.59430753914E+02 -0.52513454929E+02  0.34995963196E+03  0.37084688963E+03  0.93626887640E+02 0.  0.
         23    2    1    2    0    0 -0.53587659149E+02 -0.45144079992E+02  0.98312744183E+02  0.15199752629E+03  0.92348400943E+02 0.  0.
        -11    1    3    3    0    0 -0.23702989366E+02 -0.16256776885E+02  0.52312746166E+02  0.59688674897E+02  0.00000000000E+00 0.  1.
         12    1    3    3    0    0  0.83133743279E+02 -0.36256678044E+02  0.29764688579E+03  0.31115821473E+03  0.00000000000E+00 0. -1.
        -11    1    4    4    0    0  0.80910715944E+01  0.22729593321E+02  0.22852889473E+02  0.33231828258E+02  0.00000000000E+00 0.  1.
         11    1    4    4    0    0 -0.61678730744E+02 -0.67873673313E+02  0.75459854710E+02  0.11876569803E+03  0.00000000000E+00 0. -1.
          1    1    1    2  501    0 -0.58430947646E+01  0.97657534920E+02 -0.37747388226E+02  0.10486181956E+03  0.00000000000E+00 0. -1.
<scales pt_clust_5="13000.00000" pt_clust_6="13000.00000" pt_clust_7="13000.00000" pt_clust_8="13000.00000" pt_clust_9="97.83218"></scales>
<clustering>
<clus scale="   92.348">  7  8 -1 -1</clus>
<clus scale="   93.627">  5  6 -1 -1</clus>
<clus scale="   97.832">  2  9  1 -1</clus>
<clus scale="  111.810">  2  7  1 -1</clus>
<clus scale="   97.832">  2  5  1 -1</clus>
</clustering>
</event>
<event>
 9    2  0.5615294E-005  0.1068281E+03  0.7546771E-02  0.1271179E+00
          2   -1    0    0  502    0 -0.00000000000E+00  0.00000000000E+00  0.12623126034E+04  0.12623126034E+04  0.00000000000E+00 0. -1.
         21   -1    0    0  501  502  0.00000000000E+00 -0.00000000000E+00 -0.13871505375E+02  0.13871505375E+02  0.00000000000E+00 0.  1.
         24    2    1    2    0    0 -0.18162060524E+02 -0.47023894634E+02  0.61235763383E+03  0.61953748063E+03  0.79395913573E+02 0.  0.
         23    2    1    2    0    0 -0.13183161607E+02  0.76697679372E+02  0.44141902439E+03  0.45725429986E+03  0.90412443170E+02 0.  0.
        -11    1    3    3    0    0  0.10570381418E+02 -0.47247014028E+02  0.18550481590E+03  0.19171867415E+03  0.00000000000E+00 0.  1.
         12    1    3    3    0    0 -0.28732441942E+02  0.22311939368E+00  0.42685281793E+03  0.42781880648E+03  0.00000000000E+00 0. -1.
        -11    1    4    4    0    0 -0.34435591655E+02  0.83692142541E+02  0.40070536395E+03  0.41079797151E+03  0.00000000000E+00 0.  1.
         11    1    4    4    0    0  0.21252430049E+02 -0.69944631689E+01  0.40713660434E+02  0.46456328352E+02  0.00000000000E+00 0. -1.
          1    1    1    2  501    0  0.31345222130E+02 -0.29673784738E+02  0.19466443979E+03  0.19939232827E+03  0.00000000000E+00 0. -1.
<scales pt_clust_5="13000.00000" pt_clust_6="13000.00000" pt_clust_7="13000.00000" pt_clust_8="13000.00000" pt_clust_9="43.16314"></scales>
<clustering>
<clus scale="   43.163">  2  9  1 -1</clus>
<clus scale="   79.396">  5  6 -1 -1</clus>
<clus scale="   90.412">  7  8 -1 -1</clus>
<clus scale="   97.681">  1  5  2 -1</clus>
<clus scale="   43.163">  2  5  1 -1</clus>
</clustering>
</event>
<event>
 9    2  0.5615294E-005  0.1125736E+03  0.7546771E-02  0.1265894E+00
         21   -1    0    0  501  502  0.00000000000E+00  0.00000000000E+00  0.59262960329E+02  0.59262960329E+02  0.00000000000E+00 0. -1.
          2   -1    0    0  502    0 -0.00000000000E+00 -0.00000000000E+00 -0.38451654027E+03  0.38451654027E+03  0.00000000000E+00 0. -1.
         24    2    1    2    0    0  0.38023848700E+02  0.25706013796E+02 -0.11162273939E+03  0.14495677183E+03  0.80288339963E+02 0.  0.
         23    2    1    2    0    0  0.35881459832E+02  0.33779231342E+02 -0.64767077400E+02  0.12229820074E+03  0.91288334192E+02 0.  0.
        -11    1    3    3    0    0  0.44913604741E+02  0.13759028152E+02 -0.11996838701E+03  0.12883693813E+03  0.00000000000E+00 0.  1.
         12    1    3    3    0    0 -0.68897560407E+01  0.11946985644E+02  0.83456476137E+01  0.16119833695E+02  0.00000000000E+00 0. -1.
        -13    1    4    4    0    0 -0.20118316105E+02  0.14829289149E+02  0.10054047267E+02  0.26939530917E+02  0.00000000000E+00 0.  1.
         13    1    4    4    0    0  0.55999775937E+02  0.18949942193E+02 -0.74821124666E+02  0.95358669823E+02  0.00000000000E+00 0. -1.
          1    1    1    2  501    0 -0.73905308532E+02 -0.59485245138E+02 -0.14886376315E+03  0.17652452803E+03  0.00000000000E+00 0. -1.
<scales pt_clust_5="13000.00000" pt_clust_6="13000.00000" pt_clust_7="13000.00000" pt_clust_8="13000.00000" pt_clust_9="65.87307"></scales>
<clustering>
<clus scale="   80.288">  5  6 -1 -1</clus>
<clus scale="   91.288">  7  8 -1 -1</clus>
<clus scale="   92.482">  2  5  1 -1</clus>
<clus scale="   65.873">  1  9  2 -1</clus>
<clus scale="   65.873">  1  5  2 -1</clus>
</clustering>
</event>
<event>
 9    2  0.5615294E-005  0.1138083E+03  0.7546771E-02  0.1258299E+00
          2   -1    0    0  502    0 -0.00000000000E+00  0.00000000000E+00  0.76203529558E+03  0.76203529558E+03  0.00000000000E+00 0. -1.
         21   -1    0    0  501  502  0.00000000000E+00 -0.00000000000E+00 -0.68727858759E+02  0.68727858759E+02  0.00000000000E+00 0. -1.
         24    2    1    2    0    0 -0.65886486497E+02  0.37817354899E+02  0.43426115053E+03  0.44823428574E+03  0.80994114725E+02 0.  0.
         23    2    1    2    0    0 -0.21738329140E+02  0.28991571963E+00 -0.10564676678E+02  0.96486312774E+02  0.93409620246E+02 0.  0.
        -13    1    3    3    0    0 -0.11217835471E+02  0.31894751122E+02  0.51912946810E+02  0.61952151119E+02  0.00000000000E+00 0.  1.
         14    1    3    3    0    0 -0.54668651026E+02  0.59226037772E+01  0.38234820372E+03  0.38628213462E+03  0.00000000000E+00 0. -1.
        -11    1    4    4    0    0  0.28895337670E+02  0.13249548343E+02  0.18401801141E+02  0.36730332909E+02  0.00000000000E+00 0.  1.
         11    1    4    4    0    0 -0.50633666810E+02 -0.12959632623E+02 -0.28966477819E+02  0.59755979865E+02  0.00000000000E+00 0. -1.
          1    1    1    2  501    0  0.87624815637E+02 -0.38107270619E+02  0.26961096297E+03  0.28604255582E+03  0.00000000000E+00 0. -1.
<scales pt_clust_5="13000.00000" pt_clust_6="13000.00000" pt_clust_7="13000.00000" pt_clust_8="13000.00000" pt_clust_9="95.55251"></scales>
<clustering>
<clus scale="   80.994">  5  6 -1 -1</clus>
<clus scale="   93.410">  7  8 -1 -1</clus>
<clus scale="   95.553">  2  9  1 -1</clus>
<clus scale="  103.861">  1  5  2 -1</clus>
<clus scale="   95.553">  2  5  1 -1</clus>
</clustering>
</event>
<event>
 9    2  0.5615294E-005  0.1350127E+03  0.7546771E-02  0.1221565E+00
          2   -1    0    0  502    0 -0.00000000000E+00  0.00000000000E+00  0.11804092726E+04  0.11804092726E+04  0.00000000000E+00 0. -1.
         21   -1    0    0  501  502  0.00000000000E+00 -0.00000000000E+00 -0.83343838117E+02  0.83343838117E+02  0.00000000000E+00 0.  1.
         24    2    1    2    0    0  0.72578223211E+02  0.56604541672E+02  0.87031196334E+03  0.87916942134E+03  0.83811009145E+02 0.  0.
         23    2    1    2    0    0 -0.14671571840E+03 -0.98396317295E+02  0.22455670715E+03  0.29944999173E+03  0.89650686223E+02 0.  0.
        -11    1    3    3    0    0  0.14452405877E+02 -0.21975984653E+02  0.15612004213E+03  0.15832019294E+03  0.00000000000E+00 0.  1.
         12    1    3    3    0    0  0.58125817334E+02  0.78580526326E+02  0.71419192122E+03  0.72084922840E+03  0.00000000000E+00 0. -1.
        -13    1    4    4    0    0 -0.10910242057E+03 -0.10467878751E+03  0.13734793893E+03  0.20426806666E+03  0.00000000000E+00 0.  1.
         13    1    4    4    0    0 -0.37613297829E+02  0.62824702179E+01  0.87208768225E+02  0.95181925075E+02  0.00000000000E+00 0. -1.
          1    1    1    2  501    0  0.74137495187E+02  0.41791775623E+02  0.21967639847E+01  0.85133697643E+02  0.00000000000E+00 0. -1.
<scales pt_clust_5="13000.00000" pt_clust_6="13000.00000" pt_clust_7="13000.00000" pt_clust_8="13000.00000" pt_clust_9="85.10535"></scales>
<clustering>
<clus scale="   83.811">  5  6 -1 -1</clus>
<clus scale="   85.105">  2  9  1 -1</clus>
<clus scale="   89.651">  7  8 -1 -1</clus>
<clus scale="  131.208">  1  5  2 -1</clus>
<clus scale="   85.105">  2  5  1 -1</clus>
</clustering>
</event>
<event>
 9    2  0.5615294E-005  0.1273541E+03  0.7546771E-02  0.1233087E+00
         -3   -1    0    0    0  501 -0.00000000000E+00  0.00000000000E+00  0.79439400037E+02  0.79439400037E+02  0.00000000000E+00 0.  1.
         21   -1    0    0  501  502  0.00000000000E+00 -0.00000000000E+00 -0.58021212718E+03  0.58021212718E+03  0.00000000000E+00 0. -1.
         23    2    1    2    0    0 -0.17097299417E+02 -0.79040326720E+02 -0.17179083216E+02  0.12313995245E+03  0.91261361454E+02 0.  0.
         24    2    1    2    0    0  0.80827128753E+02  0.11032901496E+03 -0.32541022671E+03  0.36312626212E+03  0.85225291482E+02 0.  0.
        -11    1    4    4    0    0  0.44832104218E+02  0.10634847087E+01 -0.11279981625E+03  0.12138717854E+03  0.00000000000E+00 0.  1.
         12    1    4    4    0    0  0.35995024535E+02  0.10926553025E+03 -0.21261041046E+03  0.24173908358E+03  0.00000000000E+00 0. -1.
        -11    1    3    3    0    0 -0.45071791981E+02 -0.61950839549E+02 -0.36740105786E+02  0.84965924502E+02  0.00000000000E+00 0.  1.
         11    1    3    3    0    0  0.27974492564E+02 -0.17089487171E+02  0.19561022570E+02  0.38174027951E+02  0.00000000000E+00 0. -1.
         -4    1    1    2    0  502 -0.63729829337E+02 -0.31288688240E+02 -0.15818341721E+03  0.17338531264E+03  0.00000000000E+00 0.  1.
<scales pt_clust_5="13000.00000" pt_clust_6="13000.00000" pt_clust_7="13000.00000" pt_clust_8="13000.00000" pt_clust_9="70.99629"></scales>
<clustering>
<clus scale="   70.996">  2  9  1 -1</clus>
<clus scale="   85.225">  5  6 -1 -1</clus>
<clus scale="   91.261">  7  8 -1 -1</clus>
<clus scale="  123.101">  2  5  1 -1</clus>
<clus scale="   70.996">  2  5  1 -1</clus>
</clustering>
</event>
<event>
 9    2  0.5615294E-005  0.1036957E+03  0.7546771E-02  0.1276781E+00
         21   -1    0    0  501  502  0.00000000000E+00  0.00000000000E+00  0.10139889656E+03  0.10139889656E+03  0.00000000000E+00 0.  1.
          2   -1    0    0  502    0 -0.00000000000E+00 -0.00000000000E+00 -0.15971388018E+03  0.15971388018E+03  0.00000000000E+00 0. -1.
         23    2    1    2    0    0 -0.44601474181E+02 -0.23521264493E+02 -0.20996501031E+02  0.10523214333E+03  0.89946703953E+02 0.  0.
         24    2    1    2    0    0  0.57325514725E+02 -0.23573297720E+01  0.10867175100E+02  0.99724952886E+02  0.80840578247E+02 0.  0.
        -11    1    4    4    0    0  0.77468759115E+00  0.32568422459E+02  0.16163209671E+01  0.32617706477E+02  0.00000000000E+00 0.  1.
         12    1    4    4    0    0  0.56550827134E+02 -0.34925752231E+02  0.92508541329E+01  0.67107246409E+02  0.00000000000E+00 0. -1.
        -11    1    3    3    0    0  0.51379845852E+01  0.28491099420E+02 -0.16033106571E+02  0.33093838370E+02  0.00000000000E+00 0. -1.
         11    1    3    3    0    0 -0.49739458766E+02 -0.52012363913E+02 -0.49633944608E+01  0.72138304961E+02  0.00000000000E+00 0.  1.
          1    1    1    2  501    0 -0.12724040544E+02  0.25878594265E+02 -0.48185657682E+02  0.56155680525E+02  0.00000000000E+00 0. -1.
<scales pt_clust_5="13000.00000" pt_clust_6="13000.00000" pt_clust_7="13000.00000" pt_clust_8="13000.00000" pt_clust_9="28.83754"></scales>
<clustering>
<clus scale="   28.838">  1  9  2 -1</clus>
<clus scale="   80.841">  5  6 -1 -1</clus>
<clus scale="   89.947">  7  8 -1 -1</clus>
<clus scale="   95.904">  1  5  2 -1</clus>
<clus scale="   28.838">  1  5  2 -1</clus>
</clustering>
</event>
<event>
 9    2  0.5615294E-005  0.1435794E+03  0.7546771E-02  0.1210943E+00
          2   -1    0    0  502    0 -0.00000000000E+00  0.00000000000E+00  0.84093474865E+03  0.84093474865E+03  0.00000000000E+00 0. -1.
         21   -1    0    0  501  502  0.00000000000E+00 -0.00000000000E+00 -0.34812494637E+02  0.34812494637E+02  0.00000000000E+00 0. -1.
         24    2    1    2    0    0  0.38410555471E+02  0.93780411309E+02  0.34164226382E+03  0.36529458557E+03  0.80315387709E+02 0.  0.
         23    2    1    2    0    0  0.17330553562E+01 -0.12806110812E+03  0.37156923187E+03  0.40359254039E+03  0.91763792912E+02 0.  0.
        -13    1    3    3    0    0  0.84270030855E+01  0.25482565812E+02  0.16060613865E+02  0.31278089122E+02  0.00000000000E+00 0.  1.
         14    1    3    3    0    0  0.29983552385E+02  0.68297845497E+02  0.32558164995E+03  0.33401649645E+03  0.00000000000E+00 0. -1.
        -13    1    4    4    0    0 -0.22709160448E+02 -0.71743312362E+02  0.30002348314E+03  0.30931682668E+03  0.00000000000E+00 0.  1.
         13    1    4    4    0    0  0.24442215805E+02 -0.56317795754E+02  0.71545748735E+02  0.94275713702E+02  0.00000000000E+00 0. -1.
          1    1    1    2  501    0 -0.40143610827E+02  0.34280696807E+02  0.92910758326E+02  0.10686011733E+03  0.00000000000E+00 0. -1.
<scales pt_clust_5="13000.00000" pt_clust_6="13000.00000" pt_clust_7="13000.00000" pt_clust_8="13000.00000" pt_clust_9="52.78897"></scales>
<clustering>
<clus scale="   52.789">  2  9  1 -1</clus>
<clus scale="   80.315">  5  6 -1 -1</clus>
<clus scale="   91.764">  7  8 -1 -1</clus>
<clus scale="  136.547">  1  5  2 -1</clus>
<clus scale="   52.789">  2  5  1 -1</clus>
</clustering>
</event>
<event>
 9    2  0.5615294E-005  0.1473396E+03  0.7546771E-02  0.1213097E+00
          4   -1    0    0  502    0 -0.00000000000E+00  0.00000000000E+00  0.45666984512E+02  0.45666984512E+02  0.00000000000E+00 0. -1.
         21   -1    0    0  501  502  0.00000000000E+00 -0.00000000000E+00 -0.47409611181E+03  0.47409611181E+03  0.00000000000E+00 0.  1.
         24    2    1    2    0    0  0.94765527205E+02  0.18737762784E+02 -0.15531102678E+03  0.20090937446E+03  0.83135147835E+02 0.  0.
         23    2    1    2    0    0 -0.73588814573E+02 -0.16930522022E+02 -0.21398184937E+03  0.25601412068E+03  0.11854552679E+03 0.  0.
        -11    1    3    3    0    0  0.57556829620E+02 -0.30717342250E+02 -0.86784438169E+02  0.10857201508E+03  0.00000000000E+00 0.  1.
         12    1    3    3    0    0  0.37208697585E+02  0.49455105034E+02 -0.68526588606E+02  0.92337359373E+02  0.00000000000E+00 0. -1.
        -11    1    4    4    0    0 -0.35590075245E+02  0.46000799507E+02 -0.14054696690E+03  0.15210580829E+03  0.00000000000E+00 0.  1.
         11    1    4    4    0    0 -0.37998739328E+02 -0.62931321528E+02 -0.73434882469E+02  0.10390831239E+03  0.00000000000E+00 0. -1.
          3    1    1    2  501    0 -0.21176712632E+02 -0.18072407618E+01 -0.59136251157E+02  0.62839601192E+02  0.00000000000E+00 0. -1.
<scales pt_clust_5="13000.00000" pt_clust_6="13000.00000" pt_clust_7="13000.00000" pt_clust_8="13000.00000" pt_clust_9="21.25369"></scales>
<clustering>
<clus scale="   21.254">  2  9  1 -1</clus>
<clus scale="   83.135">  5  6 -1 -1</clus>
<clus scale="  118.546">  7  8 -1 -1</clus>
<clus scale="  120.695">  1  5  2 -1</clus>
<clus scale="   21.254">  2  5  1 -1</clus>
</clustering>
</event>
<event>
 9    2  0.5615294E-005  0.1724357E+03  0.7546771E-02  0.1176017E+00
         -3   -1    0    0    0  501 -0.00000000000E+00  0.00000000000E+00  0.14090219610E+04  0.14090219610E+04  0.00000000000E+00 0.  1.
         21   -1    0    0  501  502  0.00000000000E+00 -0.00000000000E+00 -0.31906371504E+02  0.31906371504E+02  0.00000000000E+00 0.  1.
         23    2    1    2    0    0  0.93781907507E+02  0.13475152298E+03  0.90666397725E+03  0.92627213142E+03  0.94802292591E+02 0.  0.
         24    2    1    2    0    0 -0.86287461684E+02 -0.80271152031E+02  0.38991814578E+03  0.41713739902E+03  0.89880283456E+02 0.  0.
        -11    1    4    4    0    0 -0.25643049626E+02 -0.34797858980E+02  0.39303602466E+02  0.58422856405E+02  0.00000000000E+00 0.  1.
         12    1    4    4    0    0 -0.60644412057E+02 -0.45473293051E+02  0.35061454332E+03  0.35871454261E+03  0.00000000000E+00 0. -1.
        -13    1    3    3    0    0  0.10292417973E+03  0.88474323960E+02  0.76539621835E+03  0.77733677633E+03  0.00000000000E+00 0.  1.
         13    1    3    3    0    0 -0.91422722201E+01  0.46277199022E+02  0.14126775890E+03  0.14893535508E+03  0.00000000000E+00 0. -1.
         -4    1    1    2    0  502 -0.74944458238E+01 -0.54480370951E+02  0.80533466480E+02  0.97518802087E+02  0.00000000000E+00 0.  1.
<scales pt_clust_5="13000.00000" pt_clust_6="13000.00000" pt_clust_7="13000.00000" pt_clust_8="13000.00000" pt_clust_9="54.99343"></scales>
<clustering>
<clus scale="   54.993">  2  9  1 -1</clus>
<clus scale="   89.880">  5  6 -1 -1</clus>
<clus scale="   94.802">  7  8 -1 -1</clus>
<clus scale="  169.779">  2  5  1 -1</clus>
<clus scale="   54.993">  2  5  1 -1</clus>
</clustering>
</event>
<event>
 9    2  0.5615294E-005  0.1091262E+03  0.7546771E-02  0.1267754E+00
         21   -1    0    0  501  502  0.00000000000E+00  0.00000000000E+00  0.10071774881E+03  0.10071774881E+03  0.00000000000E+00 0. -1.
          2   -1    0    0  502    0 -0.00000000000E+00 -0.00000000000E+00 -0.27888848155E+03  0.27888848155E+03  0.00000000000E+00 0. -1.
         24    2    1    2    0    0  0.56678698253E+02 -0.24840839550E+02 -0.19737489905E+03  0.22208858447E+03  0.80851384863E+02 0.  0.
         23    2    1    2    0    0 -0.34914445256E+02  0.52968873938E+01 -0.25859323288E+02  0.10379272737E+03  0.94112433556E+02 0.  0.
        -13    1    3    3    0    0 -0.15769649097E+02 -0.15066841794E+02 -0.17625813062E+02  0.28042126175E+02  0.00000000000E+00 0.  1.
         14    1    3    3    0    0  0.72448347350E+02 -0.97739977552E+01 -0.17974908598E+03  0.19404645830E+03  0.00000000000E+00 0. -1.
        -11    1    4    4    0    0 -0.39652480860E+02  0.37694976221E+02  0.95802403080E+01  0.55542879607E+02  0.00000000000E+00 0.  1.
         11    1    4    4    0    0  0.47380356043E+01 -0.32398088827E+02 -0.35439563596E+02  0.48249847761E+02  0.00000000000E+00 0. -1.
          1    1    1    2  501    0 -0.21764252997E+02  0.19543952156E+02  0.45063489595E+02  0.53724918510E+02  0.00000000000E+00 0. -1.
<scales pt_clust_5="13000.00000" pt_clust_6="13000.00000" pt_clust_7="13000.00000" pt_clust_8="13000.00000" pt_clust_9="29.25147"></scales>
<clustering>
<clus scale="   29.251">  1  9  2 -1</clus>
<clus scale="   80.851">  5  6 -1 -1</clus>
<clus scale="   94.112">  7  8 -1 -1</clus>
<clus scale="   97.920">  2  5  1 -1</clus>
<clus scale="   29.251">  1  5  2 -1</clus>
</clustering>
</event>
<event>
 9    2  0.5615294E-005  0.1738967E+03  0.7546771E-02  0.1194611E+00
         21   -1    0    0  501  502  0.00000000000E+00  0.00000000000E+00  0.67943469199E+02  0.67943469199E+02  0.00000000000E+00 0. -1.
          2   -1    0    0  502    0 -0.00000000000E+00 -0.00000000000E+00 -0.74208649373E+03  0.74208649373E+03  0.00000000000E+00 0. -1.
         23    2    1    2    0    0 -0.54616232569E+02  0.35141598527E+02 -0.15938281693E+03  0.19331698919E+03  0.88038123389E+02 0.  0.
         24    2    1    2    0    0  0.17391049796E+03  0.23398088263E+02 -0.21418580883E+03  0.28807489639E+03  0.79493731796E+02 0.  0.
        -11    1    4    4    0    0  0.54300333241E+02  0.44801366974E+02 -0.66651169583E+02  0.96943628360E+02  0.00000000000E+00 0.  1.
         12    1    4    4    0    0  0.11961016472E+03 -0.21403278711E+02 -0.14753463924E+03  0.19113126803E+03  0.00000000000E+00 0. -1.
        -13    1    3    3    0    0 -0.53048854775E+02  0.50462175643E+01 -0.15366592899E+03  0.16264336149E+03  0.00000000000E+00 0.  1.
         13    1    3    3    0    0 -0.15673777934E+01  0.30095380962E+02 -0.57168879377E+01  0.30673627697E+02  0.00000000000E+00 0. -1.
          1    1    1    2  501    0 -0.11929426539E+03 -0.58539686790E+02 -0.30057439878E+03  0.32863807735E+03  0.00000000000E+00 0. -1.
<scales pt_clust_5="13000.00000" pt_clust_6="13000.00000" pt_clust_7="13000.00000" pt_clust_8="13000.00000" pt_clust_9="154.66365"></scales>
<clustering>
<clus scale="   79.494">  5  6 -1 -1</clus>
<clus scale="   88.038">  7  8 -1 -1</clus>
<clus scale="  109.401">  2  7  1 -1</clus>
<clus scale="  154.664">  1  9  2 -1</clus>
<clus scale="  154.664">  1  5  2 -1</clus>
</clustering>
</event>
<event>
 9    2  0.5615294E-005  0.9591232E+02  0.7546771E-02  0.1295200E+00
          2   -1    0    0  502    0 -0.00000000000E+00  0.00000000000E+00  0.13613797571E+03  0.13613797571E+03  0.00000000000E+00 0. -1.
         21   -1    0    0  501  502  0.00000000000E+00 -0.00000000000E+00 -0.22956291533E+03  0.22956291533E+03  0.00000000000E+00 0. -1.
         24    2    1    2    0    0  0.32111048541E+02  0.63012031409E+00  0.69163806775E+02  0.11016162383E+03  0.79501161669E+02 0.  0.
         23    2    1    2    0    0 -0.19935639253E+02  0.58556425515E+02 -0.36147355727E+02  0.11540107445E+03  0.90468182118E+02 0.  0.
        -13    1    3    3    0    0  0.88966687425E+01 -0.34262298079E+02  0.84587283485E+01  0.36395135247E+02  0.00000000000E+00 0.  1.
         14    1    3    3    0    0  0.23214379799E+02  0.34892418393E+02  0.60705078427E+02  0.73766488581E+02  0.00000000000E+00 0. -1.
        -11    1    4    4    0    0 -0.37609880309E+02  0.82973895996E+01  0.15203123374E+02  0.41406336850E+02  0.00000000000E+00 0.  1.
         11    1    4    4    0    0  0.17674241056E+02  0.50259035915E+02 -0.51350479100E+02  0.73994737596E+02  0.00000000000E+00 0. -1.
          1    1    1    2  501    0 -0.12175409288E+02 -0.59186545829E+02 -0.12644139066E+03  0.14013819277E+03  0.00000000000E+00 0. -1.
<scales pt_clust_5="13000.00000" pt_clust_6="13000.00000" pt_clust_7="13000.00000" pt_clust_8="13000.00000" pt_clust_9="60.42589"></scales>
<clustering>
<clus scale="   60.426">  2  9  1 -1</clus>
<clus scale="   79.501">  5  6 -1 -1</clus>
<clus scale="   85.645">  1  5  2 -1</clus>
<clus scale="   90.468">  7  8 -1 -1</clus>
<clus scale="   60.426">  2  5  1 -1</clus>
</clustering>
</event>
<event>
 9    2  0.5615294E-005  0.8924154E+02  0.7546771E-02  0.1309167E+00
          2   -1    0    0  502    0 -0.00000000000E+00  0.00000000000E+00  0.10555070898E+04  0.10555070898E+04  0.00000000000E+00 0. -1.
         21   -1    0    0  501  502  0.00000000000E+00 -0.00000000000E+00 -0.61005841916E+03  0.61005841916E+03  0.00000000000E+00 0. -1.
         24    2    1    2    0    0  0.15244558595E+02 -0.54588492059E+00  0.10323688374E+04  0.10356325447E+04  0.80725812365E+02 0.  0.
         23    2    1    2    0    0 -0.80704824530E+02  0.19316013623E+02 -0.17648616051E+03  0.21388796957E+03  0.87831210794E+02 0.  0.
        -11    1    3    3    0    0  0.12900018512E+02 -0.22660253691E+02  0.11200486895E+03  0.11499994888E+03  0.00000000000E+00 0.  1.
         12    1    3    3    0    0  0.23445400837E+01  0.22114368770E+02  0.92036396842E+03  0.92063259585E+03  0.00000000000E+00 0. -1.
        -13    1    4    4    0    0 -0.57379725640E+02 -0.31092883028E+02 -0.97591102009E+02  0.11740197392E+03  0.00000000000E+00 0.  1.
         13    1    4    4    0    0 -0.23325098890E+02  0.50408896651E+02 -0.78895058501E+02  0.96485995645E+02  0.00000000000E+00 0. -1.
          1    1    1    2  501    0  0.65460265934E+02 -0.18770128703E+02 -0.41043400621E+03  0.41604499468E+03  0.00000000000E+00 0. -1.
<scales pt_clust_5="13000.00000" pt_clust_6="13000.00000" pt_clust_7="13000.00000" pt_clust_8="13000.00000" pt_clust_9="68.09819"></scales>
<clustering>
<clus scale="   68.098">  2  9  1 -1</clus>
<clus scale="   80.726">  5  6 -1 -1</clus>
<clus scale="   82.258">  1  5  2 -1</clus>
<clus scale="   87.831">  7  8 -1 -1</clus>
<clus scale="   68.098">  2  5  1 -1</clus>
</clustering>
</event>
<event>
 9    2  0.5615294E-005  0.4163182E+03  0.7546771E-02  0.1092085E+00
         21   -1    0    0  501  502  0.00000000000E+00  0.00000000000E+00  0.13963061261E+03  0.13963061261E+03  0.00000000000E+00 0. -1.
          2   -1    0    0  502    0 -0.00000000000E+00 -0.00000000000E+00 -0.20897056199E+04  0.20897056199E+04  0.00000000000E+00 0. -1.
         24    2    1    2    0    0 -0.33465146569E+02 -0.33587972038E+02 -0.75683770830E+03  0.76260773770E+03  0.80741420514E+02 0.  0.
         23    2    1    2    0    0  0.42294168289E+03 -0.40430691761E+02 -0.78824084963E+03  0.89998970231E+03  0.90241449861E+02 0.  0.
        -11    1    3    3    0    0  0.13185366755E+02  0.16488874164E+02 -0.99403700158E+02  0.10162102377E+03  0.00000000000E+00 0.  1.
         12    1    3    3    0    0 -0.46650513324E+02 -0.50076846202E+02 -0.65743400815E+03  0.66098671393E+03  0.00000000000E+00 0. -1.
        -11    1    4    4    0    0  0.26946566139E+02  0.70170635827E+01 -0.19643567945E+02  0.34076771702E+02  0.00000000000E+00 0.  1.
         11    1    4    4    0    0  0.39599511676E+03 -0.47447755343E+02 -0.76859728168E+03  0.86591293061E+03  0.00000000000E+00 0. -1.
          1    1    1    2  501    0 -0.38947653632E+03  0.74018663798E+02 -0.40499644936E+03  0.56673879251E+03  0.00000000000E+00 0. -1.
<scales pt_clust_5="13000.00000" pt_clust_6="13000.00000" pt_clust_7="13000.00000" pt_clust_8="13000.00000" pt_clust_9="406.42015"></scales>
<clustering>
<clus scale="   80.741">  5  6 -1 -1</clus>
<clus scale="   90.241">  7  8 -1 -1</clus>
<clus scale="   93.634">  2  5  1 -1</clus>
<clus scale="  406.420">  1  9  2 -1</clus>
<clus scale="  406.420">  1  5  2 -1</clus>
</clustering>
</event>
<event>
 9    2  0.5615294E-005  0.1333402E+03  0.7546771E-02  0.1225732E+00
         21   -1    0    0  501  502  0.00000000000E+00  0.00000000000E+00  0.42943202401E+02  0.42943202401E+02  0.00000000000E+00 0.  1.
          2   -1    0    0  502    0 -0.00000000000E+00 -0.00000000000E+00 -0.74558287220E+03  0.74558287220E+03  0.00000000000E+00 0. -1.
         24    2    1    2    0    0  0.21539563514E+02  0.92574475210E+02 -0.45243118772E+03  0.46890365575E+03  0.78375203341E+02 0.  0.
         23    2    1    2    0    0 -0.67827531374E+02 -0.89608038179E+02 -0.14628400043E+03  0.20581699893E+03  0.91276797421E+02 0.  0.
        -13    1    3    3    0    0 -0.44390706057E+01  0.69402335674E+02 -0.16069534423E+03  0.17509821017E+03  0.00000000000E+00 0.  1.
         14    1    3    3    0    0  0.25978634120E+02  0.23172139536E+02 -0.29173584348E+03  0.29380544558E+03  0.00000000000E+00 0. -1.
        -11    1    4    4    0    0  0.21051828129E+02 -0.19009060699E+02 -0.14388262844E+02  0.31804810389E+02  0.00000000000E+00 0. -1.
         11    1    4    4    0    0 -0.88879359503E+02 -0.70598977480E+02 -0.13189573758E+03  0.17401218854E+03  0.00000000000E+00 0.  1.
          1    1    1    2  501    0  0.46287967860E+02 -0.29664370306E+01 -0.10392448166E+03  0.11380541993E+03  0.00000000000E+00 0. -1.
<scales pt_clust_5="13000.00000" pt_clust_6="13000.00000" pt_clust_7="13000.00000" pt_clust_8="13000.00000" pt_clust_9="46.38295"></scales>
<clustering>
<clus scale="   46.383">  1  9  2 -1</clus>
<clus scale="   78.375">  5  6 -1 -1</clus>
<clus scale="   91.277">  7  8 -1 -1</clus>
<clus scale="  124.863">  2  5  1 -1</clus>
<clus scale="   46.383">  1  5  2 -1</clus>
</clustering>
</event>
<event>
 9    2  0.5615294E-005  0.1774172E+03  0.7546771E-02  0.1193886E+00
          2   -1    0    0  502    0 -0.00000000000E+00  0.00000000000E+00  0.10472588382E+04  0.10472588382E+04  0.00000000000E+00 0. -1.
         21   -1    0    0  501  502  0.00000000000E+00 -0.00000000000E+00 -0.12729916434E+03  0.12729916434E+03  0.00000000000E+00 0.  1.
         24    2    1    2    0    0 -0.55060222482E+02  0.37871680063E+02  0.74847181008E+03  0.75575462796E+03  0.80555043014E+02 0.  0.
         23    2    1    2    0    0  0.35996796522E+02  0.12014927215E+03  0.20266442857E+03  0.25661208704E+03  0.95106654085E+02 0.  0.
        -11    1    3    3    0    0  0.20135306880E+02  0.21814162985E+00  0.11929689839E+03  0.12098441278E+03  0.00000000000E+00 0.  1.
         12    1    3    3    0    0 -0.75195529362E+02  0.37653538434E+02  0.62917491168E+03  0.63477021518E+03  0.00000000000E+00 0. -1.
        -11    1    4    4    0    0 -0.85567645144E+01  0.22422606345E+02 -0.33978364852E+01  0.24239158134E+02  0.00000000000E+00 0.  1.
         11    1    4    4    0    0  0.44553561036E+02  0.97726665801E+02  0.20606226505E+03  0.23237292891E+03  0.00000000000E+00 0. -1.
          1    1    1    2  501    0  0.19063425961E+02 -0.15802095221E+03 -0.31176564823E+02  0.16219128750E+03  0.00000000000E+00 0. -1.
<scales pt_clust_5="13000.00000" pt_clust_6="13000.00000" pt_clust_7="13000.00000" pt_clust_8="13000.00000" pt_clust_9="149.77176"></scales>
<clustering>
<clus scale="   80.555">  5  6 -1 -1</clus>
<clus scale="   95.107">  7  8 -1 -1</clus>
<clus scale="  104.666">  1  5  2 -1</clus>
<clus scale="  149.772">  2  9  1 -1</clus>
<clus scale="  149.772">  2  5  1 -1</clus>
</clustering>
</event>
<event>
 9    2  0.5615294E-005  0.2307019E+03  0.7546771E-02  0.1126989E+00
         21   -1    0    0  501  502  0.00000000000E+00  0.00000000000E+00  0.43423361806E+02  0.43423361806E+02  0.00000000000E+00 0.  1.
          2   -1    0    0  502    0 -0.00000000000E+00 -0.00000000000E+00 -0.14769194877E+04  0.14769194877E+04  0.00000000000E+00 0. -1.
         24    2    1    2    0    0 -0.11424584296E+03 -0.18214781159E+03 -0.89319657836E+03  0.92234906785E+03  0.81839705953E+02 0.  0.
         23    2    1    2    0    0  0.12031040119E+03  0.16292997003E+03 -0.41692615939E+03  0.47298539312E+03  0.94164706530E+02 0.  0.
        -13    1    3    3    0    0 -0.40549731942E+01 -0.77034937378E+02 -0.33345430171E+03  0.34226100525E+03  0.00000000000E+00 0.  1.
         14    1    3    3    0    0 -0.11019086977E+03 -0.10511287422E+03 -0.55974227665E+03  0.58008806260E+03  0.00000000000E+00 0. -1.
        -11    1    4    4    0    0  0.81342024153E+02  0.15856278464E+03 -0.29235976845E+03  0.34239292600E+03  0.00000000000E+00 0.  1.
         11    1    4    4    0    0  0.38968377038E+02  0.43671853825E+01 -0.12456639094E+03  0.13059246712E+03  0.00000000000E+00 0. -1.
          1    1    1    2  501    0 -0.60645582294E+01  0.19217841568E+02 -0.12337338812E+03  0.12500838851E+03  0.00000000000E+00 0. -1.
<scales pt_clust_5="13000.00000" pt_clust_6="13000.00000" pt_clust_7="13000.00000" pt_clust_8="13000.00000" pt_clust_9="20.15204"></scales>
<clustering>
<clus scale="   20.152">  1  9  2 -1</clus>
<clus scale="   81.840">  5  6 -1 -1</clus>
<clus scale="   94.165">  7  8 -1 -1</clus>
<clus scale="  225.952">  2  5  1 -1</clus>
<clus scale="   20.152">  1  5  2 -1</clus>
</clustering>
</event>
<event>
 9    2  0.5615294E-005  0.1001136E+03  0.7546771E-02  0.1287047E+00
          2   -1    0    0  502    0 -0.00000000000E+00  0.00000000000E+00  0.26961890616E+03  0.26961890616E+03  0.00000000000E+00 0. -1.
         21   -1    0    0  501  502  0.00000000000E+00 -0.00000000000E+00 -0.85366412421E+02  0.85366412421E+02  0.00000000000E+00 0.  1.
         23    2    1    2    0    0 -0.93942796641E+01 -0.29541311661E+02  0.18451503739E+03  0.20951602960E+03  0.94287995279E+02 0.  0.
         24    2    1    2    0    0  0.26363426842E+02  0.42184583420E+02 -0.37867513714E+02  0.10231910879E+03  0.80998037477E+02 0.  0.
        -11    1    4    4    0    0 -0.24696557421E+02  0.63228177516E+00 -0.25182464839E+02  0.35277135146E+02  0.00000000000E+00 0.  1.
         12    1    4    4    0    0  0.51059984263E+02  0.41552301645E+02 -0.12685048875E+02  0.67041973643E+02  0.00000000000E+00 0. -1.
        -11    1    3    3    0    0  0.23810886907E+02 -0.32498863187E+02  0.16713239569E+03  0.17191966767E+03  0.00000000000E+00 0. -1.
         11    1    3    3    0    0 -0.33205166571E+02  0.29575515255E+01  0.17382641696E+02  0.37596361930E+02  0.00000000000E+00 0.  1.
          1    1    1    2  501    0 -0.16969147178E+02 -0.12643271759E+02  0.37604970064E+02  0.43150180188E+02  0.00000000000E+00 0. -1.
<scales pt_clust_5="13000.00000" pt_clust_6="13000.00000" pt_clust_7="13000.00000" pt_clust_8="13000.00000" pt_clust_9="21.16140"></scales>
<clustering>
<clus scale="   21.161">  2  9  1 -1</clus>
<clus scale="   80.998">  5  6 -1 -1</clus>
<clus scale="   87.711">  2  5  1 -1</clus>
<clus scale="   94.288">  7  8 -1 -1</clus>
<clus scale="   21.161">  2  5  1 -1</clus>
</clustering>
</event>
<event>
 9    2  0.5615294E-005  0.9601768E+02  0.7546771E-02  0.1292727E+00
         21   -1    0    0  501  502  0.00000000000E+00  0.00000000000E+00  0.54339269111E+02  0.54339269111E+02  0.00000000000E+00 0. -1.
          2   -1    0    0  502    0 -0.00000000000E+00 -0.00000000000E+00 -0.57067534074E+03  0.57067534074E+03  0.00000000000E+00 0. -1.
         24    2    1    2    0    0 -0.43430193051E+02  0.10736338315E+02 -0.42631613730E+03  0.43622755834E+03  0.80917137255E+02 0.  0.
         23    2    1    2    0    0  0.19279976613E+01 -0.33690075619E+02 -0.10288377505E+03  0.13964659286E+03  0.88189349458E+02 0.  0.
        -13    1    3    3    0    0 -0.10347157738E+01 -0.27324513402E+02 -0.66083672627E+02  0.71517490569E+02  0.00000000000E+00 0.  1.
         14    1    3    3    0    0 -0.42395477277E+02  0.38060851718E+02 -0.36023246468E+03  0.36471006777E+03  0.00000000000E+00 0. -1.
        -13    1    4    4    0    0 -0.39837014562E+02 -0.24166061032E+02 -0.75769313879E+02  0.88949284206E+02  0.00000000000E+00 0. -1.
         13    1    4    4    0    0  0.41765012223E+02 -0.95240145868E+01 -0.27114461168E+02  0.50697308649E+02  0.00000000000E+00 0.  1.
          1    1    1    2  501    0  0.41502195390E+02  0.22953737303E+02  0.12863840725E+02  0.49140458652E+02  0.00000000000E+00 0. -1.
<scales pt_clust_5="13000.00000" pt_clust_6="13000.00000" pt_clust_7="13000.00000" pt_clust_8="13000.00000" pt_clust_9="47.42685"></scales>
<clustering>
<clus scale="   47.427">  1  9  2 -1</clus>
<clus scale="   80.917">  5  6 -1 -1</clus>
<clus scale="   88.189">  7  8 -1 -1</clus>
<clus scale="   89.385">  2  5  1 -1</clus>
<clus scale="   47.427">  1  5  2 -1</clus>
</clustering>
</event>
<event>
 9    2  0.5615294E-005  0.1374430E+03  0.7546771E-02  0.1219237E+00
          2   -1    0    0  502    0 -0.00000000000E+00  0.00000000000E+00  0.22258859874E+04  0.22258859874E+04  0.00000000000E+00 0. -1.
         21   -1    0    0  501  502  0.00000000000E+00 -0.00000000000E+00 -0.30484089833E+03  0.30484089833E+03  0.00000000000E+00 0. -1.
         24    2    1    2    0    0 -0.10433754579E+03 -0.82621673502E+01  0.20479406900E+04  0.20522612859E+04  0.82223652491E+02 0.  0.
         23    2    1    2    0    0  0.67495747763E+02 -0.63069541390E+02  0.14478425166E+03  0.19517163051E+03  0.92714846747E+02 0.  0.
        -13    1    3    3    0    0 -0.18466680298E+02  0.13861729545E+02  0.11540982564E+03  0.11769704194E+03  0.00000000000E+00 0.  1.
         14    1    3    3    0    0 -0.85870865490E+02 -0.22123896895E+02  0.19325308644E+04  0.19345642440E+04  0.00000000000E+00 0. -1.
        -11    1    4    4    0    0 -0.19399136738E+02  0.53906214058E+01  0.19341839294E+02  0.27919384889E+02  0.00000000000E+00 0.  1.
         11    1    4    4    0    0  0.86894884502E+02 -0.68460162796E+02  0.12544241237E+03  0.16725224562E+03  0.00000000000E+00 0. -1.
          1    1    1    2  501    0  0.36841798024E+02  0.71331708741E+02 -0.27167985258E+03  0.28329396932E+03  0.00000000000E+00 0. -1.
<scales pt_clust_5="13000.00000" pt_clust_6="13000.00000" pt_clust_7="13000.00000" pt_clust_8="13000.00000" pt_clust_9="80.28406"></scales>
<clustering>
<clus scale="   80.284">  2  9  1 -1</clus>
<clus scale="   82.224">  5  6 -1 -1</clus>
<clus scale="   92.715">  7  8 -1 -1</clus>
<clus scale="  130.596">  1  5  2 -1</clus>
<clus scale="   80.284">  2  5  1 -1</clus>
</clustering>
</event>
<event>
 9    2  0.5615294E-005  0.1065529E+03  0.7546771E-02  0.1271924E+00
          2   -1    0    0  502    0 -0.00000000000E+00  0.00000000000E+00  0.18660278596E+03  0.18660278596E+03  0.00000000000E+00 0. -1.
         21   -1    0    0  501  502  0.00000000000E+00 -0.00000000000E+00 -0.32425760292E+03  0.32425760292E+03  0.00000000000E+00 0. -1.
         24    2    1    2    0    0  0.23793772130E+02  0.42533341611E+02  0.10910356272E+03  0.14350506521E+03  0.79466267072E+02 0.  0.
         23    2    1    2    0    0 -0.23449625785E+02 -0.79772206794E+02 -0.55350395120E+01  0.12327428926E+03  0.90842852245E+02 0.  0.
        -11    1    3    3    0    0  0.48566432430E+01 -0.23718445421E+02  0.31415947112E+02  0.39662493237E+02  0.00000000000E+00 0.  1.
         12    1    3    3    0    0  0.18937128888E+02  0.66251787032E+02  0.77687615605E+02  0.10384257197E+03  0.00000000000E+00 0. -1.
        -11    1    4    4    0    0 -0.24614215760E+02 -0.26015400168E+02  0.39367982524E+02  0.53221224257E+02  0.00000000000E+00 0. -1.
         11    1    4    4    0    0  0.11645899756E+01 -0.53756806626E+02 -0.44903022036E+02  0.70053065003E+02  0.00000000000E+00 0.  1.
          1    1    1    2  501    0 -0.34414634584E+00  0.37238865183E+02 -0.24122334017E+03  0.24408103441E+03  0.00000000000E+00 0. -1.
<scales pt_clust_5="13000.00000" pt_clust_6="13000.00000" pt_clust_7="13000.00000" pt_clust_8="13000.00000" pt_clust_9="37.24046"></scales>
<clustering>
<clus scale="   37.240">  2  9  1 -1</clus>
<clus scale="   79.466">  5  6 -1 -1</clus>
<clus scale="   90.843">  7  8 -1 -1</clus>
<clus scale="   97.036">  1  5  2 -1</clus>
<clus scale="   37.240">  2  5  1 -1</clus>
</clustering>
</event>
<event>
 9    2  0.5615294E-005  0.2194521E+03  0.7546771E-02  0.1176432E+00
          2   -1    0    0  502    0 -0.00000000000E+00  0.00000000000E+00  0.21167797053E+03  0.21167797053E+03  0.00000000000E+00 0. -1.
         21   -1    0    0  501  502  0.00000000000E+00 -0.00000000000E+00 -0.46151407376E+03  0.46151407376E+03  0.00000000000E+00 0. -1.
         24    2    1    2    0    0 -0.17456956642E+02 -0.46654141388E+01  0.87723160923E+02  0.11980440510E+03  0.79569033511E+02 0.  0.
         23    2    1    2    0    0 -0.12251815532E+03  0.15322780581E+03 -0.90949114876E+02  0.23326206710E+03  0.87464230367E+02 0.  0.
        -13    1    3    3    0    0 -0.47038802507E+02 -0.15329969457E+02  0.45969464528E+02  0.67534054920E+02  0.00000000000E+00 0.  1.
         14    1    3    3    0    0  0.29581845865E+02  0.10664555319E+02  0.41753696395E+02  0.52270350177E+02  0.00000000000E+00 0. -1.
        -11    1    4    4    0    0 -0.61017425093E+02  0.19747522421E+02 -0.83518917328E+01  0.64674917102E+02  0.00000000000E+00 0.  1.
         11    1    4    4    0    0 -0.61500730223E+02  0.13348028339E+03 -0.82597223144E+02  0.16858715000E+03  0.00000000000E+00 0. -1.
          1    1    1    2  501    0  0.13997511196E+03 -0.14856239167E+03 -0.24661014927E+03  0.32012557210E+03  0.00000000000E+00 0. -1.
<scales pt_clust_5="13000.00000" pt_clust_6="13000.00000" pt_clust_7="13000.00000" pt_clust_8="13000.00000" pt_clust_9="201.26906"></scales>
<clustering>
<clus scale="   79.569">  5  6 -1 -1</clus>
<clus scale="   81.595">  1  5  2 -1</clus>
<clus scale="   87.464">  7  8 -1 -1</clus>
<clus scale="  201.269">  2  9  1 -1</clus>
<clus scale="  201.269">  2  5  1 -1</clus>
</clustering>
</event>
<event>
 9    2  0.5615294E-005  0.9107261E+02  0.7546771E-02  0.1307757E+00
          4   -1    0    0  502    0 -0.00000000000E+00  0.00000000000E+00  0.11025324900E+03  0.11025324900E+03  0.00000000000E+00 0. -1.
         21   -1    0    0  501  502  0.00000000000E+00 -0.00000000000E+00 -0.23827973326E+03  0.23827973326E+03  0.00000000000E+00 0. -1.
         24    2    1    2    0    0  0.28054480672E+01 -0.14889344957E+02  0.63869877311E+02  0.10238572834E+03  0.78574251562E+02 0.  0.
         23    2    1    2    0    0 -0.15574472091E+02 -0.98659274315E+01 -0.56999146064E+02  0.10840426775E+03  0.90347561723E+02 0.  0.
        -13    1    3    3    0    0  0.24029394087E+02  0.23272746986E+02  0.41557821563E+02  0.53348711939E+02  0.00000000000E+00 0.  1.
         14    1    3    3    0    0 -0.21223946020E+02 -0.38162091943E+02  0.22312055748E+02  0.49037016404E+02  0.00000000000E+00 0. -1.
        -11    1    4    4    0    0  0.14813348538E+02  0.24123315309E+02 -0.56059938242E+02  0.62801961053E+02  0.00000000000E+00 0.  1.
         11    1    4    4    0    0 -0.30387820629E+02 -0.33989242741E+02 -0.93920782212E+00  0.45602306696E+02  0.00000000000E+00 0. -1.
          3    1    1    2  501    0  0.12769024024E+02  0.24755272388E+02 -0.13489721551E+03  0.13774298617E+03  0.00000000000E+00 0. -1.
<scales pt_clust_5="13000.00000" pt_clust_6="13000.00000" pt_clust_7="13000.00000" pt_clust_8="13000.00000" pt_clust_9="27.85447"></scales>
<clustering>
<clus scale="   27.854">  2  9  1 -1</clus>
<clus scale="   78.574">  5  6 -1 -1</clus>
<clus scale="   79.407">  1  5  2 -1</clus>
<clus scale="   90.348">  7  8 -1 -1</clus>
<clus scale="   27.854">  2  5  1 -1</clus>
</clustering>
</event>
<event>
 9    2  0.5615294E-005  0.9405230E+02  0.7546771E-02  0.1298565E+00
         21   -1    0    0  501  502  0.00000000000E+00  0.00000000000E+00  0.14047198558E+03  0.14047198558E+03  0.00000000000E+00 0. -1.
          2   -1    0    0  502    0 -0.00000000000E+00 -0.00000000000E+00 -0.34210207087E+03  0.34210207087E+03  0.00000000000E+00 0. -1.
         24    2    1    2    0    0  0.43692567166E+01 -0.24137606348E+02 -0.24395329065E+03  0.25829435640E+03  0.81246858931E+02 0.  0.
         23    2    1    2    0    0 -0.45212692774E+02  0.18711519214E+02 -0.56462929707E+02  0.11724545705E+03  0.90355554500E+02 0.  0.
        -13    1    3    3    0    0  0.28027031106E+02  0.45274732824E+01 -0.30654710057E+02  0.41781858930E+02  0.00000000000E+00 0.  1.
         14    1    3    3    0    0 -0.23657774389E+02 -0.28665079631E+02 -0.21329858059E+03  0.21651249747E+03  0.00000000000E+00 0. -1.
        -13    1    4    4    0    0 -0.51444400136E+02  0.48662398497E+02 -0.30426517758E+02  0.77073525388E+02  0.00000000000E+00 0.  1.
         13    1    4    4    0    0  0.62317073618E+01 -0.29950879283E+02 -0.26036411949E+02  0.40171931664E+02  0.00000000000E+00 0. -1.
          1    1    1    2  501    0  0.40843436058E+02  0.54260871339E+01  0.98786135072E+02  0.10703424299E+03  0.00000000000E+00 0. -1.
<scales pt_clust_5="13000.00000" pt_clust_6="13000.00000" pt_clust_7="13000.00000" pt_clust_8="13000.00000" pt_clust_9="41.20229"></scales>
<clustering>
<clus scale="   41.202">  1  9  2 -1</clus>
<clus scale="   81.247">  5  6 -1 -1</clus>
<clus scale="   85.339">  2  5  1 -1</clus>
<clus scale="   90.356">  7  8 -1 -1</clus>
<clus scale="   41.202">  1  5  2 -1</clus>
</clustering>
</event>
<event>
 9    2  0.5615294E-005  0.9217752E+02  0.7546771E-02  0.1302407E+00
         21   -1    0    0  501  502  0.00000000000E+00  0.00000000000E+00  0.84671099441E+02  0.84671099441E+02  0.00000000000E+00 0.  1.
          2   -1    0    0  502    0 -0.00000000000E+00 -0.00000000000E+00 -0.18562849446E+03  0.18562849446E+03  0.00000000000E+00 0. -1.
         24    2    1    2    0    0  0.20678703192E+02  0.16874931047E+02 -0.58548565696E+02  0.10576873239E+03  0.83944732664E+02 0.  0.
         23    2    1    2    0    0  0.16544451852E+02  0.22203645551E+02  0.15551778341E+00  0.95796430076E+02  0.91707202916E+02 0.  0.
        -13    1    3    3    0    0  0.40565738623E+02  0.29630774350E+02 -0.64158535732E+02  0.81485456652E+02  0.00000000000E+00 0.  1.
         14    1    3    3    0    0 -0.19887035431E+02 -0.12755843303E+02  0.56099700352E+01  0.24283275734E+02  0.00000000000E+00 0. -1.
        -13    1    4    4    0    0 -0.21415977725E+02 -0.20671128561E+02  0.19232574827E+02  0.35437714265E+02  0.00000000000E+00 0.  1.
         13    1    4    4    0    0  0.37960429576E+02  0.42874774113E+02 -0.19077057043E+02  0.60358715810E+02  0.00000000000E+00 0. -1.
          1    1    1    2  501    0 -0.37223155043E+02 -0.39078576599E+02 -0.42564347102E+02  0.68734431434E+02  0.00000000000E+00 0. -1.
<scales pt_clust_5="13000.00000" pt_clust_6="13000.00000" pt_clust_7="13000.00000" pt_clust_8="13000.00000" pt_clust_9="53.96945"></scales>
<clustering>
<clus scale="   53.969">  1  9  2 -1</clus>
<clus scale="   83.945">  5  6 -1 -1</clus>
<clus scale="   84.458">  2  5  1 -1</clus>
<clus scale="   91.707">  7  8 -1 -1</clus>
<clus scale="   53.969">  1  5  2 -1</clus>
</clustering>
</event>
<event>
 9    2  0.5615294E-005  0.2730869E+03  0.7546771E-02  0.1099904E+00
         21   -1    0    0  501  502  0.00000000000E+00  0.00000000000E+00  0.67887083838E+03  0.67887083838E+03  0.00000000000E+00 0. -1.
          2   -1    0    0  502    0 -0.00000000000E+00 -0.00000000000E+00 -0.92493650369E+03  0.92493650369E+03  0.00000000000E+00 0. -1.
         24    2    1    2    0    0  0.25737590174E+03  0.10058276356E+03 -0.75986653626E+03  0.81267910336E+03  0.81798074428E+02 0.  0.
         23    2    1    2    0    0 -0.20184600158E+03 -0.94589136898E+01 -0.41938617318E+02  0.22523646049E+03  0.90229352812E+02 0.  0.
        -11    1    3    3    0    0  0.73885888991E+02  0.41336315158E+02 -0.14094700938E+03  0.16441981327E+03  0.00000000000E+00 0.  1.
         12    1    3    3    0    0  0.18349001275E+03  0.59246448397E+02 -0.61891952688E+03  0.64825929009E+03  0.00000000000E+00 0. -1.
        -11    1    4    4    0    0 -0.19169224809E+03 -0.32622232707E+02 -0.28283468070E+02  0.19649448493E+03  0.00000000000E+00 0.  1.
         11    1    4    4    0    0 -0.10153753497E+02  0.23163319017E+02 -0.13655149248E+02  0.28741975558E+02  0.00000000000E+00 0. -1.
          1    1    1    2  501    0 -0.55529900160E+02 -0.91123849865E+02  0.55573948828E+03  0.56589177822E+03  0.00000000000E+00 0. -1.
<scales pt_clust_5="13000.00000" pt_clust_6="13000.00000" pt_clust_7="13000.00000" pt_clust_8="13000.00000" pt_clust_9="106.71048"></scales>
<clustering>
<clus scale="   81.798">  5  6 -1 -1</clus>
<clus scale="   90.229">  7  8 -1 -1</clus>
<clus scale="  106.710">  1  9  2 -1</clus>
<clus scale="  270.418">  2  5  1 -1</clus>
<clus scale="  106.710">  1  5  2 -1</clus>
</clustering>
</event>
<event>
 9    2  0.5615294E-005  0.1805627E+03  0.7546771E-02  0.1184425E+00
          2   -1    0    0  502    0 -0.00000000000E+00  0.00000000000E+00  0.19963695058E+03  0.19963695058E+03  0.00000000000E+00 0. -1.
         21   -1    0    0  501  502  0.00000000000E+00 -0.00000000000E+00 -0.43464238819E+03  0.43464238819E+03  0.00000000000E+00 0. -1.
         23    2    1    2    0    0 -0.70885989569E+02 -0.42240309971E+02 -0.20938134254E+03  0.24253979120E+03  0.90420884812E+02 0.  0.
         24    2    1    2    0    0  0.21108454454E+03  0.68422468118E+02  0.33226617417E+02  0.23745232652E+03  0.77725672571E+02 0.  0.
        -11    1    4    4    0    0  0.88229630681E+02 -0.78254005007E+01 -0.21220926325E+01  0.88601398975E+02  0.00000000000E+00 0.  1.
         12    1    4    4    0    0  0.12285491386E+03  0.76247868619E+02  0.35348710050E+02  0.14885092754E+03  0.00000000000E+00 0. -1.
        -11    1    3    3    0    0 -0.57975971317E+02  0.11674661538E+02 -0.64985646012E+02  0.87867201843E+02  0.00000000000E+00 0.  1.
         11    1    3    3    0    0 -0.12910018253E+02 -0.53914971509E+02 -0.14439569653E+03  0.15467258936E+03  0.00000000000E+00 0. -1.
          1    1    1    2  501    0 -0.14019855497E+03 -0.26182158148E+02 -0.58850712491E+02  0.15428722106E+03  0.00000000000E+00 0. -1.
<scales pt_clust_5="13000.00000" pt_clust_6="13000.00000" pt_clust_7="13000.00000" pt_clust_8="13000.00000" pt_clust_9="162.97730"></scales>
<clustering>
<clus scale="   77.726">  5  6 -1 -1</clus>
<clus scale="   90.421">  7  8 -1 -1</clus>
<clus scale="  122.413">  1  7  2 -1</clus>
<clus scale="  162.977">  2  9  1 -1</clus>
<clus scale="  162.977">  2  5  1 -1</clus>
</clustering>
</event>
<event>
 9    2  0.5615294E-005  0.1509048E+03  0.7546771E-02  0.1201104E+00
         21   -1    0    0  501  502  0.00000000000E+00  0.00000000000E+00  0.11083642181E+03  0.11083642181E+03  0.00000000000E+00 0. -1.
          2   -1    0    0  502    0 -0.00000000000E+00 -0.00000000000E+00 -0.52118646654E+03  0.52118646654E+03  0.00000000000E+00 0. -1.
         23    2    1    2    0    0  0.14481907182E+03 -0.50800469506E+02 -0.37356546619E+03  0.41385689763E+03  0.90405325707E+02 0.  0.
         24    2    1    2    0    0 -0.44393786309E+02  0.56356176632E+02 -0.45534938590E+02  0.11720722363E+03  0.80729645919E+02 0.  0.
        -13    1    4    4    0    0 -0.58053214016E+02  0.18890103161E+02 -0.47392510514E+02  0.77285585382E+02  0.00000000000E+00 0.  1.
         14    1    4    4    0    0  0.13659427707E+02  0.37466073471E+02  0.18575719240E+01  0.39921638244E+02  0.00000000000E+00 0. -1.
        -11    1    3    3    0    0  0.60729615026E+02  0.49662614308E+01 -0.23293998198E+03  0.24077745970E+03  0.00000000000E+00 0.  1.
         11    1    3    3    0    0  0.84089456795E+02 -0.55766730937E+02 -0.14062548421E+03  0.17307943793E+03  0.00000000000E+00 0. -1.
          1    1    1    2  501    0 -0.10042528551E+03 -0.55557071255E+01  0.87503600534E+01  0.10095876709E+03  0.00000000000E+00 0. -1.
<scales pt_clust_5="13000.00000" pt_clust_6="13000.00000" pt_clust_7="13000.00000" pt_clust_8="13000.00000" pt_clust_9="100.57884"></scales>
<clustering>
<clus scale="   80.730">  5  6 -1 -1</clus>
<clus scale="   90.405">  7  8 -1 -1</clus>
<clus scale="  100.579">  1  9  2 -1</clus>
<clus scale="  145.315">  1  5  2 -1</clus>
<clus scale="  100.579">  1  5  2 -1</clus>
</clustering>
</event>
<event>
 9    2  0.5615294E-005  0.1613669E+03  0.7546771E-02  0.1189159E+00
          2   -1    0    0  502    0 -0.00000000000E+00  0.00000000000E+00  0.10195895396E+04  0.10195895396E+04  0.00000000000E+00 0. -1.
         21   -1    0    0  501  502  0.00000000000E+00 -0.00000000000E+00 -0.61711979140E+02  0.61711979140E+02  0.00000000000E+00 0.  1.
         24    2    1    2    0    0  0.10085741041E+03  0.67692713878E+02  0.16308332397E+03  0.21814794236E+03  0.78979955994E+02 0.  0.
         23    2    1    2    0    0 -0.16021523578E+03  0.13106905541E+02  0.26090258382E+03  0.31992965688E+03  0.91891862315E+02 0.  0.
        -11    1    3    3    0    0  0.71707792652E+02  0.31180025701E+02  0.42869092583E+02  0.89173766482E+02  0.00000000000E+00 0.  1.
         12    1    3    3    0    0  0.29149617759E+02  0.36512688177E+02  0.12021423139E+03  0.12897417587E+03  0.00000000000E+00 0. -1.
        -13    1    4    4    0    0 -0.13078817446E+03 -0.33287163881E+01  0.12878972259E+03  0.18358491107E+03  0.00000000000E+00 0.  1.
         13    1    4    4    0    0 -0.29427061328E+02  0.16435621929E+02  0.13211286123E+03  0.13634474581E+03  0.00000000000E+00 0. -1.
          1    1    1    2  501    0  0.59357825374E+02 -0.80799619419E+02  0.53389165268E+03  0.54322391951E+03  0.00000000000E+00 0. -1.
<scales pt_clust_5="13000.00000" pt_clust_6="13000.00000" pt_clust_7="13000.00000" pt_clust_8="13000.00000" pt_clust_9="100.25936"></scales>
<clustering>
<clus scale="   78.980">  5  6 -1 -1</clus>
<clus scale="   91.892">  7  8 -1 -1</clus>
<clus scale="  100.259">  2  9  1 -1</clus>
<clus scale="  154.379">  1  5  2 -1</clus>
<clus scale="  100.259">  2  5  1 -1</clus>
</clustering>
</event>
<event>
 9    2  0.5647344E-005  0.1434515E+03  0.7546771E-02  0.1228677E+00
          2   -1    0    0  502    0 -0.00000000000E+00  0.00000000000E+00  0.10852501938E+04  0.10852501938E+04  0.00000000000E+00 0. -1.
         21   -1    0    0  501  502  0.00000000000E+00 -0.00000000000E+00 -0.55128916841E+02  0.55128916841E+02  0.00000000000E+00 0.  1.
         23    2    1    2    0    0 -0.29002767862E+02 -0.12325687947E+02  0.28180026012E+03  0.29717087816E+03  0.88916033951E+02 0.  0.
         24    2    1    2    0    0  0.78947134405E+02  0.94559856515E+02  0.78831452617E+02  0.16684059959E+03  0.80294279086E+02 0.  0.
        -13    1    4    4    0    0  0.87167877685E+02  0.54277762216E+02  0.39731509833E+02  0.11010407461E+03  0.00000000000E+00 0.  1.
         14    1    4    4    0    0 -0.82207432796E+01  0.40282094299E+02  0.39099942784E+02  0.56736524981E+02  0.00000000000E+00 0. -1.
        -13    1    3    3    0    0 -0.24762222079E+02  0.37138544745E+02  0.12845656387E+03  0.13599091127E+03  0.00000000000E+00 0.  1.
         13    1    3    3    0    0 -0.42405457831E+01 -0.49464232692E+02  0.15334369626E+03  0.16117996689E+03  0.00000000000E+00 0. -1.
          1    1    1    2  501    0 -0.49944366544E+02 -0.82234168569E+02  0.66948956426E+03  0.67636763293E+03  0.00000000000E+00 0. -1.
<scales pt_clust_5="13000.00000" pt_clust_6="13000.00000" pt_clust_7="13000.00000" pt_clust_8="13000.00000" pt_clust_9="118.87467"></scales>
<clustering>
<clus scale="   80.294">  5  6 -1 -1</clus>
<clus scale="   88.916">  7  8 -1 -1</clus>
<clus scale="   94.335">  1  7  2 -1</clus>
<clus scale="  118.875">  2  9  1 -1</clus>
<clus scale="  118.875">  2  5  1 -1</clus>
</clustering>
</event>
<event>
 9    2  0.5615294E-005  0.2921293E+03  0.7546771E-02  0.1089664E+00
         21   -1    0    0  501  502  0.00000000000E+00  0.00000000000E+00  0.70266964897E+02  0.70266964897E+02  0.00000000000E+00 0. -1.
          2   -1    0    0  502    0 -0.00000000000E+00 -0.00000000000E+00 -0.15726851444E+04  0.15726851444E+04  0.00000000000E+00 0. -1.
         23    2    1    2    0    0  0.26400835152E+03 -0.25929592397E+02 -0.66417315792E+03  0.72091409547E+03  0.90655368924E+02 0.  0.
         24    2    1    2    0    0 -0.29627052086E+03 -0.12943024003E+01 -0.54197573738E+03  0.62277646137E+03  0.79592236891E+02 0.  0.
        -11    1    4    4    0    0 -0.59689922897E+02 -0.26953174537E+01 -0.18592543926E+03  0.19529060550E+03  0.00000000000E+00 0.  1.
         12    1    4    4    0    0 -0.23658059796E+03  0.14010150535E+01 -0.35605029812E+03  0.42748585587E+03  0.00000000000E+00 0. -1.
        -13    1    3    3    0    0  0.11418570066E+03  0.10900705349E+02 -0.38762532219E+03  0.40424075748E+03  0.00000000000E+00 0. -1.
         13    1    3    3    0    0  0.14982265086E+03 -0.36830297746E+02 -0.27654783573E+03  0.31667333798E+03  0.00000000000E+00 0.  1.
          1    1    1    2  501    0  0.32262169343E+02  0.27223894797E+02 -0.29626928423E+03  0.29926155248E+03  0.00000000000E+00 0. -1.
<scales pt_clust_5="13000.00000" pt_clust_6="13000.00000" pt_clust_7="13000.00000" pt_clust_8="13000.00000" pt_clust_9="42.21362"></scales>
<clustering>
<clus scale="   42.214">  1  9  2 -1</clus>
<clus scale="   79.592">  5  6 -1 -1</clus>
<clus scale="   90.655">  7  8 -1 -1</clus>
<clus scale="  288.888">  1  5  2 -1</clus>
<clus scale="   42.214">  1  5  2 -1</clus>
</clustering>
</event>
<event>
 9    2  0.5615294E-005  0.1912395E+03  0.7546771E-02  0.1158392E+00
         21   -1    0    0  501  502  0.00000000000E+00  0.00000000000E+00  0.88973420521E+02  0.88973420521E+02  0.00000000000E+00 0. -1.
          2   -1    0    0  502    0 -0.00000000000E+00 -0.00000000000E+00 -0.86514712627E+03  0.86514712627E+03  0.00000000000E+00 0. -1.
         23    2    1    2    0    0 -0.19958180819E+03 -0.18739404145E+02 -0.49865964736E+03  0.54506440280E+03  0.90827836419E+02 0.  0.
         24    2    1    2    0    0  0.88422993045E+02  0.59107888835E+02 -0.33103912955E+02  0.13753779115E+03  0.80674696896E+02 0.  0.
        -11    1    4    4    0    0  0.47146801221E+02 -0.66732812932E+01 -0.36204118771E+02  0.59817152763E+02  0.00000000000E+00 0.  1.
         12    1    4    4    0    0  0.41276191824E+02  0.65781170128E+02  0.31002058160E+01  0.77720638385E+02  0.00000000000E+00 0. -1.
        -13    1    3    3    0    0 -0.14457965245E+03 -0.39051345255E+02 -0.42684180682E+03  0.45235186693E+03  0.00000000000E+00 0. -1.
         13    1    3    3    0    0 -0.55002155734E+02  0.20311941110E+02 -0.71817840542E+02  0.92712535869E+02  0.00000000000E+00 0.  1.
          1    1    1    2  501    0  0.11115881514E+03 -0.40368484690E+02 -0.24441014544E+03  0.27151835285E+03  0.00000000000E+00 0. -1.
<scales pt_clust_5="13000.00000" pt_clust_6="13000.00000" pt_clust_7="13000.00000" pt_clust_8="13000.00000" pt_clust_9="118.26204"></scales>
<clustering>
<clus scale="   80.675">  5  6 -1 -1</clus>
<clus scale="   90.828">  7  8 -1 -1</clus>
<clus scale="  118.262">  1  9  2 -1</clus>
<clus scale="  186.631">  1  5  2 -1</clus>
<clus scale="  118.262">  1  5  2 -1</clus>
</clustering>
</event>
<event>
 9    2  0.5615294E-005  0.1083861E+03  0.7546771E-02  0.1266426E+00
         21   -1    0    0  501  502  0.00000000000E+00  0.00000000000E+00  0.76158725633E+02  0.76158725633E+02  0.00000000000E+00 0.  1.
         -1   -1    0    0    0  501 -0.00000000000E+00 -0.00000000000E+00 -0.29989023137E+03  0.29989023137E+03  0.00000000000E+00 0.  1.
         24    2    1    2    0    0 -0.53418027571E+02  0.39227010329E+02 -0.51317389622E+02  0.11854675850E+03  0.83830874175E+02 0.  0.
         23    2    1    2    0    0  0.53635348754E+02 -0.77203199005E+01 -0.27662850856E+02  0.10936156409E+03  0.90875543503E+02 0.  0.
        -13    1    3    3    0    0 -0.16695945599E+02  0.57001819638E+02 -0.95484178333E+01  0.60159241390E+02  0.00000000000E+00 0.  1.
         14    1    3    3    0    0 -0.36722081972E+02 -0.17774809309E+02 -0.41768971788E+02  0.58387517113E+02  0.00000000000E+00 0. -1.
        -13    1    4    4    0    0  0.46238445447E+02  0.31121609973E+02 -0.39237196831E+02  0.68162350751E+02  0.00000000000E+00 0. -1.
         13    1    4    4    0    0  0.73969033066E+01 -0.38841929873E+02  0.11574345976E+02  0.41199213337E+02  0.00000000000E+00 0.  1.
         -2    1    1    2    0  502 -0.21732118303E+00 -0.31506690429E+02 -0.14475126526E+03  0.14814063442E+03  0.00000000000E+00 0.  1.
<scales pt_clust_5="13000.00000" pt_clust_6="13000.00000" pt_clust_7="13000.00000" pt_clust_8="13000.00000" pt_clust_9="31.50746"></scales>
<clustering>
<clus scale="   31.507">  1  9  2 -1</clus>
<clus scale="   83.831">  5  6 -1 -1</clus>
<clus scale="   90.876">  7  8 -1 -1</clus>
<clus scale="  102.551">  2  5  1 -1</clus>
<clus scale="   31.507">  1  5  2 -1</clus>
</clustering>
</event>
<event>
 9    2  0.5615294E-005  0.1560900E+03  0.7546771E-02  0.1200512E+00
         21   -1    0    0  501  502  0.00000000000E+00  0.00000000000E+00  0.69017980755E+03  0.69017980755E+03  0.00000000000E+00 0.  1.
          2   -1    0    0  502    0 -0.00000000000E+00 -0.00000000000E+00 -0.11822590467E+03  0.11822590467E+03  0.00000000000E+00 0. -1.
         23    2    1    2    0    0 -0.48088607549E+02 -0.85160970525E+02  0.36545639491E+03  0.38890742486E+03  0.90142683872E+02 0.  0.
         24    2    1    2    0    0 -0.11456616714E+03  0.63909057143E+02  0.20366938730E+03  0.25543665926E+03  0.80974646233E+02 0.  0.
        -13    1    4    4    0    0 -0.10174149337E+03  0.61293063115E+02  0.11338412902E+03  0.16420758744E+03  0.00000000000E+00 0.  1.
         14    1    4    4    0    0 -0.12824673768E+02  0.26159940276E+01  0.90285258282E+02  0.91229071819E+02  0.00000000000E+00 0. -1.
        -13    1    3    3    0    0  0.23005110096E+02 -0.29107637492E+02  0.62190239988E+02  0.72416266133E+02  0.00000000000E+00 0. -1.
         13    1    3    3    0    0 -0.71093717645E+02 -0.56053333033E+02  0.30326615492E+03  0.31649115873E+03  0.00000000000E+00 0.  1.
          1    1    1    2  501    0  0.16265477469E+03  0.21251913382E+02  0.28281206758E+01  0.16406162811E+03  0.00000000000E+00 0. -1.
<scales pt_clust_5="13000.00000" pt_clust_6="13000.00000" pt_clust_7="13000.00000" pt_clust_8="13000.00000" pt_clust_9="133.44370"></scales>
<clustering>
<clus scale="   80.975">  5  6 -1 -1</clus>
<clus scale="   90.143">  7  8 -1 -1</clus>
<clus scale="  133.006">  2  7  1 -1</clus>
<clus scale="  133.444">  1  9  2 -1</clus>
<clus scale="  133.444">  1  5  2 -1</clus>
</clustering>
</event>
<event>
 9    2  0.5615294E-005  0.1370874E+03  0.7546771E-02  0.1232360E+00
          2   -1    0    0  502    0 -0.00000000000E+00  0.00000000000E+00  0.56267254228E+02  0.56267254228E+02  0.00000000000E+00 0. -1.
         21   -1    0    0  501  502  0.00000000000E+00 -0.00000000000E+00 -0.97532313218E+03  0.97532313218E+03  0.00000000000E+00 0.  1.
         23    2    1    2    0    0 -0.16877736676E+02 -0.43099211903E+02 -0.43664266606E+02  0.10928555086E+03  0.88850230088E+02 0.  0.
         24    2    1    2    0    0 -0.10191633609E+03 -0.10742788417E+02 -0.63779188216E+03  0.65126125228E+03  0.82827451365E+02 0.  0.
        -13    1    4    4    0    0 -0.10562371199E+03 -0.74075358271E+01 -0.63753496444E+03  0.64626780131E+03  0.00000000000E+00 0.  1.
         14    1    4    4    0    0  0.37073758939E+01 -0.33352525903E+01 -0.25691771939E+00  0.49934509684E+01  0.00000000000E+00 0. -1.
        -13    1    3    3    0    0 -0.44491224083E+02  0.11853904321E+01 -0.34467870763E+02  0.56293057172E+02  0.00000000000E+00 0. -1.
         13    1    3    3    0    0  0.27613487407E+02 -0.44284602335E+02 -0.91963958431E+01  0.52992493688E+02  0.00000000000E+00 0.  1.
          1    1    1    2  501    0  0.11879407277E+03  0.53842000320E+02 -0.23759972918E+03  0.27104358327E+03  0.00000000000E+00 0. -1.
<scales pt_clust_5="13000.00000" pt_clust_6="13000.00000" pt_clust_7="13000.00000" pt_clust_8="13000.00000" pt_clust_9="109.23629"></scales>
<clustering>
<clus scale="   82.827">  5  6 -1 -1</clus>
<clus scale="   88.850">  7  8 -1 -1</clus>
<clus scale="  100.184">  1  7  2 -1</clus>
<clus scale="  109.236">  2  9  1 -1</clus>
<clus scale="  109.236">  2  5  1 -1</clus>
</clustering>
</event>
<event>
 9    2  0.5615294E-005  0.1484554E+03  0.7546771E-02  0.1212182E+00
         21   -1    0    0  501  502  0.00000000000E+00  0.00000000000E+00  0.10479548737E+03  0.10479548737E+03  0.00000000000E+00 0.  1.
         -3   -1    0    0    0  501 -0.00000000000E+00 -0.00000000000E+00 -0.55265894589E+03  0.55265894589E+03  0.00000000000E+00 0.  1.
         23    2    1    2    0    0  0.57486842307E+02  0.52330533851E+02 -0.31052912434E+03  0.33302139708E+03  0.91824245353E+02 0.  0.
         24    2    1    2    0    0  0.99645540072E+02  0.14963214840E+01 -0.51885451577E+02  0.13764591808E+03  0.79516199895E+02 0.  0.
        -11    1    4    4    0    0  0.10490456747E+03  0.20349103160E+02 -0.37102104350E+02  0.11311772815E+03  0.00000000000E+00 0.  1.
         12    1    4    4    0    0 -0.52590273965E+01 -0.18852781676E+02 -0.14783347226E+02  0.24528189931E+02  0.00000000000E+00 0. -1.
        -11    1    3    3    0    0  0.31990355350E+02  0.75896687975E+02 -0.17991283833E+03  0.19786945059E+03  0.00000000000E+00 0.  1.
         11    1    3    3    0    0  0.25496486957E+02 -0.23566154124E+02 -0.13061628602E+03  0.13515194649E+03  0.00000000000E+00 0. -1.
         -4    1    1    2    0  502 -0.15713238238E+03 -0.53826855335E+02 -0.85448882603E+02  0.18678711809E+03  0.00000000000E+00 0.  1.
<scales pt_clust_5="13000.00000" pt_clust_6="13000.00000" pt_clust_7="13000.00000" pt_clust_8="13000.00000" pt_clust_9="125.36425"></scales>
<clustering>
<clus scale="   79.516">  5  6 -1 -1</clus>
<clus scale="   91.824">  7  8 -1 -1</clus>
<clus scale="  120.312">  2  7  1 -1</clus>
<clus scale="  125.364">  1  9  2 -1</clus>
<clus scale="  125.364">  1  5  2 -1</clus>
</clustering>
</event>
<event>
 9    2  0.5615294E-005  0.9286596E+02  0.7546771E-02  0.1301622E+00
         21   -1    0    0  501  502  0.00000000000E+00  0.00000000000E+00  0.89486107297E+02  0.89486107297E+02  0.00000000000E+00 0. -1.
          2   -1    0    0  502    0 -0.00000000000E+00 -0.00000000000E+00 -0.24545903747E+03  0.24545903747E+03  0.00000000000E+00 0. -1.
         24    2    1    2    0    0 -0.17942465842E+02  0.18754165065E+02 -0.17883912710E+03  0.19814693621E+03  0.81271914951E+02 0.  0.
         23    2    1    2    0    0 -0.38469296955E+01 -0.34316001838E+00 -0.12308057373E+02  0.91510560910E+02  0.90596787221E+02 0.  0.
        -11    1    3    3    0    0 -0.26124439727E+02 -0.10703317128E+02 -0.15975514268E+02  0.32438625198E+02  0.00000000000E+00 0.  1.
         12    1    3    3    0    0  0.81819738852E+01  0.29457482193E+02 -0.16286361283E+03  0.16570831101E+03  0.00000000000E+00 0. -1.
        -11    1    4    4    0    0  0.54296727070E+01 -0.39149168049E+02  0.15946986386E+02  0.42619773339E+02  0.00000000000E+00 0.  1.
         11    1    4    4    0    0 -0.92766024024E+01  0.38806008031E+02 -0.28255043759E+02  0.48890787571E+02  0.00000000000E+00 0. -1.
          1    1    1    2  501    0  0.21789395538E+02 -0.18411005046E+02  0.35174254295E+02  0.45287647653E+02  0.00000000000E+00 0. -1.
<scales pt_clust_5="13000.00000" pt_clust_6="13000.00000" pt_clust_7="13000.00000" pt_clust_8="13000.00000" pt_clust_9="28.52618"></scales>
<clustering>
<clus scale="   28.526">  1  9  2 -1</clus>
<clus scale="   81.272">  5  6 -1 -1</clus>
<clus scale="   83.794">  2  5  1 -1</clus>
<clus scale="   90.597">  7  8 -1 -1</clus>
<clus scale="   28.526">  1  5  2 -1</clus>
</clustering>
</event>
<event>
 9    2  0.5615294E-005  0.9851230E+02  0.7546771E-02  0.1288872E+00
         -1   -1    0    0    0  501 -0.00000000000E+00  0.00000000000E+00  0.30297832328E+03  0.30297832328E+03  0.00000000000E+00 0.  1.
         21   -1    0    0  501  502  0.00000000000E+00 -0.00000000000E+00 -0.29341311803E+03  0.29341311803E+03  0.00000000000E+00 0.  1.
         24    2    1    2    0    0 -0.28330952161E+02  0.55963002209E+02  0.16728131351E+03  0.19662342957E+03  0.82117201248E+02 0.  0.
         23    2    1    2    0    0  0.24879773377E+02  0.32651665982E+02  0.90810715925E+02  0.13589294206E+03  0.92385990066E+02 0.  0.
        -13    1    3    3    0    0 -0.57161637577E+02  0.32549230502E+02  0.98287247701E+02  0.11826786663E+03  0.00000000000E+00 0.  1.
         14    1    3    3    0    0  0.28830685416E+02  0.23413771707E+02  0.68994065809E+02  0.78355562942E+02  0.00000000000E+00 0. -1.
        -13    1    4    4    0    0  0.13481955471E+02 -0.26120868326E+02  0.63735876443E+02  0.70187782636E+02  0.00000000000E+00 0. -1.
         13    1    4    4    0    0  0.11397817905E+02  0.58772534309E+02  0.27074839482E+02  0.65705159425E+02  0.00000000000E+00 0.  1.
         -2    1    1    2    0  502  0.34511787849E+01 -0.88614668191E+02 -0.24852682419E+03  0.26387506967E+03  0.00000000000E+00 0.  1.
<scales pt_clust_5="13000.00000" pt_clust_6="13000.00000" pt_clust_7="13000.00000" pt_clust_8="13000.00000" pt_clust_9="88.68185"></scales>
<clustering>
<clus scale="   82.117">  5  6 -1 -1</clus>
<clus scale="   88.682">  2  9  1 -1</clus>
<clus scale="   88.954">  1  5  2 -1</clus>
<clus scale="   92.386">  7  8 -1 -1</clus>
<clus scale="   88.682">  2  5  1 -1</clus>
</clustering>
</event>
<event>
 9    2  0.5615294E-005  0.1389127E+03  0.7546771E-02  0.1239249E+00
          2   -1    0    0  502    0 -0.00000000000E+00  0.00000000000E+00  0.25405992975E+03  0.25405992975E+03  0.00000000000E+00 0. -1.
         21   -1    0    0  501  502  0.00000000000E+00 -0.00000000000E+00 -0.15912733596E+03  0.15912733596E+03  0.00000000000E+00 0. -1.
         24    2    1    2    0    0 -0.19088233336E+02  0.14121610969E+02  0.12326989785E+03  0.14896289421E+03  0.80191617930E+02 0.  0.
         23    2    1    2    0    0  0.79152272786E+02 -0.93192888258E+02  0.20504012556E+02  0.15356530076E+03  0.90619481122E+02 0.  0.
        -13    1    3    3    0    0 -0.41001253337E+02  0.11176118920E+01  0.11512239443E+03  0.12221095503E+03  0.00000000000E+00 0.  1.
         14    1    3    3    0    0  0.21913020000E+02  0.13003999077E+02  0.81475034243E+01  0.26751939174E+02  0.00000000000E+00 0. -1.
        -11    1    4    4    0    0  0.82518329216E+02 -0.29816950710E+02  0.20486358609E+02  0.90100033825E+02  0.00000000000E+00 0.  1.
         11    1    4    4    0    0 -0.33660564295E+01 -0.63375937548E+02  0.17653947124E-01  0.63465266939E+02  0.00000000000E+00 0. -1.
          1    1    1    2  501    0 -0.60064039450E+02  0.79071277289E+02 -0.48841316618E+02  0.11065907074E+03  0.00000000000E+00 0. -1.
<scales pt_clust_5="13000.00000" pt_clust_6="13000.00000" pt_clust_7="13000.00000" pt_clust_8="13000.00000" pt_clust_9="105.28461"></scales>
<clustering>
<clus scale="   80.192">  5  6 -1 -1</clus>
<clus scale="   83.633">  1  5  2 -1</clus>
<clus scale="   90.619">  7  8 -1 -1</clus>
<clus scale="  105.285">  2  9  1 -1</clus>
<clus scale="  105.285">  2  5  1 -1</clus>
</clustering>
</event>
<event>
 9    2  0.5615294E-005  0.1172679E+03  0.7546771E-02  0.1251138E+00
          2   -1    0    0  502    0 -0.00000000000E+00  0.00000000000E+00  0.57392060801E+03  0.57392060801E+03  0.00000000000E+00 0. -1.
         21   -1    0    0  501  502  0.00000000000E+00 -0.00000000000E+00 -0.40419343467E+02  0.40419343467E+02  0.00000000000E+00 0. -1.
         24    2    1    2    0    0 -0.57107951209E+02 -0.11462502452E+02  0.12155176058E+03  0.15630744523E+03  0.79148467322E+02 0.  0.
         23    2    1    2    0    0  0.83049384179E+02  0.52908510436E+02  0.19843918923E+03  0.23899510300E+03  0.89688554171E+02 0.  0.
        -11    1    3    3    0    0  0.13084523960E+02 -0.23488664884E+02  0.29324973821E+02  0.39785377149E+02  0.00000000000E+00 0.  1.
         12    1    3    3    0    0 -0.70192475169E+02  0.12026162432E+02  0.92226786757E+02  0.11652206808E+03  0.00000000000E+00 0. -1.
        -13    1    4    4    0    0  0.86673280759E+02  0.73463373549E+01  0.11998271880E+03  0.14819608322E+03  0.00000000000E+00 0.  1.
         13    1    4    4    0    0 -0.36238965803E+01  0.45562173081E+02  0.78456470427E+02  0.90799019786E+02  0.00000000000E+00 0. -1.
          1    1    1    2  501    0 -0.25941432970E+02 -0.41446007984E+02  0.21351031474E+03  0.21903740325E+03  0.00000000000E+00 0. -1.
<scales pt_clust_5="13000.00000" pt_clust_6="13000.00000" pt_clust_7="13000.00000" pt_clust_8="13000.00000" pt_clust_9="48.89511"></scales>
<clustering>
<clus scale="   48.895">  2  9  1 -1</clus>
<clus scale="   79.148">  5  6 -1 -1</clus>
<clus scale="   89.689">  7  8 -1 -1</clus>
<clus scale="  109.418">  1  5  2 -1</clus>
<clus scale="   48.895">  2  5  1 -1</clus>
</clustering>
</event>
<event>
 9    2  0.5615294E-005  0.1048445E+03  0.7546771E-02  0.1271940E+00
         21   -1    0    0  501  502  0.00000000000E+00  0.00000000000E+00  0.11307976066E+03  0.11307976066E+03  0.00000000000E+00 0. -1.
         -1   -1    0    0    0  501 -0.00000000000E+00 -0.00000000000E+00 -0.45412308211E+03  0.45412308211E+03  0.00000000000E+00 0.  1.
         23    2    1    2    0    0  0.31847373956E+02 -0.41875813902E+02 -0.29175708339E+03  0.31119141153E+03  0.94604756149E+02 0.  0.
         24    2    1    2    0    0  0.74501816860E+02  0.39034230101E+02 -0.84751037236E+02  0.14386876778E+03  0.80257661284E+02 0.  0.
        -11    1    4    4    0    0  0.11021492472E+02  0.27331355443E+02 -0.72372512871E+02  0.78142542229E+02  0.00000000000E+00 0.  1.
         12    1    4    4    0    0  0.63480324388E+02  0.11702874657E+02 -0.12378524364E+02  0.65726225550E+02  0.00000000000E+00 0. -1.
        -11    1    3    3    0    0  0.20233879588E+02  0.24506510285E+02 -0.43011426729E+02  0.53478610293E+02  0.00000000000E+00 0.  1.
         11    1    3    3    0    0  0.11613494368E+02 -0.66382324187E+02 -0.24874565666E+03  0.25771280124E+03  0.00000000000E+00 0. -1.
         -2    1    1    2    0  502 -0.10634919082E+03  0.28415838012E+01  0.35464799180E+02  0.11214266345E+03  0.00000000000E+00 0.  1.
<scales pt_clust_5="13000.00000" pt_clust_6="13000.00000" pt_clust_7="13000.00000" pt_clust_8="13000.00000" pt_clust_9="106.38715"></scales>
<clustering>
<clus scale="   80.258">  5  6 -1 -1</clus>
<clus scale="   94.605">  7  8 -1 -1</clus>
<clus scale="  106.387">  1  9  2 -1</clus>
<clus scale="  106.387">  1  5  2 -1</clus>
<clus scale="  104.845">  1  5  2 -1</clus>
</clustering>
</event>
<event>
 9    2  0.5615294E-005  0.2696493E+03  0.7546771E-02  0.1136845E+00
         21   -1    0    0  501  502  0.00000000000E+00  0.00000000000E+00  0.20489259420E+03  0.20489259420E+03  0.00000000000E+00 0. -1.
          2   -1    0    0  502    0 -0.00000000000E+00 -0.00000000000E+00 -0.64721767381E+03  0.64721767381E+03  0.00000000000E+00 0. -1.
         24    2    1    2    0    0  0.75731531408E+02  0.12618975809E+02 -0.34473956214E+02  0.11639662334E+03  0.80406572293E+02 0.  0.
         23    2    1    2    0    0 -0.24535411687E+03 -0.18021924350E+03 -0.38009175221E+03  0.49564645842E+03  0.92293300143E+02 0.  0.
        -11    1    3    3    0    0  0.88841399408E+02 -0.32837965141E+01 -0.35578860568E+02  0.95757155803E+02  0.00000000000E+00 0.  1.
         12    1    3    3    0    0 -0.13109868000E+02  0.15902772323E+02  0.11049043543E+01  0.20639467536E+02  0.00000000000E+00 0. -1.
        -13    1    4    4    0    0 -0.66101438461E+02 -0.10414730412E+03 -0.14395136493E+03  0.18957335411E+03  0.00000000000E+00 0. -1.
         13    1    4    4    0    0 -0.17925267840E+03 -0.76071939378E+02 -0.23614038728E+03  0.30607310431E+03  0.00000000000E+00 0.  1.
          1    1    1    2  501    0  0.16962258546E+03  0.16760026769E+03 -0.27759371175E+02  0.24006718625E+03  0.00000000000E+00 0. -1.
<scales pt_clust_5="13000.00000" pt_clust_6="13000.00000" pt_clust_7="13000.00000" pt_clust_8="13000.00000" pt_clust_9="253.36276"></scales>
<clustering>
<clus scale="   80.407">  5  6 -1 -1</clus>
<clus scale="   92.293">  7  8 -1 -1</clus>
<clus scale="  111.174">  2  5  1 -1</clus>
<clus scale="  253.363">  1  9  2 -1</clus>
<clus scale="  253.363">  1  5  2 -1</clus>
</clustering>
</event>
<event>
 9    2  0.5615294E-005  0.1010159E+03  0.7546771E-02  0.1284684E+00
         21   -1    0    0  501  502  0.00000000000E+00  0.00000000000E+00  0.68635995545E+03  0.68635995545E+03  0.00000000000E+00 0. -1.
          4   -1    0    0  502    0 -0.00000000000E+00 -0.00000000000E+00 -0.47920457806E+02  0.47920457806E+02  0.00000000000E+00 0. -1.
         24    2    1    2    0    0 -0.24292449037E+01 -0.33356377541E+02  0.40065821232E+02  0.96716348822E+02  0.81426242360E+02 0.  0.
         23    2    1    2    0    0  0.73419303590E+02  0.24804365259E+02  0.21149428693E+03  0.24413251086E+03  0.94155184548E+02 0.  0.
        -11    1    3    3    0    0  0.29569041008E+02 -0.20406876377E+01  0.42572390539E+02  0.51873895442E+02  0.00000000000E+00 0.  1.
         12    1    3    3    0    0 -0.31998285912E+02 -0.31315689903E+02 -0.25065693066E+01  0.44842453379E+02  0.00000000000E+00 0. -1.
        -11    1    4    4    0    0  0.26060986036E+02  0.21217946622E+02  0.18830398753E+03  0.19127929311E+03  0.00000000000E+00 0.  1.
         11    1    4    4    0    0  0.47358317553E+02  0.35864186370E+01  0.23190299401E+02  0.52853217749E+02  0.00000000000E+00 0. -1.
          3    1    1    2  501    0 -0.70990058686E+02  0.85520122822E+01  0.38687938948E+03  0.39343155358E+03  0.00000000000E+00 0. -1.
<scales pt_clust_5="13000.00000" pt_clust_6="13000.00000" pt_clust_7="13000.00000" pt_clust_8="13000.00000" pt_clust_9="71.50332"></scales>
<clustering>
<clus scale="   71.503">  1  9  2 -1</clus>
<clus scale="   81.426">  5  6 -1 -1</clus>
<clus scale="   89.271">  2  5  1 -1</clus>
<clus scale="   94.155">  7  8 -1 -1</clus>
<clus scale="   71.503">  1  5  2 -1</clus>
</clustering>
</event>
<event>
 9    2  0.5615294E-005  0.1052831E+03  0.7546771E-02  0.1272620E+00
          2   -1    0    0  502    0 -0.00000000000E+00  0.00000000000E+00  0.44964387311E+03  0.44964387311E+03  0.00000000000E+00 0. -1.
         21   -1    0    0  501  502  0.00000000000E+00 -0.00000000000E+00 -0.49171700601E+02  0.49171700601E+02  0.00000000000E+00 0.  1.
         24    2    1    2    0    0 -0.23499326898E+01 -0.45791611602E+02  0.31452457558E+03  0.32942032862E+03  0.86542766237E+02 0.  0.
         23    2    1    2    0    0 -0.17326128255E+02  0.62694916457E+02  0.48221253634E+02  0.12361155730E+03  0.93400645212E+02 0.  0.
        -13    1    3    3    0    0 -0.31903765026E+02 -0.51768753865E+02  0.26096832694E+03  0.26795955248E+03  0.00000000000E+00 0.  1.
         14    1    3    3    0    0  0.29553832336E+02  0.59771422629E+01  0.53556248640E+02  0.61460776141E+02  0.00000000000E+00 0. -1.
        -13    1    4    4    0    0 -0.54972363816E+02  0.34991005748E+02  0.16812909582E+02  0.67297884034E+02  0.00000000000E+00 0.  1.
         13    1    4    4    0    0  0.37646235561E+02  0.27703910709E+02  0.31408344052E+02  0.56313673265E+02  0.00000000000E+00 0. -1.
          1    1    1    2  501    0  0.19676060945E+02 -0.16903304855E+02  0.37726343296E+02  0.45783687792E+02  0.00000000000E+00 0. -1.
<scales pt_clust_5="13000.00000" pt_clust_6="13000.00000" pt_clust_7="13000.00000" pt_clust_8="13000.00000" pt_clust_9="25.93973"></scales>
<clustering>
<clus scale="   25.940">  2  9  1 -1</clus>
<clus scale="   86.543">  5  6 -1 -1</clus>
<clus scale="   93.401">  7  8 -1 -1</clus>
<clus scale="   99.250">  1  5  2 -1</clus>
<clus scale="   25.940">  2  5  1 -1</clus>
</clustering>
</event>
<event>
 9    2  0.5615294E-005  0.1069931E+03  0.7546771E-02  0.1269918E+00
         21   -1    0    0  501  502  0.00000000000E+00  0.00000000000E+00  0.18959819360E+03  0.18959819360E+03  0.00000000000E+00 0.  1.
         -1   -1    0    0    0  501 -0.00000000000E+00 -0.00000000000E+00 -0.18573487314E+03  0.18573487314E+03  0.00000000000E+00 0.  1.
         23    2    1    2    0    0  0.61351013678E+02  0.23636087752E+01 -0.12061429770E+03  0.16207509337E+03  0.89168343901E+02 0.  0.
         24    2    1    2    0    0 -0.43895671493E+02  0.57905977674E+02  0.94734854105E+02  0.14381919433E+03  0.80183139431E+02 0.  0.
        -13    1    4    4    0    0 -0.60142373233E+02  0.57140987712E+02  0.51544818985E+02  0.97668141679E+02  0.00000000000E+00 0.  1.
         14    1    4    4    0    0  0.16246701739E+02  0.76498996162E+00  0.43190035121E+02  0.46151052651E+02  0.00000000000E+00 0. -1.
        -11    1    3    3    0    0  0.83903346382E+02  0.87749782144E+01 -0.10022936289E+03  0.13100647679E+03  0.00000000000E+00 0.  1.
         11    1    3    3    0    0 -0.22552332704E+02 -0.64113694392E+01 -0.20384934818E+02  0.31068616577E+02  0.00000000000E+00 0. -1.
         -2    1    1    2    0  502 -0.17455342185E+02 -0.60269586449E+02  0.29742764057E+02  0.69438779046E+02  0.00000000000E+00 0.  1.
<scales pt_clust_5="13000.00000" pt_clust_6="13000.00000" pt_clust_7="13000.00000" pt_clust_8="13000.00000" pt_clust_9="62.74641"></scales>
<clustering>
<clus scale="   62.746">  1  9  2 -1</clus>
<clus scale="   80.183">  5  6 -1 -1</clus>
<clus scale="   89.168">  7  8 -1 -1</clus>
<clus scale="   99.629">  1  5  2 -1</clus>
<clus scale="   62.746">  1  5  2 -1</clus>
</clustering>
</event>
<event>
 9    2  0.5615294E-005  0.1068437E+03  0.7546771E-02  0.1269134E+00
         21   -1    0    0  501  502  0.00000000000E+00  0.00000000000E+00  0.10616436172E+03  0.10616436172E+03  0.00000000000E+00 0.  1.
          2   -1    0    0  502    0 -0.00000000000E+00 -0.00000000000E+00 -0.15141480760E+03  0.15141480760E+03  0.00000000000E+00 0. -1.
         24    2    1    2    0    0  0.10338443353E+02 -0.77608589487E+02 -0.71896724147E+02  0.13341490394E+03  0.80625188850E+02 0.  0.
         23    2    1    2    0    0  0.23428412741E+01  0.57211537562E+02  0.75488442013E+01  0.93479306603E+02  0.73503379370E+02 0.  0.
        -13    1    3    3    0    0  0.26375069463E+02  0.55690212068E+01 -0.24056098546E+02  0.36129685352E+02  0.00000000000E+00 0.  1.
         14    1    3    3    0    0 -0.16036626110E+02 -0.83177610694E+02 -0.47840625601E+02  0.97285218588E+02  0.00000000000E+00 0. -1.
        -13    1    4    4    0    0 -0.19075241462E+02 -0.10724812881E+02  0.37860771219E+00  0.21886749232E+02  0.00000000000E+00 0. -1.
         13    1    4    4    0    0  0.21418082736E+02  0.67936350443E+02  0.71702364892E+01  0.71592557371E+02  0.00000000000E+00 0.  1.
          1    1    1    2  501    0 -0.12681284627E+02  0.20397051925E+02  0.19097434063E+02  0.30684958772E+02  0.00000000000E+00 0. -1.
<scales pt_clust_5="13000.00000" pt_clust_6="13000.00000" pt_clust_7="13000.00000" pt_clust_8="13000.00000" pt_clust_9="24.01780"></scales>
<clustering>
<clus scale="   24.018">  1  9  2 -1</clus>
<clus scale="   73.503">  7  8 -1 -1</clus>
<clus scale="   80.625">  5  6 -1 -1</clus>
<clus scale="  101.577">  1  7  2 -1</clus>
<clus scale="   24.018">  1  5  2 -1</clus>
</clustering>
</event>
<event>
 9    2  0.5615294E-005  0.9326379E+02  0.7546771E-02  0.1301527E+00
         21   -1    0    0  501  502  0.00000000000E+00  0.00000000000E+00  0.35903923713E+03  0.35903923713E+03  0.00000000000E+00 0.  1.
         -3   -1    0    0    0  501 -0.00000000000E+00 -0.00000000000E+00 -0.30297873198E+02  0.30297873198E+02  0.00000000000E+00 0.  1.
         23    2    1    2    0    0 -0.25726012211E+02  0.45665883964E+01  0.11105652197E+03  0.14656346252E+03  0.92003347982E+02 0.  0.
         24    2    1    2    0    0  0.69134152665E+00  0.22930006335E+01  0.16785279415E+03  0.18658626767E+03  0.81450223897E+02 0.  0.
        -13    1    4    4    0    0 -0.18398006693E+02 -0.26935971292E+02  0.29781108605E+02  0.44169532819E+02  0.00000000000E+00 0.  1.
         14    1    4    4    0    0  0.19089348220E+02  0.29228971926E+02  0.13807168555E+03  0.14241673485E+03  0.00000000000E+00 0. -1.
        -13    1    3    3    0    0  0.16565149141E+02 -0.28274004805E+02  0.13830751988E+02  0.35568430023E+02  0.00000000000E+00 0. -1.
         13    1    3    3    0    0 -0.42291161353E+02  0.32840593201E+02  0.97225769982E+02  0.11099503250E+03  0.00000000000E+00 0.  1.
         -4    1    1    2    0  502  0.25034670685E+02 -0.68595890300E+01  0.49832047810E+02  0.56187380139E+02  0.00000000000E+00 0.  1.
<scales pt_clust_5="13000.00000" pt_clust_6="13000.00000" pt_clust_7="13000.00000" pt_clust_8="13000.00000" pt_clust_9="25.95744"></scales>
<clustering>
<clus scale="   25.957">  1  9  2 -1</clus>
<clus scale="   81.450">  5  6 -1 -1</clus>
<clus scale="   82.871">  1  5  2 -1</clus>
<clus scale="   92.003">  7  8 -1 -1</clus>
<clus scale="   25.957">  1  5  2 -1</clus>
</clustering>
</event>
<event>
 9    2  0.5615294E-005  0.9968252E+02  0.7546771E-02  0.1287276E+00
          2   -1    0    0  502    0 -0.00000000000E+00  0.00000000000E+00  0.72537392457E+03  0.72537392457E+03  0.00000000000E+00 0. -1.
         21   -1    0    0  501  502  0.00000000000E+00 -0.00000000000E+00 -0.26182833397E+02  0.26182833397E+02  0.00000000000E+00 0. -1.
         24    2    1    2    0    0  0.46023217358E+02  0.41570076411E-01  0.53805423421E+03  0.54577491612E+03  0.79055435344E+02 0.  0.
         23    2    1    2    0    0 -0.15061248335E+02 -0.11753845096E+02  0.13185837106E+03  0.16158850921E+03  0.91428782208E+02 0.  0.
        -11    1    3    3    0    0 -0.44677282952E+01 -0.31384993837E+02  0.16649819542E+03  0.16948931386E+03  0.00000000000E+00 0.  1.
         12    1    3    3    0    0  0.50490945653E+02  0.31426563914E+02  0.37155603879E+03  0.37628560226E+03  0.00000000000E+00 0. -1.
        -13    1    4    4    0    0  0.21654146884E+02 -0.33476364641E+02  0.10200600377E+03  0.10952074630E+03  0.00000000000E+00 0. -1.
         13    1    4    4    0    0 -0.36715395219E+02  0.21722519545E+02  0.29852367292E+02  0.52067762909E+02  0.00000000000E+00 0.  1.
          1    1    1    2  501    0 -0.30961969023E+02  0.11712275019E+02  0.29278485909E+02  0.44193332632E+02  0.00000000000E+00 0. -1.
<scales pt_clust_5="13000.00000" pt_clust_6="13000.00000" pt_clust_7="13000.00000" pt_clust_8="13000.00000" pt_clust_9="33.10319"></scales>
<clustering>
<clus scale="   33.103">  2  9  1 -1</clus>
<clus scale="   79.055">  5  6 -1 -1</clus>
<clus scale="   88.471">  1  5  2 -1</clus>
<clus scale="   91.429">  7  8 -1 -1</clus>
<clus scale="   33.103">  2  5  1 -1</clus>
</clustering>
</event>
<event>
 9    2  0.5615294E-005  0.1339041E+03  0.7546771E-02  0.1222919E+00
          2   -1    0    0  502    0 -0.00000000000E+00  0.00000000000E+00  0.15134571301E+04  0.15134571301E+04  0.00000000000E+00 0. -1.
         21   -1    0    0  501  502  0.00000000000E+00 -0.00000000000E+00 -0.25704565116E+02  0.25704565116E+02  0.00000000000E+00 0.  1.
         24    2    1    2    0    0  0.68899010829E+02  0.68082833748E+02  0.12472950187E+04  0.12542179039E+04  0.89080530465E+02 0.  0.
         23    2    1    2    0    0 -0.76628065523E+02 -0.49625792429E+02  0.22229641878E+03  0.25792107470E+03  0.93664311631E+02 0.  0.
        -13    1    3    3    0    0  0.87332996341E+01  0.35436865938E+02  0.13585774152E+03  0.14067468827E+03  0.00000000000E+00 0.  1.
         14    1    3    3    0    0  0.60165711195E+02  0.32645967810E+02  0.11114372772E+04  0.11135432156E+04  0.00000000000E+00 0. -1.
        -11    1    4    4    0    0 -0.31781396727E+02 -0.72838835640E+02  0.14973449675E+03  0.16951688020E+03  0.00000000000E+00 0.  1.
         11    1    4    4    0    0 -0.44846668796E+02  0.23213043211E+02  0.72561922027E+02  0.88404194501E+02  0.00000000000E+00 0. -1.
          1    1    1    2  501    0  0.77290546940E+01 -0.18457041320E+02  0.18161127572E+02  0.27022716655E+02  0.00000000000E+00 0. -1.
<scales pt_clust_5="13000.00000" pt_clust_6="13000.00000" pt_clust_7="13000.00000" pt_clust_8="13000.00000" pt_clust_9="20.01001"></scales>
<clustering>
<clus scale="   20.010">  2  9  1 -1</clus>
<clus scale="   89.081">  5  6 -1 -1</clus>
<clus scale="   93.664">  7  8 -1 -1</clus>
<clus scale="  130.739">  1  5  2 -1</clus>
<clus scale="   20.010">  2  5  1 -1</clus>
</clustering>
</event>
<event>
 9    2  0.5615294E-005  0.1067550E+03  0.7546771E-02  0.1273994E+00
          2   -1    0    0  502    0 -0.00000000000E+00  0.00000000000E+00  0.53225478551E+03  0.53225478551E+03  0.00000000000E+00 0. -1.
         21   -1    0    0  501  502  0.00000000000E+00 -0.00000000000E+00 -0.78758373022E+02  0.78758373022E+02  0.00000000000E+00 0. -1.
         23    2    1    2    0    0  0.66374727694E+02  0.63855684683E+01  0.41763486535E+03  0.43351981287E+03  0.95258424486E+02 0.  0.
         24    2    1    2    0    0  0.91689134389E+01 -0.23649043839E+02  0.52341283626E+02  0.98269289889E+02  0.79207935938E+02 0.  0.
        -11    1    4    4    0    0  0.13962505813E+02  0.27956999478E+02  0.17463395978E+02  0.35798262353E+02  0.00000000000E+00 0.  1.
         12    1    4    4    0    0 -0.47935923744E+01 -0.51606043317E+02  0.34877887648E+02  0.62471027536E+02  0.00000000000E+00 0. -1.
        -11    1    3    3    0    0  0.59271472760E+02  0.39744628983E+02  0.35595328754E+03  0.36303648016E+03  0.00000000000E+00 0.  1.
         11    1    3    3    0    0  0.71032549338E+01 -0.33359060515E+02  0.61681577810E+02  0.70483332712E+02  0.00000000000E+00 0. -1.
          1    1    1    2  501    0 -0.75543641132E+02  0.17263475370E+02 -0.16479736491E+02  0.79224055767E+02  0.00000000000E+00 0. -1.
<scales pt_clust_5="13000.00000" pt_clust_6="13000.00000" pt_clust_7="13000.00000" pt_clust_8="13000.00000" pt_clust_9="77.49109"></scales>
<clustering>
<clus scale="   77.491">  2  9  1 -1</clus>
<clus scale="   79.208">  5  6 -1 -1</clus>
<clus scale="   92.717">  2  5  1 -1</clus>
<clus scale="   95.258">  7  8 -1 -1</clus>
<clus scale="   77.491">  2  5  1 -1</clus>
</clustering>
</event>
<event>
 9    2  0.5615294E-005  0.1360675E+03  0.7546771E-02  0.1220686E+00
         21   -1    0    0  501  502  0.00000000000E+00  0.00000000000E+00  0.70091621407E+02  0.70091621407E+02  0.00000000000E+00 0.  1.
         -3   -1    0    0    0  501 -0.00000000000E+00 -0.00000000000E+00 -0.33875458185E+03  0.33875458185E+03  0.00000000000E+00 0.  1.
         23    2    1    2    0    0  0.32432949373E+02 -0.75054292541E+02 -0.92117866258E+02  0.15353524406E+03  0.91664207028E+02 0.  0.
         24    2    1    2    0    0 -0.55157895891E+02  0.10625398722E+03 -0.13986133187E+03  0.20206114643E+03  0.83277917046E+02 0.  0.
        -11    1    4    4    0    0 -0.76770662826E+02  0.73112766119E+02 -0.96445103028E+02  0.14332086079E+03  0.00000000000E+00 0.  1.
         12    1    4    4    0    0  0.21612766935E+02  0.33141221096E+02 -0.43416228841E+02  0.58740285641E+02  0.00000000000E+00 0. -1.
        -13    1    3    3    0    0  0.16900734736E+02  0.17393363690E+02 -0.38612699585E+02  0.45597198426E+02  0.00000000000E+00 0. -1.
         13    1    3    3    0    0  0.15532214637E+02 -0.92447656231E+02 -0.53505166673E+02  0.10793804563E+03  0.00000000000E+00 0.  1.
         -4    1    1    2    0  502  0.22724946518E+02 -0.31199694675E+02 -0.36683762317E+02  0.53249812767E+02  0.00000000000E+00 0.  1.
<scales pt_clust_5="13000.00000" pt_clust_6="13000.00000" pt_clust_7="13000.00000" pt_clust_8="13000.00000" pt_clust_9="38.59852"></scales>
<clustering>
<clus scale="   38.599">  1  9  2 -1</clus>
<clus scale="   83.278">  5  6 -1 -1</clus>
<clus scale="   91.664">  7  8 -1 -1</clus>
<clus scale="  130.565">  1  5  2 -1</clus>
<clus scale="   38.599">  1  5  2 -1</clus>
</clustering>
</event>
<event>
 9    2  0.5615294E-005  0.1866558E+03  0.7546771E-02  0.1191554E+00
         21   -1    0    0  501  502  0.00000000000E+00  0.00000000000E+00  0.49871193079E+03  0.49871193079E+03  0.00000000000E+00 0. -1.
          2   -1    0    0  502    0 -0.00000000000E+00 -0.00000000000E+00 -0.36490557057E+03  0.36490557057E+03  0.00000000000E+00 0. -1.
         24    2    1    2    0    0  0.34746924336E+02  0.31124364536E+02 -0.11974249340E+03  0.15260905777E+03  0.82311511756E+02 0.  0.
         23    2    1    2    0    0  0.67511652530E+02 -0.15647256827E+03 -0.16976746385E+03  0.25783552588E+03  0.92826067316E+02 0.  0.
        -13    1    3    3    0    0  0.57658282545E+02  0.13564278068E+02 -0.10411212459E+03  0.11978230951E+03  0.00000000000E+00 0.  1.
         14    1    3    3    0    0 -0.22911358209E+02  0.17560086468E+02 -0.15630368815E+02  0.32826748256E+02  0.00000000000E+00 0. -1.
        -13    1    4    4    0    0  0.29644765084E+02 -0.30171349364E+02  0.72545741581E+00  0.42304239832E+02  0.00000000000E+00 0.  1.
         13    1    4    4    0    0  0.37866887446E+02 -0.12630121891E+03 -0.17049292127E+03  0.21553128605E+03  0.00000000000E+00 0. -1.
          1    1    1    2  501    0 -0.10225857687E+03  0.12534820374E+03  0.42331631747E+03  0.45317291773E+03  0.00000000000E+00 0. -1.
<scales pt_clust_5="13000.00000" pt_clust_6="13000.00000" pt_clust_7="13000.00000" pt_clust_8="13000.00000" pt_clust_9="161.93737"></scales>
<clustering>
<clus scale="   82.312">  5  6 -1 -1</clus>
<clus scale="   92.826">  7  8 -1 -1</clus>
<clus scale="   94.611">  2  5  1 -1</clus>
<clus scale="  161.937">  1  9  2 -1</clus>
<clus scale="  161.937">  1  5  2 -1</clus>
</clustering>
</event>
<event>
 9    2  0.5615294E-005  0.1040000E+03  0.7546771E-02  0.1276212E+00
         21   -1    0    0  501  502  0.00000000000E+00  0.00000000000E+00  0.24098349272E+02  0.24098349272E+02  0.00000000000E+00 0.  1.
          2   -1    0    0  502    0 -0.00000000000E+00 -0.00000000000E+00 -0.67665524073E+03  0.67665524073E+03  0.00000000000E+00 0. -1.
         24    2    1    2    0    0 -0.16285704366E+02 -0.39360364304E+02 -0.44979160901E+03  0.45975795260E+03  0.85149404025E+02 0.  0.
         23    2    1    2    0    0  0.37639417477E+02  0.37858539430E+02 -0.17820493234E+03  0.20841577645E+03  0.93968841685E+02 0.  0.
        -11    1    3    3    0    0  0.27055427499E+02 -0.59911165985E+01 -0.59314656129E+02  0.65468450928E+02  0.00000000000E+00 0.  1.
         12    1    3    3    0    0 -0.43341131865E+02 -0.33369247705E+02 -0.39047695288E+03  0.39428950168E+03  0.00000000000E+00 0. -1.
        -11    1    4    4    0    0 -0.24103787517E+02 -0.11626251082E+02 -0.28556872377E+02  0.39136392870E+02  0.00000000000E+00 0.  1.
         11    1    4    4    0    0  0.61743204995E+02  0.49484790512E+02 -0.14964805996E+03  0.16927938358E+03  0.00000000000E+00 0. -1.
          1    1    1    2  501    0 -0.21353713111E+02  0.15018248737E+01 -0.24560350109E+02  0.32579860943E+02  0.00000000000E+00 0. -1.
<scales pt_clust_5="13000.00000" pt_clust_6="13000.00000" pt_clust_7="13000.00000" pt_clust_8="13000.00000" pt_clust_9="21.40646"></scales>
<clustering>
<clus scale="   21.406">  1  9  2 -1</clus>
<clus scale="   85.149">  5  6 -1 -1</clus>
<clus scale="   93.969">  7  8 -1 -1</clus>
<clus scale="   96.106">  2  5  1 -1</clus>
<clus scale="   21.406">  1  5  2 -1</clus>
</clustering>
</event>
<event>
 9    2  0.5615294E-005  0.1326345E+03  0.7546771E-02  0.1225755E+00
          2   -1    0    0  502    0 -0.00000000000E+00  0.00000000000E+00  0.69040254035E+03  0.69040254035E+03  0.00000000000E+00 0. -1.
         21   -1    0    0  501  502  0.00000000000E+00 -0.00000000000E+00 -0.54951760012E+02  0.54951760012E+02  0.00000000000E+00 0. -1.
         24    2    1    2    0    0 -0.65023606937E+01  0.10271117410E+03  0.45391256434E+03  0.47193486596E+03  0.78064304690E+02 0.  0.
         23    2    1    2    0    0  0.48734880842E+02 -0.87197220964E+02  0.18575397798E+03  0.22823048499E+03  0.87213358982E+02 0.  0.
        -13    1    3    3    0    0 -0.37630347193E+02  0.71338799271E+02  0.23079257246E+03  0.24448001721E+03  0.00000000000E+00 0.  1.
         14    1    3    3    0    0  0.31127986499E+02  0.31372374826E+02  0.22311999188E+03  0.22745484875E+03  0.00000000000E+00 0. -1.
        -11    1    4    4    0    0  0.24802968329E+02  0.50163696957E+01  0.79716091920E+01  0.26531071520E+02  0.00000000000E+00 0.  1.
         11    1    4    4    0    0  0.23931912513E+02 -0.92213590660E+02  0.17778236879E+03  0.20169941347E+03  0.00000000000E+00 0. -1.
          1    1    1    2  501    0 -0.42232520149E+02 -0.15513953132E+02 -0.42157619883E+01  0.45188949413E+02  0.00000000000E+00 0. -1.
<scales pt_clust_5="13000.00000" pt_clust_6="13000.00000" pt_clust_7="13000.00000" pt_clust_8="13000.00000" pt_clust_9="44.99187"></scales>
<clustering>
<clus scale="   44.992">  2  9  1 -1</clus>
<clus scale="   78.064">  5  6 -1 -1</clus>
<clus scale="   87.213">  7  8 -1 -1</clus>
<clus scale="  126.806">  1  5  2 -1</clus>
<clus scale="   44.992">  2  5  1 -1</clus>
</clustering>
</event>
<event>
 9    2  0.5615294E-005  0.9922082E+02  0.7546771E-02  0.1289115E+00
          4   -1    0    0  502    0 -0.00000000000E+00  0.00000000000E+00  0.32547867422E+02  0.32547867422E+02  0.00000000000E+00 0. -1.
         21   -1    0    0  501  502  0.00000000000E+00 -0.00000000000E+00 -0.53352487681E+03  0.53352487681E+03  0.00000000000E+00 0.  1.
         24    2    1    2    0    0  0.34931662505E+02  0.22483856088E+02 -0.12169044317E+03  0.15079591563E+03  0.78772453185E+02 0.  0.
         23    2    1    2    0    0  0.11194791918E+02 -0.45030592795E+02 -0.32273707172E+03  0.33889718170E+03  0.92406734854E+02 0.  0.
        -13    1    3    3    0    0  0.31295208127E+02 -0.50193014023E+01 -0.11873947013E+03  0.12289688851E+03  0.00000000000E+00 0.  1.
         14    1    3    3    0    0  0.36364543778E+01  0.27503157491E+02 -0.29509730435E+01  0.27899027121E+02  0.00000000000E+00 0. -1.
        -13    1    4    4    0    0 -0.38740924014E+01 -0.67741611135E+02 -0.28079846930E+03  0.28888010460E+03  0.00000000000E+00 0.  1.
         13    1    4    4    0    0  0.15068884319E+02  0.22711018340E+02 -0.41938602420E+02  0.50017077100E+02  0.00000000000E+00 0. -1.
          3    1    1    2  501    0 -0.46126454423E+02  0.22546736706E+02 -0.56549494496E+02  0.76379646906E+02  0.00000000000E+00 0. -1.
<scales pt_clust_5="13000.00000" pt_clust_6="13000.00000" pt_clust_7="13000.00000" pt_clust_8="13000.00000" pt_clust_9="51.34207"></scales>
<clustering>
<clus scale="   51.342">  2  9  1 -1</clus>
<clus scale="   78.772">  5  6 -1 -1</clus>
<clus scale="   86.665">  1  5  2 -1</clus>
<clus scale="   92.407">  7  8 -1 -1</clus>
<clus scale="   51.342">  2  5  1 -1</clus>
</clustering>
</event>
<event>
 9    2  0.5615294E-005  0.1326058E+03  0.7546771E-02  0.1239948E+00
          2   -1    0    0  502    0 -0.00000000000E+00  0.00000000000E+00  0.30590290597E+03  0.30590290597E+03  0.00000000000E+00 0. -1.
         21   -1    0    0  501  502  0.00000000000E+00 -0.00000000000E+00 -0.10485594114E+03  0.10485594114E+03  0.00000000000E+00 0. -1.
         24    2    1    2    0    0  0.49521970248E+02 -0.16191314531E+02  0.40932916995E+02  0.10324574787E+03  0.79180784004E+02 0.  0.
         23    2    1    2    0    0  0.57172181790E+02  0.32995860757E+02  0.16553254476E+03  0.19936784987E+03  0.89381938831E+02 0.  0.
        -11    1    3    3    0    0 -0.18192875601E+02  0.93868976308E+01  0.81704159947E+00  0.20488097197E+02  0.00000000000E+00 0.  1.
         12    1    3    3    0    0  0.67714845849E+02 -0.25578212162E+02  0.40115875395E+02  0.82757650671E+02  0.00000000000E+00 0. -1.
        -13    1    4    4    0    0 -0.17508859442E+02  0.21535112858E+02  0.16530835030E+02  0.32304639784E+02  0.00000000000E+00 0.  1.
         13    1    4    4    0    0  0.74681041232E+02  0.11460747899E+02  0.14900170973E+03  0.16706321009E+03  0.00000000000E+00 0. -1.
          1    1    1    2  501    0 -0.10669415204E+03 -0.16804546226E+02 -0.54184969179E+01  0.10814524937E+03  0.00000000000E+00 0. -1.
<scales pt_clust_5="13000.00000" pt_clust_6="13000.00000" pt_clust_7="13000.00000" pt_clust_8="13000.00000" pt_clust_9="97.95491"></scales>
<clustering>
<clus scale="   79.181">  5  6 -1 -1</clus>
<clus scale="   89.382">  7  8 -1 -1</clus>
<clus scale="   94.785">  1  5  2 -1</clus>
<clus scale="   97.955">  2  9  1 -1</clus>
<clus scale="   97.955">  2  5  1 -1</clus>
</clustering>
</event>
<event>
 9    2  0.5615294E-005  0.1352677E+03  0.7546771E-02  0.1223034E+00
         -1   -1    0    0    0  501 -0.00000000000E+00  0.00000000000E+00  0.47707322920E+02  0.47707322920E+02  0.00000000000E+00 0.  1.
         21   -1    0    0  501  502  0.00000000000E+00 -0.00000000000E+00 -0.56235474850E+03  0.56235474850E+03  0.00000000000E+00 0.  1.
         24    2    1    2    0    0 -0.44221369525E+02  0.80414582786E+02 -0.10888706620E+03  0.16376703739E+03  0.80877776319E+02 0.  0.
         23    2    1    2    0    0  0.23431898301E+02 -0.11197576404E+03 -0.32362010248E+03  0.35587749104E+03  0.93974423715E+02 0.  0.
        -11    1    3    3    0    0 -0.44921698018E+02  0.36469800453E+02 -0.14503090399E+02  0.59651864422E+02  0.00000000000E+00 0.  1.
         12    1    3    3    0    0  0.70032849305E+00  0.43944782334E+02 -0.94383975796E+02  0.10411517296E+03  0.00000000000E+00 0. -1.
        -11    1    4    4    0    0  0.41326790823E+02 -0.74656027064E+02 -0.29078364576E+03  0.30304546632E+03  0.00000000000E+00 0.  1.
         11    1    4    4    0    0 -0.17894892521E+02 -0.37319736975E+02 -0.32836456716E+02  0.52832024719E+02  0.00000000000E+00 0. -1.
         -2    1    1    2    0  502  0.20789471223E+02  0.31561181253E+02 -0.82140256913E+02  0.90417542997E+02  0.00000000000E+00 0.  1.
<scales pt_clust_5="13000.00000" pt_clust_6="13000.00000" pt_clust_7="13000.00000" pt_clust_8="13000.00000" pt_clust_9="37.79299"></scales>
<clustering>
<clus scale="   37.793">  2  9  1 -1</clus>
<clus scale="   80.878">  5  6 -1 -1</clus>
<clus scale="   93.974">  7  8 -1 -1</clus>
<clus scale="  126.520">  1  5  2 -1</clus>
<clus scale="   37.793">  2  5  1 -1</clus>
</clustering>
</event>
<event>
 9    2  0.5615294E-005  0.9656699E+02  0.7546771E-02  0.1293338E+00
         -1   -1    0    0    0  501 -0.00000000000E+00  0.00000000000E+00  0.12627797760E+03  0.12627797760E+03  0.00000000000E+00 0.  1.
         21   -1    0    0  501  502  0.00000000000E+00 -0.00000000000E+00 -0.29407619348E+03  0.29407619348E+03  0.00000000000E+00 0.  1.
         23    2    1    2    0    0  0.30534068227E+02 -0.39549421563E+02 -0.69826827244E+02  0.12466031005E+03  0.90376551331E+02 0.  0.
         24    2    1    2    0    0  0.43680381359E+02  0.22914151244E+02 -0.16789247074E+03  0.19238135226E+03  0.79935404707E+02 0.  0.
        -11    1    4    4    0    0 -0.23011441068E+02 -0.76189826580E+00 -0.36889338927E+02  0.43484827647E+02  0.00000000000E+00 0.  1.
         12    1    4    4    0    0  0.66691822427E+02  0.23676049510E+02 -0.13100313181E+03  0.14889652462E+03  0.00000000000E+00 0. -1.
        -11    1    3    3    0    0  0.41901514952E+02 -0.63871104723E+02 -0.50280278915E+02  0.91451415634E+02  0.00000000000E+00 0.  1.
         11    1    3    3    0    0 -0.11367446725E+02  0.24321683160E+02 -0.19546548329E+02  0.33208894416E+02  0.00000000000E+00 0. -1.
         -2    1    1    2    0  502 -0.74214449586E+02  0.16635270318E+02  0.69921082095E+02  0.10331250876E+03  0.00000000000E+00 0.  1.
<scales pt_clust_5="13000.00000" pt_clust_6="13000.00000" pt_clust_7="13000.00000" pt_clust_8="13000.00000" pt_clust_9="76.05605"></scales>
<clustering>
<clus scale="   76.056">  2  9  1 -1</clus>
<clus scale="   79.935">  5  6 -1 -1</clus>
<clus scale="   86.873">  2  5  1 -1</clus>
<clus scale="   90.377">  7  8 -1 -1</clus>
<clus scale="   76.056">  2  5  1 -1</clus>
</clustering>
</event>
<event>
 9    2  0.5615294E-005  0.2239834E+03  0.7546771E-02  0.1130948E+00
         21   -1    0    0  501  502  0.00000000000E+00  0.00000000000E+00  0.25325947978E+03  0.25325947978E+03  0.00000000000E+00 0.  1.
          2   -1    0    0  502    0 -0.00000000000E+00 -0.00000000000E+00 -0.18186370217E+03  0.18186370217E+03  0.00000000000E+00 0. -1.
         24    2    1    2    0    0 -0.65761084244E+01  0.98987523449E+02  0.10662774674E+03  0.16443568593E+03  0.76340313279E+02 0.  0.
         23    2    1    2    0    0  0.26189443817E+02  0.22082782991E+02  0.60559308632E+02  0.11506400512E+03  0.91644744209E+02 0.  0.
        -11    1    3    3    0    0  0.31085077866E+02  0.26556743514E+02  0.52257432576E+02  0.66350448012E+02  0.00000000000E+00 0.  1.
         12    1    3    3    0    0 -0.37661186290E+02  0.72430779936E+02  0.54370314161E+02  0.98085237915E+02  0.00000000000E+00 0. -1.
        -13    1    4    4    0    0  0.39345776412E+02  0.34081637879E+01 -0.10133107100E+02  0.40772362716E+02  0.00000000000E+00 0. -1.
         13    1    4    4    0    0 -0.13156332595E+02  0.18674619203E+02  0.70692415732E+02  0.74291642409E+02  0.00000000000E+00 0.  1.
          1    1    1    2  501    0 -0.19613335393E+02 -0.12107030644E+03 -0.95791277756E+02  0.15562349090E+03  0.00000000000E+00 0. -1.
<scales pt_clust_5="13000.00000" pt_clust_6="13000.00000" pt_clust_7="13000.00000" pt_clust_8="13000.00000" pt_clust_9="122.64875"></scales>
<clustering>
<clus scale="   76.340">  5  6 -1 -1</clus>
<clus scale="   91.645">  7  8 -1 -1</clus>
<clus scale="   97.248">  5  7 -1 -1</clus>
<clus scale="  122.649">  1  9  2 -1</clus>
<clus scale="  122.649">  1  5  2 -1</clus>
</clustering>
</event>
<event>
 9    2  0.5615294E-005  0.9316526E+02  0.7546771E-02  0.1298458E+00
          2   -1    0    0  502    0 -0.00000000000E+00  0.00000000000E+00  0.10062769755E+04  0.10062769755E+04  0.00000000000E+00 0. -1.
         21   -1    0    0  501  502  0.00000000000E+00 -0.00000000000E+00 -0.18414417765E+02  0.18414417765E+02  0.00000000000E+00 0. -1.
         24    2    1    2    0    0 -0.18220864376E+02  0.60081760872E+02  0.48528739121E+03  0.49583844140E+03  0.80063037750E+02 0.  0.
         23    2    1    2    0    0 -0.29052411557E+02 -0.31699472095E+01  0.26908799870E+03  0.28392444252E+03  0.85735913322E+02 0.  0.
        -11    1    3    3    0    0 -0.48229220400E+02  0.22570824385E+02  0.27847720002E+03  0.28352257537E+03  0.00000000000E+00 0.  1.
         12    1    3    3    0    0  0.30008356025E+02  0.37510936486E+02  0.20681019120E+03  0.21231586604E+03  0.00000000000E+00 0. -1.
        -11    1    4    4    0    0  0.26403780576E+02 -0.10082148366E+02  0.14646449355E+03  0.14916654187E+03  0.00000000000E+00 0.  1.
         11    1    4    4    0    0 -0.55456192133E+02  0.69122011561E+01  0.12262350516E+03  0.13475790065E+03  0.00000000000E+00 0. -1.
          1    1    1    2  501    0  0.47273275933E+02 -0.56911813662E+02  0.23348716785E+03  0.24492850937E+03  0.00000000000E+00 0. -1.
<scales pt_clust_5="13000.00000" pt_clust_6="13000.00000" pt_clust_7="13000.00000" pt_clust_8="13000.00000" pt_clust_9="73.98457"></scales>
<clustering>
<clus scale="   73.985">  2  9  1 -1</clus>
<clus scale="   80.063">  5  6 -1 -1</clus>
<clus scale="   85.736">  7  8 -1 -1</clus>
<clus scale="   87.973">  1  5  2 -1</clus>
<clus scale="   73.985">  2  5  1 -1</clus>
</clustering>
</event>
<event>
 9    2  0.5615294E-005  0.1083648E+03  0.7546771E-02  0.1266191E+00
         21   -1    0    0  501  502  0.00000000000E+00  0.00000000000E+00  0.38969363674E+02  0.38969363674E+02  0.00000000000E+00 0.  1.
          2   -1    0    0  502    0 -0.00000000000E+00 -0.00000000000E+00 -0.85311246770E+03  0.85311246770E+03  0.00000000000E+00 0. -1.
         24    2    1    2    0    0 -0.28392028485E+02 -0.34930706546E+02 -0.70878603928E+03  0.71718148589E+03  0.99726489375E+02 0.  0.
         23    2    1    2    0    0 -0.68618468638E+01  0.39536232569E+02 -0.90058916014E+02  0.13619530768E+03  0.93959325515E+02 0.  0.
        -11    1    3    3    0    0 -0.27022893010E+02 -0.18802350717E+02 -0.62043836148E+02  0.70236762049E+02  0.00000000000E+00 0.  1.
         12    1    3    3    0    0 -0.13691354753E+01 -0.16128355829E+02 -0.64674220313E+03  0.64694472384E+03  0.00000000000E+00 0. -1.
        -13    1    4    4    0    0  0.19028377340E+02  0.36434457522E+02  0.13637721453E+01  0.41126739642E+02  0.00000000000E+00 0.  1.
         13    1    4    4    0    0 -0.25890224204E+02  0.31017750474E+01 -0.91422688159E+02  0.95068568034E+02  0.00000000000E+00 0. -1.
          1    1    1    2  501    0  0.35253875349E+02 -0.46055260237E+01 -0.15298148731E+02  0.38705037807E+02  0.00000000000E+00 0. -1.
<scales pt_clust_5="13000.00000" pt_clust_6="13000.00000" pt_clust_7="13000.00000" pt_clust_8="13000.00000" pt_clust_9="35.55343"></scales>
<clustering>
<clus scale="   35.553">  1  9  2 -1</clus>
<clus scale="   93.959">  7  8 -1 -1</clus>
<clus scale="   99.726">  5  6 -1 -1</clus>
<clus scale="  103.082">  1  7  2 -1</clus>
<clus scale="   35.553">  1  5  2 -1</clus>
</clustering>
</event>
<event>
 9    2  0.5615294E-005  0.9490981E+02  0.7546771E-02  0.1297658E+00
          4   -1    0    0  502    0 -0.00000000000E+00  0.00000000000E+00  0.23498063620E+03  0.23498063620E+03  0.00000000000E+00 0. -1.
         21   -1    0    0  501  502  0.00000000000E+00 -0.00000000000E+00 -0.70331076133E+02  0.70331076133E+02  0.00000000000E+00 0. -1.
         24    2    1    2    0    0 -0.29380181912E+02 -0.98113059845E+01  0.15549047352E+03  0.17755736646E+03  0.79936688804E+02 0.  0.
         23    2    1    2    0    0  0.45135654950E+01  0.25113807686E+02  0.20152516089E+02  0.96555457055E+02  0.90916207425E+02 0.  0.
        -13    1    3    3    0    0  0.26120838336E+02 -0.47950927744E+01  0.75777549375E+02  0.80296501165E+02  0.00000000000E+00 0.  1.
         14    1    3    3    0    0 -0.55501020247E+02 -0.50162132100E+01  0.79712924142E+02  0.97260865299E+02  0.00000000000E+00 0. -1.
        -11    1    4    4    0    0  0.17205386941E+01  0.59666228076E+02  0.10916710994E+02  0.60681081113E+02  0.00000000000E+00 0. -1.
         11    1    4    4    0    0  0.27930268009E+01 -0.34552420389E+02  0.92358050953E+01  0.35874375942E+02  0.00000000000E+00 0.  1.
          3    1    1    2  501    0  0.24866616417E+02 -0.15302501702E+02 -0.10993429536E+02  0.31198888815E+02  0.00000000000E+00 0. -1.
<scales pt_clust_5="13000.00000" pt_clust_6="13000.00000" pt_clust_7="13000.00000" pt_clust_8="13000.00000" pt_clust_9="29.19786"></scales>
<clustering>
<clus scale="   29.198">  2  9  1 -1</clus>
<clus scale="   79.937">  5  6 -1 -1</clus>
<clus scale="   84.451">  1  5  2 -1</clus>
<clus scale="   90.916">  7  8 -1 -1</clus>
<clus scale="   29.198">  2  5  1 -1</clus>
</clustering>
</event>
<event>
 9    2  0.5615294E-005  0.1249747E+03  0.7546771E-02  0.1245834E+00
         -1   -1    0    0    0  501 -0.00000000000E+00  0.00000000000E+00  0.63634699257E+03  0.63634699257E+03  0.00000000000E+00 0.  1.
         21   -1    0    0  501  502  0.00000000000E+00 -0.00000000000E+00 -0.76008469661E+02  0.76008469661E+02  0.00000000000E+00 0.  1.
         24    2    1    2    0    0  0.46701170818E+02 -0.12789807585E+02  0.30583397967E+03  0.32014549065E+03  0.81327323378E+02 0.  0.
         23    2    1    2    0    0 -0.54454899480E+02  0.91530073436E+02  0.27107734359E+03  0.31137181545E+03  0.11011989298E+03 0.  0.
        -13    1    3    3    0    0  0.81603682689E+01  0.19154119121E+02  0.16644216286E+02  0.26655240110E+02  0.00000000000E+00 0.  1.
         14    1    3    3    0    0  0.38540802549E+02 -0.31943926706E+02  0.28918976339E+03  0.29349025054E+03  0.00000000000E+00 0. -1.
        -11    1    4    4    0    0 -0.37705987055E-02  0.89398469040E+02  0.21657447943E+03  0.23430021643E+03  0.00000000000E+00 0.  1.
         11    1    4    4    0    0 -0.54451128881E+02  0.21316043963E+01  0.54502864168E+02  0.77071599025E+02  0.00000000000E+00 0. -1.
         -2    1    1    2    0  502  0.77537286621E+01 -0.78740265851E+02 -0.16572800355E+02  0.80838156127E+02  0.00000000000E+00 0.  1.
<scales pt_clust_5="13000.00000" pt_clust_6="13000.00000" pt_clust_7="13000.00000" pt_clust_8="13000.00000" pt_clust_9="79.12111"></scales>
<clustering>
<clus scale="   79.121">  2  9  1 -1</clus>
<clus scale="   81.327">  5  6 -1 -1</clus>
<clus scale="  100.531">  1  5  2 -1</clus>
<clus scale="  110.120">  7  8 -1 -1</clus>
<clus scale="   79.121">  2  5  1 -1</clus>
</clustering>
</event>
<event>
 9    2  0.5615294E-005  0.9751673E+02  0.7546771E-02  0.1290738E+00
          4   -1    0    0  502    0 -0.00000000000E+00  0.00000000000E+00  0.29060287486E+03  0.29060287486E+03  0.00000000000E+00 0. -1.
         21   -1    0    0  501  502  0.00000000000E+00 -0.00000000000E+00 -0.21957389058E+03  0.21957389058E+03  0.00000000000E+00 0.  1.
         24    2    1    2    0    0  0.31004600036E+02  0.76433999685E+01  0.19204591076E+03  0.21094663072E+03  0.81222794732E+02 0.  0.
         23    2    1    2    0    0 -0.37510340214E+02 -0.32948147402E+02  0.57650120994E+02  0.11866278233E+03  0.90910469247E+02 0.  0.
        -11    1    3    3    0    0  0.49569482157E+02 -0.12903698762E+01  0.62542103138E+02  0.79814242342E+02  0.00000000000E+00 0.  1.
         12    1    3    3    0    0 -0.18564882121E+02  0.89337698447E+01  0.12950380762E+03  0.13113238838E+03  0.00000000000E+00 0. -1.
        -13    1    4    4    0    0  0.46407172465E+01 -0.34105877075E+02  0.67133069525E+02  0.75442667844E+02  0.00000000000E+00 0.  1.
         13    1    4    4    0    0 -0.42151057461E+02  0.11577296735E+01 -0.94829485306E+01  0.43220114482E+02  0.00000000000E+00 0. -1.
          3    1    1    2  501    0  0.65057401777E+01  0.25304747433E+02 -0.17866704748E+03  0.18056735240E+03  0.00000000000E+00 0. -1.
<scales pt_clust_5="13000.00000" pt_clust_6="13000.00000" pt_clust_7="13000.00000" pt_clust_8="13000.00000" pt_clust_9="26.12767"></scales>
<clustering>
<clus scale="   26.128">  2  9  1 -1</clus>
<clus scale="   81.223">  5  6 -1 -1</clus>
<clus scale="   88.555">  1  5  2 -1</clus>
<clus scale="   90.910">  7  8 -1 -1</clus>
<clus scale="   26.128">  2  5  1 -1</clus>
</clustering>
</event>
<event>
 9    2  0.5615294E-005  0.1468553E+03  0.7546771E-02  0.1209839E+00
         21   -1    0    0  501  502  0.00000000000E+00  0.00000000000E+00  0.77671943843E+03  0.77671943843E+03  0.00000000000E+00 0. -1.
          2   -1    0    0  502    0 -0.00000000000E+00 -0.00000000000E+00 -0.75879244346E+02  0.75879244346E+02  0.00000000000E+00 0. -1.
         24    2    1    2    0    0  0.11649221129E+03 -0.35284521815E+02  0.78439368490E+02  0.16724440573E+03  0.83681084754E+02 0.  0.
         23    2    1    2    0    0 -0.78549209226E+02 -0.14447803168E+02  0.12181748237E+03  0.18087765810E+03  0.10723110977E+03 0.  0.
        -13    1    3    3    0    0  0.85669203771E+01 -0.33499398333E+02  0.13520905732E+01  0.34603900970E+02  0.00000000000E+00 0.  1.
         14    1    3    3    0    0  0.10792529092E+03 -0.17851234818E+01  0.77087277917E+02  0.13264050476E+03  0.00000000000E+00 0. -1.
        -13    1    4    4    0    0 -0.52632263956E+02  0.44694873394E+02  0.66161529753E+02  0.95630198871E+02  0.00000000000E+00 0. -1.
         13    1    4    4    0    0 -0.25916945269E+02 -0.59142676562E+02  0.55655952614E+02  0.85247459225E+02  0.00000000000E+00 0.  1.
          1    1    1    2  501    0 -0.37943002067E+02  0.49732324983E+02  0.50058334323E+03  0.50447661896E+03  0.00000000000E+00 0. -1.
<scales pt_clust_5="13000.00000" pt_clust_6="13000.00000" pt_clust_7="13000.00000" pt_clust_8="13000.00000" pt_clust_9="62.55378"></scales>
<clustering>
<clus scale="   62.554">  1  9  2 -1</clus>
<clus scale="   83.681">  5  6 -1 -1</clus>
<clus scale="  107.231">  7  8 -1 -1</clus>
<clus scale="  130.654">  2  5  1 -1</clus>
<clus scale="   62.554">  1  5  2 -1</clus>
</clustering>
</event>
<event>
 9    2  0.5615294E-005  0.2712152E+03  0.7546771E-02  0.1154822E+00
          2   -1    0    0  502    0 -0.00000000000E+00  0.00000000000E+00  0.31218985399E+03  0.31218985399E+03  0.00000000000E+00 0. -1.
         21   -1    0    0  501  502  0.00000000000E+00 -0.00000000000E+00 -0.39325042600E+03  0.39325042600E+03  0.00000000000E+00 0. -1.
         24    2    1    2    0    0 -0.54088994662E+01 -0.21018664667E+01  0.42076933476E+02  0.82647159480E+02  0.70897183324E+02 0.  0.
         23    2    1    2    0    0 -0.56979346730E+02  0.24858000946E+03  0.94878357516E+02  0.28786822631E+03  0.93955020802E+02 0.  0.
        -11    1    3    3    0    0  0.28524197074E+02 -0.13406644914E+02  0.33236242760E+02  0.45804102211E+02  0.00000000000E+00 0.  1.
         12    1    3    3    0    0 -0.33933096541E+02  0.11304778447E+02  0.88406907157E+01  0.36843057269E+02  0.00000000000E+00 0. -1.
        -13    1    4    4    0    0 -0.36177776733E+02  0.13316145003E+03  0.10010258314E+03  0.17047384097E+03  0.00000000000E+00 0.  1.
         13    1    4    4    0    0 -0.20801569997E+02  0.11541855944E+03 -0.52242256206E+01  0.11739438534E+03  0.00000000000E+00 0. -1.
          1    1    1    2  501    0  0.62388246196E+02 -0.24647814300E+03 -0.21801586299E+03  0.33492489420E+03  0.00000000000E+00 0. -1.
<scales pt_clust_5="13000.00000" pt_clust_6="13000.00000" pt_clust_7="13000.00000" pt_clust_8="13000.00000" pt_clust_9="254.42117"></scales>
<clustering>
<clus scale="   70.897">  5  6 -1 -1</clus>
<clus scale="   71.134">  1  5  2 -1</clus>
<clus scale="   93.955">  7  8 -1 -1</clus>
<clus scale="  254.421">  2  9  1 -1</clus>
<clus scale="  254.421">  2  5  1 -1</clus>
</clustering>
</event>
<event>
 9    2  0.5615294E-005  0.9133593E+02  0.7546771E-02  0.1305070E+00
         21   -1    0    0  501  502  0.00000000000E+00  0.00000000000E+00  0.58432407990E+02  0.58432407990E+02  0.00000000000E+00 0.  1.
          2   -1    0    0  502    0 -0.00000000000E+00 -0.00000000000E+00 -0.25099837884E+03  0.25099837884E+03  0.00000000000E+00 0. -1.
         24    2    1    2    0    0 -0.29831294363E+01 -0.24277004768E+02 -0.85007678511E+02  0.11987140379E+03  0.80898553873E+02 0.  0.
         23    2    1    2    0    0 -0.29159548042E+00  0.33726650932E+00 -0.11445764900E+02  0.90456139795E+02  0.89727971758E+02 0.  0.
        -11    1    3    3    0    0  0.26408518124E+02  0.15995777874E+02 -0.16107112508E+02  0.34824040728E+02  0.00000000000E+00 0.  1.
         12    1    3    3    0    0 -0.29391647560E+02 -0.40272782642E+02 -0.68900566004E+02  0.85047363061E+02  0.00000000000E+00 0. -1.
        -11    1    4    4    0    0  0.34511861780E+02 -0.19886966303E+02 -0.26097285786E+02  0.47619621561E+02  0.00000000000E+00 0. -1.
         11    1    4    4    0    0 -0.34803457260E+02  0.20224232812E+02  0.14651520887E+02  0.42836518234E+02  0.00000000000E+00 0.  1.
          1    1    1    2  501    0  0.32747249168E+01  0.23939738258E+02 -0.96112527437E+02  0.99103243244E+02  0.00000000000E+00 0. -1.
<scales pt_clust_5="13000.00000" pt_clust_6="13000.00000" pt_clust_7="13000.00000" pt_clust_8="13000.00000" pt_clust_9="24.16269"></scales>
<clustering>
<clus scale="   24.163">  1  9  2 -1</clus>
<clus scale="   80.899">  5  6 -1 -1</clus>
<clus scale="   82.678">  2  5  1 -1</clus>
<clus scale="   89.728">  7  8 -1 -1</clus>
<clus scale="   24.163">  1  5  2 -1</clus>
</clustering>
</event>
<event>
 9    2  0.5615294E-005  0.1044643E+03  0.7546771E-02  0.1276780E+00
          2   -1    0    0  502    0 -0.00000000000E+00  0.00000000000E+00  0.84315041675E+03  0.84315041675E+03  0.00000000000E+00 0. -1.
         21   -1    0    0  501  502  0.00000000000E+00 -0.00000000000E+00 -0.86263826101E+02  0.86263826101E+02  0.00000000000E+00 0. -1.
         24    2    1    2    0    0  0.52758717170E+02 -0.15695025060E+02  0.73590279501E+03  0.74227227341E+03  0.79908623585E+02 0.  0.
         23    2    1    2    0    0  0.26813772110E+02 -0.21071096697E+02  0.12086290596E+02  0.99035815544E+02  0.92190264395E+02 0.  0.
        -11    1    3    3    0    0  0.40640197006E+02 -0.10848607940E+02  0.13895909415E+03  0.14518590756E+03  0.00000000000E+00 0.  1.
         12    1    3    3    0    0  0.12118520164E+02 -0.48464171201E+01  0.59694370086E+03  0.59708636585E+03  0.00000000000E+00 0. -1.
        -11    1    4    4    0    0  0.48059733893E+02 -0.72542208385E+01 -0.24577889886E+02  0.54464983366E+02  0.00000000000E+00 0. -1.
         11    1    4    4    0    0 -0.21245961783E+02 -0.13816875858E+02  0.36664180482E+02  0.44570832178E+02  0.00000000000E+00 0.  1.
          1    1    1    2  501    0 -0.79572489280E+02  0.36766121757E+02  0.88975050496E+01  0.88106153902E+02  0.00000000000E+00 0. -1.
<scales pt_clust_5="13000.00000" pt_clust_6="13000.00000" pt_clust_7="13000.00000" pt_clust_8="13000.00000" pt_clust_9="87.65574"></scales>
<clustering>
<clus scale="   79.909">  5  6 -1 -1</clus>
<clus scale="   87.656">  2  9  1 -1</clus>
<clus scale="   92.190">  7  8 -1 -1</clus>
<clus scale="   93.804">  1  5  2 -1</clus>
<clus scale="   87.656">  2  5  1 -1</clus>
</clustering>
</event>
<event>
 9    2  0.5615294E-005  0.2004176E+03  0.7546771E-02  0.1161862E+00
         21   -1    0    0  501  502  0.00000000000E+00  0.00000000000E+00  0.51231090908E+02  0.51231090908E+02  0.00000000000E+00 0.  1.
         -3   -1    0    0    0  501 -0.00000000000E+00 -0.00000000000E+00 -0.15081185033E+04  0.15081185033E+04  0.00000000000E+00 0.  1.
         23    2    1    2    0    0  0.18790589739E+02  0.11483450753E+03 -0.35857433299E+03  0.38851807380E+03  0.93971756439E+02 0.  0.
         24    2    1    2    0    0  0.16630937600E+03 -0.21359726677E+02 -0.66461142259E+03  0.69010638160E+03  0.80146293801E+02 0.  0.
        -11    1    4    4    0    0  0.81301100023E+02 -0.48914843540E+02 -0.29691560407E+03  0.31170724522E+03  0.00000000000E+00 0.  1.
         12    1    4    4    0    0  0.85008275975E+02  0.27555116863E+02 -0.36769581853E+03  0.37839913638E+03  0.00000000000E+00 0. -1.
        -11    1    3    3    0    0  0.28456156173E+02  0.91692366473E+02 -0.34851425946E+03  0.36149610225E+03  0.00000000000E+00 0.  1.
         11    1    3    3    0    0 -0.96655664337E+01  0.23142141053E+02 -0.10060073526E+02  0.27021971548E+02  0.00000000000E+00 0. -1.
         -4    1    1    2    0  502 -0.18509996574E+03 -0.93474780849E+02 -0.43370165684E+03  0.48072513884E+03  0.00000000000E+00 0.  1.
<scales pt_clust_5="13000.00000" pt_clust_6="13000.00000" pt_clust_7="13000.00000" pt_clust_8="13000.00000" pt_clust_9="183.69477"></scales>
<clustering>
<clus scale="   80.146">  5  6 -1 -1</clus>
<clus scale="   93.972">  7  8 -1 -1</clus>
<clus scale="  149.569">  2  7  1 -1</clus>
<clus scale="  183.695">  1  9  2 -1</clus>
<clus scale="  183.695">  1  5  2 -1</clus>
</clustering>
</event>
<event>
 9    2  0.5615294E-005  0.1128433E+03  0.7546771E-02  0.1259618E+00
         21   -1    0    0  501  502  0.00000000000E+00  0.00000000000E+00  0.40161733824E+02  0.40161733824E+02  0.00000000000E+00 0. -1.
          2   -1    0    0  502    0 -0.00000000000E+00 -0.00000000000E+00 -0.42091266043E+03  0.42091266043E+03  0.00000000000E+00 0. -1.
         23    2    1    2    0    0  0.31967052692E+02 -0.44833791860E+02 -0.17647885740E+03  0.20592722418E+03  0.90715341584E+02 0.  0.
         24    2    1    2    0    0 -0.53121253220E+02  0.58865984184E+02 -0.20020313120E+03  0.22943804956E+03  0.79205133703E+02 0.  0.
        -13    1    4    4    0    0 -0.23352415443E+02  0.70659856307E+02 -0.10281815431E+03  0.12692408540E+03  0.00000000000E+00 0.  1.
         14    1    4    4    0    0 -0.29768837777E+02 -0.11793872123E+02 -0.97384976891E+02  0.10251396415E+03  0.00000000000E+00 0. -1.
        -11    1    3    3    0    0 -0.27908123965E+02 -0.30836386227E+02 -0.48135455065E+02  0.63614213295E+02  0.00000000000E+00 0. -1.
         11    1    3    3    0    0  0.59875176658E+02 -0.13997405633E+02 -0.12834340233E+03  0.14231301088E+03  0.00000000000E+00 0.  1.
          1    1    1    2  501    0  0.21154200528E+02 -0.14032192324E+02 -0.40689380108E+01  0.25709120520E+02  0.00000000000E+00 0. -1.
<scales pt_clust_5="13000.00000" pt_clust_6="13000.00000" pt_clust_7="13000.00000" pt_clust_8="13000.00000" pt_clust_9="25.38509"></scales>
<clustering>
<clus scale="   25.385">  1  9  2 -1</clus>
<clus scale="   79.205">  5  6 -1 -1</clus>
<clus scale="   90.715">  7  8 -1 -1</clus>
<clus scale="  103.816">  1  5  2 -1</clus>
<clus scale="   25.385">  1  5  2 -1</clus>
</clustering>
</event>
<event>
 9    2  0.5615294E-005  0.2892596E+03  0.7546771E-02  0.1091172E+00
          4   -1    0    0  502    0 -0.00000000000E+00  0.00000000000E+00  0.64517440549E+03  0.64517440549E+03  0.00000000000E+00 0. -1.
         21   -1    0    0  501  502  0.00000000000E+00 -0.00000000000E+00 -0.19017951956E+03  0.19017951956E+03  0.00000000000E+00 0. -1.
         24    2    1    2    0    0  0.73858633022E+02  0.30815547233E+03  0.30278163837E+03  0.44553353764E+03  0.80053231209E+02 0.  0.
         23    2    1    2    0    0 -0.26501536741E+02 -0.21569200561E+03  0.43857676597E+02  0.23971003799E+03  0.91170355838E+02 0.  0.
        -11    1    3    3    0    0  0.16580056574E+02  0.51240583154E+02  0.15817992263E+02  0.56131136788E+02  0.00000000000E+00 0.  1.
         12    1    3    3    0    0  0.57278576448E+02  0.25691488918E+03  0.28696364610E+03  0.38940240085E+03  0.00000000000E+00 0. -1.
        -13    1    4    4    0    0  0.13784732893E+02 -0.23509205157E+02  0.33350498153E+02  0.43069215399E+02  0.00000000000E+00 0.  1.
         13    1    4    4    0    0 -0.40286269634E+02 -0.19218280045E+03  0.10507178444E+02  0.19664082259E+03  0.00000000000E+00 0. -1.
          3    1    1    2  501    0 -0.47357096280E+02 -0.92463466726E+02  0.10835557096E+03  0.15011034943E+03  0.00000000000E+00 0. -1.
<scales pt_clust_5="13000.00000" pt_clust_6="13000.00000" pt_clust_7="13000.00000" pt_clust_8="13000.00000" pt_clust_9="103.88550"></scales>
<clustering>
<clus scale="   80.053">  5  6 -1 -1</clus>
<clus scale="   91.170">  7  8 -1 -1</clus>
<clus scale="  103.886">  2  9  1 -1</clus>
<clus scale="  285.950">  1  5  2 -1</clus>
<clus scale="  103.886">  2  5  1 -1</clus>
</clustering>
</event>
<event>
 9    2  0.5615294E-005  0.1260271E+03  0.7546771E-02  0.1234058E+00
          2   -1    0    0  502    0 -0.00000000000E+00  0.00000000000E+00  0.86666006029E+03  0.86666006029E+03  0.00000000000E+00 0. -1.
         21   -1    0    0  501  502  0.00000000000E+00 -0.00000000000E+00 -0.43420144984E+02  0.43420144984E+02  0.00000000000E+00 0. -1.
         24    2    1    2    0    0  0.54050977245E+01 -0.11065702032E+03  0.54385280232E+03  0.56070815181E+03  0.79646529700E+02 0.  0.
         23    2    1    2    0    0  0.26200252480E+02  0.51064202510E+02  0.46434148133E+02  0.10684930003E+03  0.77244008156E+02 0.  0.
        -11    1    3    3    0    0 -0.19387050420E+02 -0.38610554018E+02  0.82721802955E+02  0.93324858905E+02  0.00000000000E+00 0.  1.
         12    1    3    3    0    0  0.24792148144E+02 -0.72046466304E+02  0.46113099936E+03  0.46738329291E+03  0.00000000000E+00 0. -1.
        -11    1    4    4    0    0  0.29020008549E+02  0.10697902540E+02  0.57156397041E+02  0.64988150748E+02  0.00000000000E+00 0.  1.
         11    1    4    4    0    0 -0.28197560686E+01  0.40366299971E+02 -0.10722248908E+02  0.41861149283E+02  0.00000000000E+00 0. -1.
          1    1    1    2  501    0 -0.31605350205E+02  0.59592817812E+02  0.23295296486E+03  0.24252275344E+03  0.00000000000E+00 0. -1.
<scales pt_clust_5="13000.00000" pt_clust_6="13000.00000" pt_clust_7="13000.00000" pt_clust_8="13000.00000" pt_clust_9="67.45522"></scales>
<clustering>
<clus scale="   67.455">  2  9  1 -1</clus>
<clus scale="   77.244">  7  8 -1 -1</clus>
<clus scale="   79.647">  5  6 -1 -1</clus>
<clus scale="  124.523">  2  7  1 -1</clus>
<clus scale="   67.455">  2  5  1 -1</clus>
</clustering>
</event>
<event>
 9    2  0.5615294E-005  0.9854220E+02  0.7546771E-02  0.1292311E+00
         21   -1    0    0  501  502  0.00000000000E+00  0.00000000000E+00  0.68744876546E+02  0.68744876546E+02  0.00000000000E+00 0.  1.
          2   -1    0    0  502    0 -0.00000000000E+00 -0.00000000000E+00 -0.15690792188E+03  0.15690792188E+03  0.00000000000E+00 0. -1.
         23    2    1    2    0    0  0.20021338379E+02 -0.45083697356E+02 -0.59389450849E+02  0.11807047296E+03  0.89331606700E+02 0.  0.
         24    2    1    2    0    0 -0.26343029645E+02  0.24337786665E+02 -0.29578528307E+02  0.85879687157E+02  0.72209059395E+02 0.  0.
        -11    1    4    4    0    0 -0.34240846058E+02 -0.15614856715E+01  0.11953436651E+02  0.36300942468E+02  0.00000000000E+00 0.  1.
         12    1    4    4    0    0  0.78978164129E+01  0.25899272337E+02 -0.41531964958E+02  0.49578744689E+02  0.00000000000E+00 0. -1.
        -13    1    3    3    0    0  0.48792998870E+00 -0.54947545920E+02 -0.73695359945E+02  0.91926475814E+02  0.00000000000E+00 0. -1.
         13    1    3    3    0    0  0.19533408391E+02  0.98638485635E+01  0.14305909095E+02  0.26143997148E+02  0.00000000000E+00 0.  1.
          1    1    1    2  501    0  0.63216912660E+01  0.20745910691E+02  0.80493382444E+00  0.21702638303E+02  0.00000000000E+00 0. -1.
<scales pt_clust_5="13000.00000" pt_clust_6="13000.00000" pt_clust_7="13000.00000" pt_clust_8="13000.00000" pt_clust_9="21.68771"></scales>
<clustering>
<clus scale="   21.688">  1  9  2 -1</clus>
<clus scale="   72.209">  5  6 -1 -1</clus>
<clus scale="   83.334">  1  5  2 -1</clus>
<clus scale="   89.332">  7  8 -1 -1</clus>
<clus scale="   21.688">  1  5  2 -1</clus>
</clustering>
</event>
<event>
 9    2  0.5615294E-005  0.9974404E+02  0.7546771E-02  0.1287460E+00
         21   -1    0    0  501  502  0.00000000000E+00  0.00000000000E+00  0.48476622747E+02  0.48476622747E+02  0.00000000000E+00 0. -1.
          2   -1    0    0  502    0 -0.00000000000E+00 -0.00000000000E+00 -0.67656558970E+03  0.67656558970E+03  0.00000000000E+00 0. -1.
         24    2    1    2    0    0 -0.17765364396E+02 -0.42809200985E+02 -0.53317319920E+03  0.54057155886E+03  0.76129587170E+02 0.  0.
         23    2    1    2    0    0 -0.18409974449E+02  0.40629657405E+02 -0.10685408820E+03  0.14631401529E+03  0.89444388782E+02 0.  0.
        -13    1    3    3    0    0  0.15907778786E+02 -0.32238644500E+02 -0.10574686113E+03  0.11169058270E+03  0.00000000000E+00 0.  1.
         14    1    3    3    0    0 -0.33673143182E+02 -0.10570556484E+02 -0.42742633807E+03  0.42888097616E+03  0.00000000000E+00 0. -1.
        -13    1    4    4    0    0 -0.42849297726E+02 -0.14326427600E+01 -0.79957868272E+02  0.90726928083E+02  0.00000000000E+00 0. -1.
         13    1    4    4    0    0  0.24439323277E+02  0.42062300165E+02 -0.26896219926E+02  0.55587087203E+02  0.00000000000E+00 0.  1.
          1    1    1    2  501    0  0.36175338846E+02  0.21795435798E+01  0.11938320450E+02  0.38156638295E+02  0.00000000000E+00 0. -1.
<scales pt_clust_5="13000.00000" pt_clust_6="13000.00000" pt_clust_7="13000.00000" pt_clust_8="13000.00000" pt_clust_9="36.24094"></scales>
<clustering>
<clus scale="   36.241">  1  9  2 -1</clus>
<clus scale="   76.130">  5  6 -1 -1</clus>
<clus scale="   88.002">  2  5  1 -1</clus>
<clus scale="   89.444">  7  8 -1 -1</clus>
<clus scale="   36.241">  1  5  2 -1</clus>
</clustering>
</event>
<event>
 9    2  0.5615294E-005  0.9839200E+02  0.7546771E-02  0.1290588E+00
          2   -1    0    0  502    0 -0.00000000000E+00  0.00000000000E+00  0.31852018192E+03  0.31852018192E+03  0.00000000000E+00 0. -1.
         21   -1    0    0  501  502  0.00000000000E+00 -0.00000000000E+00 -0.59260921910E+02  0.59260921910E+02  0.00000000000E+00 0. -1.
         23    2    1    2    0    0 -0.15599050801E+02 -0.28149259617E+02  0.23431978595E+03  0.25398948914E+03  0.92569904939E+02 0.  0.
         24    2    1    2    0    0  0.38715805386E+02  0.18285372097E+02  0.34526480337E+02  0.96891962113E+02  0.79766572311E+02 0.  0.
        -11    1    4    4    0    0  0.34492132904E+02  0.35224489234E+02  0.52373129384E+02  0.71926466308E+02  0.00000000000E+00 0.  1.
         12    1    4    4    0    0  0.42236724821E+01 -0.16939117137E+02 -0.17846649047E+02  0.24965495805E+02  0.00000000000E+00 0. -1.
        -13    1    3    3    0    0 -0.33325703544E+01 -0.53559636714E+02  0.20997087647E+03  0.21671988759E+03  0.00000000000E+00 0. -1.
         13    1    3    3    0    0 -0.12266480446E+02  0.25410377097E+02  0.24348909484E+02  0.37269601552E+02  0.00000000000E+00 0.  1.
          1    1    1    2  501    0 -0.23116754585E+02  0.98638875205E+01 -0.95870062795E+01  0.26899652581E+02  0.00000000000E+00 0. -1.
<scales pt_clust_5="13000.00000" pt_clust_6="13000.00000" pt_clust_7="13000.00000" pt_clust_8="13000.00000" pt_clust_9="25.13326"></scales>
<clustering>
<clus scale="   25.133">  2  9  1 -1</clus>
<clus scale="   79.767">  5  6 -1 -1</clus>
<clus scale="   86.455">  2  5  1 -1</clus>
<clus scale="   92.570">  7  8 -1 -1</clus>
<clus scale="   25.133">  2  5  1 -1</clus>
</clustering>
</event>
<event>
 9    2  0.5615294E-005  0.1037387E+03  0.7546771E-02  0.1276261E+00
          2   -1    0    0  502    0 -0.00000000000E+00  0.00000000000E+00  0.17481388083E+04  0.17481388083E+04  0.00000000000E+00 0. -1.
         21   -1    0    0  501  502  0.00000000000E+00 -0.00000000000E+00 -0.14573409455E+02  0.14573409455E+02  0.00000000000E+00 0. -1.
         24    2    1    2    0    0  0.45839323585E+02 -0.25194015902E+02  0.13533489104E+04  0.13567799704E+04  0.81010078514E+02 0.  0.
         23    2    1    2    0    0 -0.32996998317E+02  0.54291631468E+02  0.27515392289E+03  0.29616094312E+03  0.89248192143E+02 0.  0.
        -11    1    3    3    0    0  0.26455664076E+01 -0.29579622188E+02  0.16586611019E+03  0.16850376726E+03  0.00000000000E+00 0.  1.
         12    1    3    3    0    0  0.43193757178E+02  0.43856062858E+01  0.11874828002E+04  0.11882762031E+04  0.00000000000E+00 0. -1.
        -11    1    4    4    0    0  0.17495368109E+02  0.53337395985E+02  0.17836082927E+03  0.18698543027E+03  0.00000000000E+00 0. -1.
         11    1    4    4    0    0 -0.50492366426E+02  0.95423548337E+00  0.96793093620E+02  0.10917551285E+03  0.00000000000E+00 0.  1.
          1    1    1    2  501    0 -0.12842325268E+02 -0.29097615566E+02  0.10506256560E+03  0.10977130427E+03  0.00000000000E+00 0. -1.
<scales pt_clust_5="13000.00000" pt_clust_6="13000.00000" pt_clust_7="13000.00000" pt_clust_8="13000.00000" pt_clust_9="31.80561"></scales>
<clustering>
<clus scale="   31.806">  2  9  1 -1</clus>
<clus scale="   81.010">  5  6 -1 -1</clus>
<clus scale="   89.248">  7  8 -1 -1</clus>
<clus scale="   96.742">  1  5  2 -1</clus>
<clus scale="   31.806">  2  5  1 -1</clus>
</clustering>
</event>
<event>
 9    2  0.5615294E-005  0.9378370E+02  0.7546771E-02  0.1300391E+00
         21   -1    0    0  501  502  0.00000000000E+00  0.00000000000E+00  0.60910060070E+03  0.60910060070E+03  0.00000000000E+00 0.  1.
          2   -1    0    0  502    0 -0.00000000000E+00 -0.00000000000E+00 -0.13975803932E+03  0.13975803932E+03  0.00000000000E+00 0. -1.
         24    2    1    2    0    0  0.20711156723E+01 -0.25132601161E+02 -0.12122774683E+03  0.14713368538E+03  0.79474635015E+02 0.  0.
         23    2    1    2    0    0  0.18624036823E+01  0.36159809353E+01  0.52048793522E+03  0.52830849515E+03  0.90474479677E+02 0.  0.
        -13    1    3    3    0    0 -0.28745597573E+02 -0.29613936031E+01 -0.11635535682E+02  0.31152285992E+02  0.00000000000E+00 0.  1.
         14    1    3    3    0    0  0.30816713245E+02 -0.22171207558E+02 -0.10959221115E+03  0.11598139939E+03  0.00000000000E+00 0. -1.
        -11    1    4    4    0    0 -0.38672083169E+02  0.23662785600E+02  0.26407352103E+03  0.26793708580E+03  0.00000000000E+00 0.  1.
         11    1    4    4    0    0  0.40534486851E+02 -0.20046804664E+02  0.25641441418E+03  0.26037140934E+03  0.00000000000E+00 0. -1.
          1    1    1    2  501    0 -0.39335193546E+01  0.21516620225E+02  0.70082372996E+02  0.73416459498E+02  0.00000000000E+00 0. -1.
<scales pt_clust_5="13000.00000" pt_clust_6="13000.00000" pt_clust_7="13000.00000" pt_clust_8="13000.00000" pt_clust_9="21.87321"></scales>
<clustering>
<clus scale="   21.873">  1  9  2 -1</clus>
<clus scale="   79.475">  5  6 -1 -1</clus>
<clus scale="   83.222">  2  5  1 -1</clus>
<clus scale="   90.474">  7  8 -1 -1</clus>
<clus scale="   21.873">  1  5  2 -1</clus>
</clustering>
</event>
<event>
 9    2  0.5615294E-005  0.9286826E+02  0.7546771E-02  0.1299488E+00
         21   -1    0    0  501  502  0.00000000000E+00  0.00000000000E+00  0.12270657524E+03  0.12270657524E+03  0.00000000000E+00 0. -1.
          2   -1    0    0  502    0 -0.00000000000E+00 -0.00000000000E+00 -0.35667505303E+03  0.35667505303E+03  0.00000000000E+00 0. -1.
         23    2    1    2    0    0 -0.35311232054E+02 -0.29899012733E+02 -0.21738187097E+03  0.23886765913E+03  0.87533117603E+02 0.  0.
         24    2    1    2    0    0  0.15696628365E+02 -0.23518837859E+01 -0.11114583025E+03  0.13869894205E+03  0.81437616893E+02 0.  0.
        -13    1    4    4    0    0  0.39021921701E+02  0.20647347560E+02 -0.36863898585E+02  0.57514957649E+02  0.00000000000E+00 0.  1.
         14    1    4    4    0    0 -0.23325293336E+02 -0.22999231346E+02 -0.74281931663E+02  0.81183984402E+02  0.00000000000E+00 0. -1.
        -13    1    3    3    0    0  0.20210353950E+02 -0.15813904661E+02 -0.14142103367E+03  0.14373046563E+03  0.00000000000E+00 0. -1.
         13    1    3    3    0    0 -0.55521586004E+02 -0.14085108072E+02 -0.75960837307E+02  0.95137193495E+02  0.00000000000E+00 0.  1.
          1    1    1    2  501    0  0.19614603689E+02  0.32250896519E+02  0.94559223431E+02  0.10181502708E+03  0.00000000000E+00 0. -1.
<scales pt_clust_5="13000.00000" pt_clust_6="13000.00000" pt_clust_7="13000.00000" pt_clust_8="13000.00000" pt_clust_9="37.74723"></scales>
<clustering>
<clus scale="   37.747">  1  9  2 -1</clus>
<clus scale="   81.438">  5  6 -1 -1</clus>
<clus scale="   87.147">  1  5  2 -1</clus>
<clus scale="   87.533">  7  8 -1 -1</clus>
<clus scale="   37.747">  1  5  2 -1</clus>
</clustering>
</event>
<event>
 9    2  0.5615294E-005  0.9805167E+02  0.7546771E-02  0.1290373E+00
         21   -1    0    0  501  502  0.00000000000E+00  0.00000000000E+00  0.63379505699E+02  0.63379505699E+02  0.00000000000E+00 0.  1.
         -3   -1    0    0    0  501 -0.00000000000E+00 -0.00000000000E+00 -0.35238506555E+03  0.35238506555E+03  0.00000000000E+00 0.  1.
         23    2    1    2    0    0 -0.35332204489E+01  0.21904639074E+02 -0.11713050110E+03  0.14835562148E+03  0.88303676454E+02 0.  0.
         24    2    1    2    0    0  0.82790529869E+02 -0.45194112180E+02 -0.91353139931E+02  0.15204907779E+03  0.76659939147E+02 0.  0.
        -11    1    4    4    0    0  0.80037713459E+02 -0.38759668249E+01 -0.59564790078E+02  0.99844994424E+02  0.00000000000E+00 0.  1.
         12    1    4    4    0    0  0.27528164106E+01 -0.41318145355E+02 -0.31788349854E+02  0.52204083367E+02  0.00000000000E+00 0. -1.
        -13    1    3    3    0    0  0.16957689658E+02 -0.29957388466E+02 -0.54864158035E+02  0.64769469653E+02  0.00000000000E+00 0.  1.
         13    1    3    3    0    0 -0.20490910107E+02  0.51862027540E+02 -0.62266343067E+02  0.83586151822E+02  0.00000000000E+00 0. -1.
         -4    1    1    2    0  502 -0.79257309420E+02  0.23289473106E+02 -0.80521918822E+02  0.11535987199E+03  0.00000000000E+00 0.  1.
<scales pt_clust_5="13000.00000" pt_clust_6="13000.00000" pt_clust_7="13000.00000" pt_clust_8="13000.00000" pt_clust_9="82.60828"></scales>
<clustering>
<clus scale="   76.660">  5  6 -1 -1</clus>
<clus scale="   82.608">  1  9  2 -1</clus>
<clus scale="   87.712">  1  5  2 -1</clus>
<clus scale="   88.304">  7  8 -1 -1</clus>
<clus scale="   82.608">  1  5  2 -1</clus>
</clustering>
</event>
<event>
 9    2  0.5615294E-005  0.1015233E+03  0.7546771E-02  0.1280534E+00
         21   -1    0    0  501  502  0.00000000000E+00  0.00000000000E+00  0.41596232011E+02  0.41596232011E+02  0.00000000000E+00 0.  1.
          2   -1    0    0  502    0 -0.00000000000E+00 -0.00000000000E+00 -0.43001051560E+03  0.43001051560E+03  0.00000000000E+00 0. -1.
         24    2    1    2    0    0 -0.34797657743E+02  0.40094171817E+02 -0.17563828864E+03  0.20034209440E+03  0.80434611658E+02 0.  0.
         23    2    1    2    0    0  0.47657710272E+02 -0.16478454912E+02 -0.63505170310E+02  0.11959111523E+03  0.87899552681E+02 0.  0.
        -13    1    3    3    0    0 -0.51518384752E+02  0.31146340468E+02 -0.17031953621E+03  0.18064601547E+03  0.00000000000E+00 0.  1.
         14    1    3    3    0    0  0.16720727009E+02  0.89478313487E+01 -0.53187524340E+01  0.19696078925E+02  0.00000000000E+00 0. -1.
        -11    1    4    4    0    0 -0.74563997323E+01  0.24064582358E+02 -0.39949117030E+02  0.47229587893E+02  0.00000000000E+00 0.  1.
         11    1    4    4    0    0  0.55114110004E+02 -0.40543037270E+02 -0.23556053280E+02  0.72361527339E+02  0.00000000000E+00 0. -1.
          1    1    1    2  501    0 -0.12860052529E+02 -0.23615716905E+02 -0.14927082463E+03  0.15167353798E+03  0.00000000000E+00 0. -1.
<scales pt_clust_5="13000.00000" pt_clust_6="13000.00000" pt_clust_7="13000.00000" pt_clust_8="13000.00000" pt_clust_9="26.89022"></scales>
<clustering>
<clus scale="   26.890">  1  9  2 -1</clus>
<clus scale="   80.435">  5  6 -1 -1</clus>
<clus scale="   87.900">  7  8 -1 -1</clus>
<clus scale="   95.133">  2  5  1 -1</clus>
<clus scale="   26.890">  1  5  2 -1</clus>
</clustering>
</event>
<event>
 9    2  0.5615294E-005  0.1454947E+03  0.7546771E-02  0.1221220E+00
          2   -1    0    0  502    0 -0.00000000000E+00  0.00000000000E+00  0.50072522961E+03  0.50072522961E+03  0.00000000000E+00 0. -1.
         21   -1    0    0  501  502  0.00000000000E+00 -0.00000000000E+00 -0.11821161392E+03  0.11821161392E+03  0.00000000000E+00 0. -1.
         24    2    1    2    0    0  0.64354777443E+02 -0.24102902641E+02  0.31520412553E+03  0.33242470326E+03  0.80187625523E+02 0.  0.
         23    2    1    2    0    0  0.50878901253E+02 -0.42929214459E+02  0.97954488671E+02  0.14972317375E+03  0.91598945733E+02 0.  0.
        -11    1    3    3    0    0  0.25931933502E+02 -0.23300128101E+02  0.34309426823E+02  0.48913167078E+02  0.00000000000E+00 0.  1.
         12    1    3    3    0    0  0.38422843941E+02 -0.80277454066E+00  0.28089469871E+03  0.28351153618E+03  0.00000000000E+00 0. -1.
        -11    1    4    4    0    0  0.27342621966E+02 -0.15090894051E+02  0.10757824610E+03  0.11201978885E+03  0.00000000000E+00 0.  1.
         11    1    4    4    0    0  0.23536279288E+02 -0.27838320408E+02 -0.96237574300E+01  0.37703384900E+02  0.00000000000E+00 0. -1.
          1    1    1    2  501    0 -0.11523367870E+03  0.67032117101E+02 -0.30644998514E+02  0.13678896652E+03  0.00000000000E+00 0. -1.
<scales pt_clust_5="13000.00000" pt_clust_6="13000.00000" pt_clust_7="13000.00000" pt_clust_8="13000.00000" pt_clust_9="113.04129"></scales>
<clustering>
<clus scale="   80.188">  5  6 -1 -1</clus>
<clus scale="   91.599">  7  8 -1 -1</clus>
<clus scale="  105.606">  1  5  2 -1</clus>
<clus scale="  113.041">  2  9  1 -1</clus>
<clus scale="  113.041">  2  5  1 -1</clus>
</clustering>
</event>
<event>
 9    2  0.5615294E-005  0.8168129E+02  0.7546771E-02  0.1330876E+00
          4   -1    0    0  502    0 -0.00000000000E+00  0.00000000000E+00  0.41505195042E+03  0.41505195042E+03  0.00000000000E+00 0. -1.
         21   -1    0    0  501  502  0.00000000000E+00 -0.00000000000E+00 -0.27792923191E+02  0.27792923191E+02  0.00000000000E+00 0. -1.
         23    2    1    2    0    0 -0.17675487833E+02  0.20743190273E+02  0.17608483797E+03  0.19156324477E+03  0.70341337560E+02 0.  0.
         24    2    1    2    0    0 -0.30938487445E+02 -0.15425252894E+02  0.14594945730E+03  0.16975945573E+03  0.79510378509E+02 0.  0.
        -13    1    4    4    0    0  0.18521866567E+02  0.17094745703E+02  0.63001948384E+02  0.67856726800E+02  0.00000000000E+00 0.  1.
         14    1    4    4    0    0 -0.49460354011E+02 -0.32519998597E+02  0.82947508915E+02  0.10190272893E+03  0.00000000000E+00 0. -1.
        -11    1    3    3    0    0 -0.66075665117E+01 -0.24090030840E+02  0.34190852051E+02  0.42343876594E+02  0.00000000000E+00 0.  1.
         11    1    3    3    0    0 -0.11067921321E+02  0.44833221113E+02  0.14189398592E+03  0.14921936817E+03  0.00000000000E+00 0. -1.
          3    1    1    2  501    0  0.48613975277E+02 -0.53179373794E+01  0.65224731953E+02  0.81522173110E+02  0.00000000000E+00 0. -1.
<scales pt_clust_5="13000.00000" pt_clust_6="13000.00000" pt_clust_7="13000.00000" pt_clust_8="13000.00000" pt_clust_9="48.90398"></scales>
<clustering>
<clus scale="   48.904">  2  9  1 -1</clus>
<clus scale="   70.341">  7  8 -1 -1</clus>
<clus scale="   72.786">  1  7  2 -1</clus>
<clus scale="   79.510">  5  6 -1 -1</clus>
<clus scale="   48.904">  2  5  1 -1</clus>
</clustering>
</event>
<event>
 9    2  0.5615294E-005  0.1048799E+03  0.7546771E-02  0.1274447E+00
          2   -1    0    0  502    0 -0.00000000000E+00  0.00000000000E+00  0.12899494263E+04  0.12899494263E+04  0.00000000000E+00 0. -1.
         21   -1    0    0  501  502  0.00000000000E+00 -0.00000000000E+00 -0.14043312547E+02  0.14043312547E+02  0.00000000000E+00 0. -1.
         24    2    1    2    0    0  0.67716367114E+02  0.70495688022E+01  0.74685106357E+03  0.75455463775E+03  0.83252551967E+02 0.  0.
         23    2    1    2    0    0 -0.18014060236E+02  0.12012284148E+02  0.32706458179E+03  0.34055099553E+03  0.92384731207E+02 0.  0.
        -13    1    3    3    0    0  0.79784091458E+02 -0.97806272038E+01  0.46107622778E+03  0.46803039404E+03  0.00000000000E+00 0.  1.
         14    1    3    3    0    0 -0.12067724345E+02  0.16830196006E+02  0.28577483579E+03  0.28652424371E+03  0.00000000000E+00 0. -1.
        -11    1    4    4    0    0 -0.27229348649E+02  0.49088749826E+02  0.21220760600E+03  0.21950674439E+03  0.00000000000E+00 0. -1.
         11    1    4    4    0    0  0.92152884128E+01 -0.37076465678E+02  0.11485697579E+03  0.12104425115E+03  0.00000000000E+00 0.  1.
          1    1    1    2  501    0 -0.49702306878E+02 -0.19061852950E+02  0.20199046843E+03  0.20888710559E+03  0.00000000000E+00 0. -1.
<scales pt_clust_5="13000.00000" pt_clust_6="13000.00000" pt_clust_7="13000.00000" pt_clust_8="13000.00000" pt_clust_9="53.23226"></scales>
<clustering>
<clus scale="   53.232">  2  9  1 -1</clus>
<clus scale="   83.253">  5  6 -1 -1</clus>
<clus scale="   92.385">  7  8 -1 -1</clus>
<clus scale="   96.932">  1  5  2 -1</clus>
<clus scale="   53.232">  2  5  1 -1</clus>
</clustering>
</event>
<event>
 9    2  0.5615294E-005  0.1267909E+03  0.7546771E-02  0.1236701E+00
          2   -1    0    0  502    0 -0.00000000000E+00  0.00000000000E+00  0.10895837814E+04  0.10895837814E+04  0.00000000000E+00 0. -1.
         21   -1    0    0  501  502  0.00000000000E+00 -0.00000000000E+00 -0.45579589816E+02  0.45579589816E+02  0.00000000000E+00 0. -1.
         24    2    1    2    0    0  0.80656132040E+02  0.10313127035E+01  0.93886705515E+03  0.94814591309E+03  0.10489447087E+03 0.  0.
         23    2    1    2    0    0 -0.19737630945E+02  0.33353922475E+01  0.61023860643E+02  0.11167747545E+03  0.91363275109E+02 0.  0.
        -11    1    3    3    0    0  0.12615904112E+02  0.16232810189E+02  0.28651935970E+02  0.35264693364E+02  0.00000000000E+00 0.  1.
         12    1    3    3    0    0  0.68040227928E+02 -0.15201497486E+02  0.91021511918E+03  0.91288121973E+03  0.00000000000E+00 0. -1.
        -13    1    4    4    0    0 -0.42988251708E+02  0.27211808757E+02  0.11791119668E+02  0.52225499747E+02  0.00000000000E+00 0.  1.
         13    1    4    4    0    0  0.23250620764E+02 -0.23876416510E+02  0.49232740975E+02  0.59451975704E+02  0.00000000000E+00 0. -1.
          1    1    1    2  501    0 -0.60918501095E+02 -0.43667049510E+01  0.44113275775E+02  0.75339982662E+02  0.00000000000E+00 0. -1.
<scales pt_clust_5="13000.00000" pt_clust_6="13000.00000" pt_clust_7="13000.00000" pt_clust_8="13000.00000" pt_clust_9="61.07481"></scales>
<clustering>
<clus scale="   61.075">  2  9  1 -1</clus>
<clus scale="   91.363">  7  8 -1 -1</clus>
<clus scale="  104.894">  5  6 -1 -1</clus>
<clus scale="  115.846">  2  7  1 -1</clus>
<clus scale="   61.075">  2  5  1 -1</clus>
</clustering>
</event>
<event>
 9    2  0.5615294E-005  0.1260846E+03  0.7546771E-02  0.1239016E+00
         21   -1    0    0  501  502  0.00000000000E+00  0.00000000000E+00  0.74123668235E+02  0.74123668235E+02  0.00000000000E+00 0. -1.
          2   -1    0    0  502    0 -0.00000000000E+00 -0.00000000000E+00 -0.38674450117E+03  0.38674450117E+03  0.00000000000E+00 0. -1.
         23    2    1    2    0    0 -0.56327014417E+02  0.48710315043E+02 -0.17570632952E+03  0.21491713047E+03  0.98849539150E+02 0.  0.
         24    2    1    2    0    0  0.82905700676E+02 -0.37692148750E+02 -0.17226534668E+02  0.12285336871E+03  0.80635869350E+02 0.  0.
        -13    1    4    4    0    0  0.78951150548E+02  0.45047370379E+01 -0.14377561156E+02  0.80375936035E+02  0.00000000000E+00 0.  1.
         14    1    4    4    0    0  0.39545501274E+01 -0.42196885788E+02 -0.28489735125E+01  0.42477432679E+02  0.00000000000E+00 0. -1.
        -11    1    3    3    0    0 -0.66236978301E+02 -0.22142769469E+01 -0.12936835723E+03  0.14535615629E+03  0.00000000000E+00 0. -1.
         11    1    3    3    0    0  0.99099638836E+01  0.50924591990E+02 -0.46337972286E+02  0.69560974181E+02  0.00000000000E+00 0.  1.
          1    1    1    2  501    0 -0.26578686258E+02 -0.11018166292E+02 -0.11968796875E+03  0.12309767022E+03  0.00000000000E+00 0. -1.
<scales pt_clust_5="13000.00000" pt_clust_6="13000.00000" pt_clust_7="13000.00000" pt_clust_8="13000.00000" pt_clust_9="28.77199"></scales>
<clustering>
<clus scale="   28.772">  1  9  2 -1</clus>
<clus scale="   80.636">  5  6 -1 -1</clus>
<clus scale="   98.850">  7  8 -1 -1</clus>
<clus scale="  112.375">  1  5  2 -1</clus>
<clus scale="   28.772">  1  5  2 -1</clus>
</clustering>
</event>
<event>
 9    2  0.5615294E-005  0.1378081E+03  0.7546771E-02  0.1218929E+00
          2   -1    0    0  502    0 -0.00000000000E+00  0.00000000000E+00  0.61101392334E+03  0.61101392334E+03  0.00000000000E+00 0. -1.
         21   -1    0    0  501  502  0.00000000000E+00 -0.00000000000E+00 -0.68059298006E+02  0.68059298006E+02  0.00000000000E+00 0. -1.
         24    2    1    2    0    0 -0.49902537244E+02  0.58050620560E+02  0.20087743049E+03  0.22919780911E+03  0.79496892071E+02 0.  0.
         23    2    1    2    0    0  0.14406380916E+03 -0.76269402886E+02  0.27661878757E+03  0.33375878018E+03  0.91134882364E+02 0.  0.
        -13    1    3    3    0    0  0.12625605378E+02  0.24627550208E+02  0.11271561179E+03  0.11606347954E+03  0.00000000000E+00 0.  1.
         14    1    3    3    0    0 -0.62528142622E+02  0.33423070352E+02  0.88161818696E+02  0.11313432957E+03  0.00000000000E+00 0. -1.
        -11    1    4    4    0    0  0.11352162296E+03 -0.11236322170E+02  0.18474876268E+03  0.21713018935E+03  0.00000000000E+00 0. -1.
         11    1    4    4    0    0  0.30542186195E+02 -0.65033080716E+02  0.91870024896E+02  0.11662859083E+03  0.00000000000E+00 0.  1.
          1    1    1    2  501    0 -0.94161271913E+02  0.18218782326E+02  0.65458407268E+02  0.11611663206E+03  0.00000000000E+00 0. -1.
<scales pt_clust_5="13000.00000" pt_clust_6="13000.00000" pt_clust_7="13000.00000" pt_clust_8="13000.00000" pt_clust_9="95.90761"></scales>
<clustering>
<clus scale="   79.497">  5  6 -1 -1</clus>
<clus scale="   91.135">  7  8 -1 -1</clus>
<clus scale="   95.908">  2  9  1 -1</clus>
<clus scale="  130.404">  1  5  2 -1</clus>
<clus scale="   95.908">  2  5  1 -1</clus>
</clustering>
</event>
<event>
 9    2  0.5615294E-005  0.1061596E+03  0.7546771E-02  0.1275912E+00
         21   -1    0    0  501  502  0.00000000000E+00  0.00000000000E+00  0.14162515407E+03  0.14162515407E+03  0.00000000000E+00 0. -1.
          2   -1    0    0  502    0 -0.00000000000E+00 -0.00000000000E+00 -0.13434735075E+03  0.13434735075E+03  0.00000000000E+00 0. -1.
         23    2    1    2    0    0  0.58095790362E+01 -0.49201328398E+02 -0.17019143413E+02  0.10855635558E+03  0.95080540434E+02 0.  0.
         24    2    1    2    0    0 -0.55392726104E+02  0.22078741737E+02 -0.14346887482E+02  0.98951055194E+02  0.77650841602E+02 0.  0.
        -13    1    4    4    0    0 -0.32069429233E+02 -0.16056497745E+02  0.21355880541E+02  0.41741263096E+02  0.00000000000E+00 0.  1.
         14    1    4    4    0    0 -0.23323296871E+02  0.38135239482E+02 -0.35702768023E+02  0.57209792097E+02  0.00000000000E+00 0. -1.
        -11    1    3    3    0    0  0.38092021463E+02 -0.31823097458E+02  0.22632804752E+02  0.54552318758E+02  0.00000000000E+00 0.  1.
         11    1    3    3    0    0 -0.32282442427E+02 -0.17378230940E+02 -0.39651948165E+02  0.54004036821E+02  0.00000000000E+00 0. -1.
          1    1    1    2  501    0  0.49583147068E+02  0.27122586661E+02  0.38643834217E+02  0.68465094050E+02  0.00000000000E+00 0. -1.
<scales pt_clust_5="13000.00000" pt_clust_6="13000.00000" pt_clust_7="13000.00000" pt_clust_8="13000.00000" pt_clust_9="56.51657"></scales>
<clustering>
<clus scale="   56.517">  1  9  2 -1</clus>
<clus scale="   77.651">  5  6 -1 -1</clus>
<clus scale="   90.880">  1  5  2 -1</clus>
<clus scale="   95.081">  7  8 -1 -1</clus>
<clus scale="   56.517">  1  5  2 -1</clus>
</clustering>
</event>
<event>
 9    2  0.5615294E-005  0.2048421E+03  0.7546771E-02  0.1184407E+00
          2   -1    0    0  502    0 -0.00000000000E+00  0.00000000000E+00  0.54027612773E+03  0.54027612773E+03  0.00000000000E+00 0. -1.
         21   -1    0    0  501  502  0.00000000000E+00 -0.00000000000E+00 -0.10869963188E+03  0.10869963188E+03  0.00000000000E+00 0. -1.
         24    2    1    2    0    0  0.13826853036E+02  0.23375382915E+02  0.82355310952E+02  0.11754645993E+03  0.79354789447E+02 0.  0.
         23    2    1    2    0    0  0.17441778607E+03  0.24952639626E+02  0.12441148790E+03  0.23425756183E+03  0.91401250705E+02 0.  0.
        -13    1    3    3    0    0  0.15192641329E+01 -0.23227517590E+02  0.13886863272E+01  0.23318537403E+02  0.00000000000E+00 0.  1.
         14    1    3    3    0    0  0.12307588903E+02  0.46602900505E+02  0.80966624625E+02  0.94227922525E+02  0.00000000000E+00 0. -1.
        -13    1    4    4    0    0  0.14108276276E+03 -0.91080527478E+01  0.58689819898E+02  0.15307448361E+03  0.00000000000E+00 0. -1.
         13    1    4    4    0    0  0.33335023311E+02  0.34060692374E+02  0.65721668001E+02  0.81183078218E+02  0.00000000000E+00 0.  1.
          1    1    1    2  501    0 -0.18824463911E+03 -0.48328022541E+02  0.22480969700E+03  0.29717173786E+03  0.00000000000E+00 0. -1.
<scales pt_clust_5="13000.00000" pt_clust_6="13000.00000" pt_clust_7="13000.00000" pt_clust_8="13000.00000" pt_clust_9="183.31970"></scales>
<clustering>
<clus scale="   79.355">  5  6 -1 -1</clus>
<clus scale="   83.874">  1  5  2 -1</clus>
<clus scale="   91.401">  7  8 -1 -1</clus>
<clus scale="  183.320">  2  9  1 -1</clus>
<clus scale="  183.320">  2  5  1 -1</clus>
</clustering>
</event>
<event>
 9    2  0.5615294E-005  0.2430023E+03  0.7546771E-02  0.1117843E+00
         21   -1    0    0  501  502  0.00000000000E+00  0.00000000000E+00  0.13486022204E+03  0.13486022204E+03  0.00000000000E+00 0. -1.
          2   -1    0    0  502    0 -0.00000000000E+00 -0.00000000000E+00 -0.73443585710E+03  0.73443585710E+03  0.00000000000E+00 0. -1.
         24    2    1    2    0    0 -0.37714503089E+02 -0.18614204945E+03 -0.22407894920E+03  0.30727086405E+03  0.90181827992E+02 0.  0.
         23    2    1    2    0    0  0.13495502930E+03  0.24883047279E+03 -0.30920984938E+03  0.42868541215E+03  0.89615777120E+02 0.  0.
        -13    1    3    3    0    0 -0.11579395891E+02 -0.37431637033E+02 -0.11363260845E+03  0.12019808469E+03  0.00000000000E+00 0.  1.
         14    1    3    3    0    0 -0.26135107198E+02 -0.14871041242E+03 -0.11044634074E+03  0.18707277935E+03  0.00000000000E+00 0. -1.
        -11    1    4    4    0    0  0.12453642371E+03  0.20790198776E+03 -0.29964430036E+03  0.38538197166E+03  0.00000000000E+00 0. -1.
         11    1    4    4    0    0  0.10418605588E+02  0.40928485035E+02 -0.95655490224E+01  0.43303440484E+02  0.00000000000E+00 0.  1.
          1    1    1    2  501    0 -0.97240526207E+02 -0.62688423341E+02 -0.66286836488E+02  0.13333980295E+03  0.00000000000E+00 0. -1.
<scales pt_clust_5="13000.00000" pt_clust_6="13000.00000" pt_clust_7="13000.00000" pt_clust_8="13000.00000" pt_clust_9="115.69597"></scales>
<clustering>
<clus scale="   89.616">  7  8 -1 -1</clus>
<clus scale="   90.182">  5  6 -1 -1</clus>
<clus scale="  115.696">  1  9  2 -1</clus>
<clus scale="  242.793">  1  7  2 -1</clus>
<clus scale="  115.696">  1  5  2 -1</clus>
</clustering>
</event>
<event>
 9    2  0.5615294E-005  0.1013014E+03  0.7546771E-02  0.1281958E+00
          2   -1    0    0  502    0 -0.00000000000E+00  0.00000000000E+00  0.24587073695E+03  0.24587073695E+03  0.00000000000E+00 0. -1.
         21   -1    0    0  501  502  0.00000000000E+00 -0.00000000000E+00 -0.17166878749E+03  0.17166878749E+03  0.00000000000E+00 0. -1.
         24    2    1    2    0    0  0.17034021168E+02 -0.47873152469E+02  0.20258708650E+03  0.22387866744E+03  0.80611001184E+02 0.  0.
         23    2    1    2    0    0  0.62299961733E+01  0.22060269932E+02 -0.44478105540E+02  0.10284285581E+03  0.89849222345E+02 0.  0.
        -11    1    3    3    0    0  0.24245202817E+02  0.88592747760E+01  0.20323663621E+02  0.32853735132E+02  0.00000000000E+00 0.  1.
         12    1    3    3    0    0 -0.72111816494E+01 -0.56732427245E+02  0.18226342288E+03  0.19102493230E+03  0.00000000000E+00 0. -1.
        -13    1    4    4    0    0  0.76002193951E+01  0.44889829427E+02  0.74195295681E+01  0.46129269882E+02  0.00000000000E+00 0. -1.
         13    1    4    4    0    0 -0.13702232217E+01 -0.22829559495E+02 -0.51897635108E+02  0.56713585923E+02  0.00000000000E+00 0.  1.
          1    1    1    2  501    0 -0.23264017341E+02  0.25812882536E+02 -0.83907031499E+02  0.90818001204E+02  0.00000000000E+00 0. -1.
<scales pt_clust_5="13000.00000" pt_clust_6="13000.00000" pt_clust_7="13000.00000" pt_clust_8="13000.00000" pt_clust_9="34.74938"></scales>
<clustering>
<clus scale="   34.749">  2  9  1 -1</clus>
<clus scale="   80.611">  5  6 -1 -1</clus>
<clus scale="   89.849">  7  8 -1 -1</clus>
<clus scale="   93.205">  1  5  2 -1</clus>
<clus scale="   34.749">  2  5  1 -1</clus>
</clustering>
</event>
<event>
 9    2  0.5615294E-005  0.1015699E+03  0.7546771E-02  0.1283260E+00
         21   -1    0    0  501  502  0.00000000000E+00  0.00000000000E+00  0.27551603423E+03  0.27551603423E+03  0.00000000000E+00 0.  1.
          2   -1    0    0  502    0 -0.00000000000E+00 -0.00000000000E+00 -0.50341993013E+02  0.50341993013E+02  0.00000000000E+00 0. -1.
         24    2    1    2    0    0  0.48293231015E+02 -0.57241881083E+01  0.38010714301E+02  0.99824425650E+02  0.78454439411E+02 0.  0.
         23    2    1    2    0    0 -0.30521388927E+02  0.19882456934E+02  0.17382146398E+03  0.19968402372E+03  0.91284942430E+02 0.  0.
        -11    1    3    3    0    0  0.62907273624E+02  0.14598665829E+02  0.16094857664E+02  0.66554418050E+02  0.00000000000E+00 0.  1.
         12    1    3    3    0    0 -0.14614042609E+02 -0.20322853937E+02  0.21915856637E+02  0.33270007599E+02  0.00000000000E+00 0. -1.
        -13    1    4    4    0    0 -0.31784852223E+02 -0.26579075132E+02  0.38336173562E+02  0.56448084724E+02  0.00000000000E+00 0. -1.
         13    1    4    4    0    0  0.12634632954E+01  0.46461532066E+02  0.13548529041E+03  0.14323593900E+03  0.00000000000E+00 0.  1.
          1    1    1    2  501    0 -0.17771842087E+02 -0.14158268825E+02  0.13341862938E+02  0.26349577871E+02  0.00000000000E+00 0. -1.
<scales pt_clust_5="13000.00000" pt_clust_6="13000.00000" pt_clust_7="13000.00000" pt_clust_8="13000.00000" pt_clust_9="22.72214"></scales>
<clustering>
<clus scale="   22.722">  1  9  2 -1</clus>
<clus scale="   78.454">  5  6 -1 -1</clus>
<clus scale="   90.214">  2  5  1 -1</clus>
<clus scale="   91.285">  7  8 -1 -1</clus>
<clus scale="   22.722">  1  5  2 -1</clus>
</clustering>
</event>
<event>
 9    2  0.5615294E-005  0.1203105E+03  0.7546771E-02  0.1246528E+00
          2   -1    0    0  502    0 -0.00000000000E+00  0.00000000000E+00  0.81069484013E+03  0.81069484013E+03  0.00000000000E+00 0. -1.
         21   -1    0    0  501  502  0.00000000000E+00 -0.00000000000E+00 -0.25509781852E+02  0.25509781852E+02  0.00000000000E+00 0. -1.
         23    2    1    2    0    0  0.67388531555E+02  0.16569830875E+02  0.45407309474E+03  0.46880852350E+03  0.93719170197E+02 0.  0.
         24    2    1    2    0    0 -0.89666275276E+02 -0.85857111326E+01  0.19896241595E+03  0.23314429417E+03  0.81587153306E+02 0.  0.
        -11    1    4    4    0    0 -0.16366348410E+02  0.26433679371E+02  0.10208645729E+03  0.10671570422E+03  0.00000000000E+00 0.  1.
         12    1    4    4    0    0 -0.73299926866E+02 -0.35019390503E+02  0.96875958668E+02  0.12642858995E+03  0.00000000000E+00 0. -1.
        -11    1    3    3    0    0 -0.19952975021E+02  0.13205088682E+02  0.50539537981E+02  0.55917264585E+02  0.00000000000E+00 0.  1.
         11    1    3    3    0    0  0.87341506576E+02  0.33647421928E+01  0.40353355676E+03  0.41289125892E+03  0.00000000000E+00 0. -1.
          1    1    1    2  501    0  0.22277743721E+02 -0.79841197426E+01  0.13214954759E+03  0.13425180431E+03  0.00000000000E+00 0. -1.
<scales pt_clust_5="13000.00000" pt_clust_6="13000.00000" pt_clust_7="13000.00000" pt_clust_8="13000.00000" pt_clust_9="23.66526"></scales>
<clustering>
<clus scale="   23.665">  2  9  1 -1</clus>
<clus scale="   81.587">  5  6 -1 -1</clus>
<clus scale="   93.719">  7  8 -1 -1</clus>
<clus scale="  111.121">  2  5  1 -1</clus>
<clus scale="   23.665">  2  5  1 -1</clus>
</clustering>
</event>
<event>
 9    2  0.5615294E-005  0.2622273E+03  0.7546771E-02  0.1146699E+00
          2   -1    0    0  502    0 -0.00000000000E+00  0.00000000000E+00  0.32769008321E+03  0.32769008321E+03  0.00000000000E+00 0. -1.
         21   -1    0    0  501  502  0.00000000000E+00 -0.00000000000E+00 -0.29524486458E+03  0.29524486458E+03  0.00000000000E+00 0. -1.
         24    2    1    2    0    0 -0.36010351945E+02  0.35043572465E+02 -0.40418994107E+02  0.10359265486E+03  0.81073704968E+02 0.  0.
         23    2    1    2    0    0 -0.20869283521E+03 -0.11274466661E+03  0.70727078406E+02  0.26259012220E+03  0.87676640791E+02 0.  0.
        -13    1    3    3    0    0 -0.49079025115E+01 -0.25048396201E+02 -0.21394351060E+02  0.33305073436E+02  0.00000000000E+00 0.  1.
         14    1    3    3    0    0 -0.31102449434E+02  0.60091968665E+02 -0.19024643046E+02  0.70287581420E+02  0.00000000000E+00 0. -1.
        -13    1    4    4    0    0 -0.19091530598E+03 -0.92406215562E+02  0.88956414047E+02  0.23000175289E+03  0.00000000000E+00 0.  1.
         13    1    4    4    0    0 -0.17777529235E+02 -0.20338451043E+02 -0.18229335642E+02  0.32588369313E+02  0.00000000000E+00 0. -1.
          1    1    1    2  501    0  0.24470318716E+03  0.77701094141E+02  0.21371343263E+01  0.25675217074E+03  0.00000000000E+00 0. -1.
<scales pt_clust_5="13000.00000" pt_clust_6="13000.00000" pt_clust_7="13000.00000" pt_clust_8="13000.00000" pt_clust_9="247.13548"></scales>
<clustering>
<clus scale="   81.074">  5  6 -1 -1</clus>
<clus scale="   87.677">  7  8 -1 -1</clus>
<clus scale="   95.382">  1  5  2 -1</clus>
<clus scale="  247.135">  2  9  1 -1</clus>
<clus scale="  247.135">  2  5  1 -1</clus>
</clustering>
</event>
<event>
 9    2  0.5615294E-005  0.1151195E+03  0.7546771E-02  0.1254338E+00
         -3   -1    0    0    0  501 -0.00000000000E+00  0.00000000000E+00  0.53029252044E+03  0.53029252044E+03  0.00000000000E+00 0.  1.
         21   -1    0    0  501  502  0.00000000000E+00 -0.00000000000E+00 -0.52574521600E+02  0.52574521600E+02  0.00000000000E+00 0. -1.
         24    2    1    2    0    0 -0.15983630283E+02  0.35576161593E+02  0.12845506878E+03  0.15655448882E+03  0.80544792281E+02 0.  0.
         23    2    1    2    0    0  0.36207549978E+02 -0.12107953751E+03  0.24744740549E+03  0.29182747872E+03  0.89229018670E+02 0.  0.
        -13    1    3    3    0    0 -0.34377882204E+02 -0.28871698593E+01  0.19669209424E+02  0.39712118226E+02  0.00000000000E+00 0.  1.
         14    1    3    3    0    0  0.18394251921E+02  0.38463331452E+02  0.10878585935E+03  0.11684237059E+03  0.00000000000E+00 0. -1.
        -11    1    4    4    0    0  0.16743947233E+02 -0.10604924698E+03  0.11583935694E+03  0.15794163216E+03  0.00000000000E+00 0. -1.
         11    1    4    4    0    0  0.19463602745E+02 -0.15030290531E+02  0.13160804855E+03  0.13388584656E+03  0.00000000000E+00 0.  1.
         -4    1    1    2    0  502 -0.20223919695E+02  0.85503375913E+02  0.10181552457E+03  0.13448507450E+03  0.00000000000E+00 0.  1.
<scales pt_clust_5="13000.00000" pt_clust_6="13000.00000" pt_clust_7="13000.00000" pt_clust_8="13000.00000" pt_clust_9="87.86259"></scales>
<clustering>
<clus scale="   80.545">  5  6 -1 -1</clus>
<clus scale="   87.863">  2  9  1 -1</clus>
<clus scale="   89.229">  7  8 -1 -1</clus>
<clus scale="  108.527">  1  5  2 -1</clus>
<clus scale="   87.863">  2  5  1 -1</clus>
</clustering>
</event>
<event>
 9    2  0.5615294E-005  0.2455395E+03  0.7546771E-02  0.1137070E+00
         21   -1    0    0  501  502  0.00000000000E+00  0.00000000000E+00  0.91222446553E+02  0.91222446553E+02  0.00000000000E+00 0. -1.
          2   -1    0    0  502    0 -0.00000000000E+00 -0.00000000000E+00 -0.14858307231E+04  0.14858307231E+04  0.00000000000E+00 0. -1.
         24    2    1    2    0    0  0.48855989870E+02 -0.11230726701E+03 -0.59356287946E+03  0.61136148740E+03  0.80287897177E+02 0.  0.
         23    2    1    2    0    0  0.20930689244E+03 -0.10580511090E+02 -0.21490758346E+03  0.31353601343E+03  0.90544132088E+02 0.  0.
        -13    1    3    3    0    0  0.26964469733E+02 -0.60312626782E+02 -0.14593742519E+03  0.16019496762E+03  0.00000000000E+00 0.  1.
         14    1    3    3    0    0  0.21891520137E+02 -0.51994640226E+02 -0.44762545426E+03  0.45116651978E+03  0.00000000000E+00 0. -1.
        -11    1    4    4    0    0  0.32802749496E+02 -0.19167007147E+02 -0.88368518779E+02  0.96189342698E+02  0.00000000000E+00 0.  1.
         11    1    4    4    0    0  0.17650414294E+03  0.85864960570E+01 -0.12653906468E+03  0.21734667073E+03  0.00000000000E+00 0. -1.
          1    1    1    2  501    0 -0.25816288231E+03  0.12288777810E+03 -0.58613781364E+03  0.65215566883E+03  0.00000000000E+00 0. -1.
<scales pt_clust_5="13000.00000" pt_clust_6="13000.00000" pt_clust_7="13000.00000" pt_clust_8="13000.00000" pt_clust_9="228.23551"></scales>
<clustering>
<clus scale="   80.288">  5  6 -1 -1</clus>
<clus scale="   90.544">  7  8 -1 -1</clus>
<clus scale="  146.444">  2  5  1 -1</clus>
<clus scale="  228.236">  1  9  2 -1</clus>
<clus scale="  228.236">  1  5  2 -1</clus>
</clustering>
</event>
<event>
 9    2  0.5615294E-005  0.2825716E+03  0.7546771E-02  0.1105211E+00
          2   -1    0    0  502    0 -0.00000000000E+00  0.00000000000E+00  0.20900665218E+04  0.20900665218E+04  0.00000000000E+00 0. -1.
         21   -1    0    0  501  502  0.00000000000E+00 -0.00000000000E+00 -0.98900690863E+02  0.98900690863E+02  0.00000000000E+00 0. -1.
         24    2    1    2    0    0  0.38856622128E+02 -0.19337619249E+03  0.11171291400E+04  0.11372217116E+04  0.79946963712E+02 0.  0.
         23    2    1    2    0    0 -0.27177006753E+03  0.88228908171E+01  0.41413187782E+03  0.50418634321E+03  0.93604719151E+02 0.  0.
        -13    1    3    3    0    0  0.46223288812E+02 -0.45810352286E+02  0.34175158047E+03  0.34789268972E+03  0.00000000000E+00 0.  1.
         14    1    3    3    0    0 -0.73666666847E+01 -0.14756584021E+03  0.77537755954E+03  0.78932902190E+03  0.00000000000E+00 0. -1.
        -13    1    4    4    0    0 -0.17137432854E+03 -0.39927369185E+02  0.25465212538E+03  0.30953361732E+03  0.00000000000E+00 0.  1.
         13    1    4    4    0    0 -0.10039573898E+03  0.48750260002E+02  0.15947975244E+03  0.19465272589E+03  0.00000000000E+00 0. -1.
          1    1    1    2  501    0  0.23291344540E+03  0.18455330168E+03  0.45990481309E+03  0.54755915782E+03  0.00000000000E+00 0. -1.
<scales pt_clust_5="13000.00000" pt_clust_6="13000.00000" pt_clust_7="13000.00000" pt_clust_8="13000.00000" pt_clust_9="266.61757"></scales>
<clustering>
<clus scale="   79.947">  5  6 -1 -1</clus>
<clus scale="   93.605">  7  8 -1 -1</clus>
<clus scale="  212.828">  1  5  2 -1</clus>
<clus scale="  266.618">  2  9  1 -1</clus>
<clus scale="  266.618">  2  5  1 -1</clus>
</clustering>
</event>
<event>
 9    2  0.5615294E-005  0.9777340E+02  0.7546771E-02  0.1290906E+00
          2   -1    0    0  502    0 -0.00000000000E+00  0.00000000000E+00  0.16213889147E+03  0.16213889147E+03  0.00000000000E+00 0. -1.
         21   -1    0    0  501  502  0.00000000000E+00 -0.00000000000E+00 -0.18119216719E+03  0.18119216719E+03  0.00000000000E+00 0. -1.
         24    2    1    2    0    0  0.34123573847E+02 -0.36731251699E+02  0.80508628845E+02  0.12448662054E+03  0.80632972367E+02 0.  0.
         23    2    1    2    0    0  0.17719206123E+02  0.17029899316E+02  0.10681098196E+02  0.95437239068E+02  0.91597996736E+02 0.  0.
        -11    1    3    3    0    0  0.29004169328E+02 -0.11656776374E+02 -0.80710714683E+01  0.32284120996E+02  0.00000000000E+00 0.  1.
         12    1    3    3    0    0  0.51194045192E+01 -0.25074475325E+02  0.88579700313E+02  0.92202499549E+02  0.00000000000E+00 0. -1.
        -11    1    4    4    0    0 -0.75624460391E+01  0.41528591028E+02 -0.21825668679E+02  0.47520251222E+02  0.00000000000E+00 0.  1.
         11    1    4    4    0    0  0.25281652162E+02 -0.24498691712E+02  0.32506766875E+02  0.47916987847E+02  0.00000000000E+00 0. -1.
          1    1    1    2  501    0 -0.51842779970E+02  0.19701352383E+02 -0.11024300275E+03  0.12340719905E+03  0.00000000000E+00 0. -1.
<scales pt_clust_5="13000.00000" pt_clust_6="13000.00000" pt_clust_7="13000.00000" pt_clust_8="13000.00000" pt_clust_9="55.46005"></scales>
<clustering>
<clus scale="   55.460">  2  9  1 -1</clus>
<clus scale="   80.633">  5  6 -1 -1</clus>
<clus scale="   87.585">  1  5  2 -1</clus>
<clus scale="   91.598">  7  8 -1 -1</clus>
<clus scale="   55.460">  2  5  1 -1</clus>
</clustering>
</event>
<event>
 9    2  0.5615294E-005  0.9266023E+02  0.7546771E-02  0.1304595E+00
          2   -1    0    0  502    0 -0.00000000000E+00  0.00000000000E+00  0.44715070574E+03  0.44715070574E+03  0.00000000000E+00 0. -1.
         21   -1    0    0  501  502  0.00000000000E+00 -0.00000000000E+00 -0.37419185929E+02  0.37419185929E+02  0.00000000000E+00 0.  1.
         23    2    1    2    0    0  0.76978117569E+01  0.33038068433E+00  0.20099221707E+03  0.22110017723E+03  0.91804420320E+02 0.  0.
         24    2    1    2    0    0 -0.19728974779E+02 -0.21172499638E+02  0.40061095208E+02  0.93083445915E+02  0.78880475197E+02 0.  0.
        -11    1    4    4    0    0 -0.14875795550E+02 -0.37989336563E+02 -0.83163426250E+01  0.41637009264E+02  0.00000000000E+00 0.  1.
         12    1    4    4    0    0 -0.48531792295E+01  0.16816836925E+02  0.48377437833E+02  0.51446436651E+02  0.00000000000E+00 0. -1.
        -11    1    3    3    0    0  0.38582891224E+02 -0.29884565050E+02  0.10102382553E+03  0.11219420684E+03  0.00000000000E+00 0. -1.
         11    1    3    3    0    0 -0.30885079467E+02  0.30214945734E+02  0.99968391543E+02  0.10890597039E+03  0.00000000000E+00 0.  1.
          1    1    1    2  501    0  0.12031163023E+02  0.20842118954E+02  0.16867820753E+03  0.17038626852E+03  0.00000000000E+00 0. -1.
<scales pt_clust_5="13000.00000" pt_clust_6="13000.00000" pt_clust_7="13000.00000" pt_clust_8="13000.00000" pt_clust_9="24.06540"></scales>
<clustering>
<clus scale="   24.065">  2  9  1 -1</clus>
<clus scale="   78.880">  5  6 -1 -1</clus>
<clus scale="   79.875">  2  5  1 -1</clus>
<clus scale="   91.804">  7  8 -1 -1</clus>
<clus scale="   24.065">  2  5  1 -1</clus>
</clustering>
</event>
<event>
 9    2  0.5615294E-005  0.1457012E+03  0.7546771E-02  0.1207894E+00
          2   -1    0    0  502    0 -0.00000000000E+00  0.00000000000E+00  0.12985262258E+03  0.12985262258E+03  0.00000000000E+00 0. -1.
         21   -1    0    0  501  502  0.00000000000E+00 -0.00000000000E+00 -0.21448470536E+03  0.21448470536E+03  0.00000000000E+00 0. -1.
         24    2    1    2    0    0  0.46984612327E+02 -0.11310563108E+03  0.73352270079E+01  0.14685241410E+03  0.80693174410E+02 0.  0.
         23    2    1    2    0    0 -0.13332837100E+02  0.99749351668E+02 -0.86340298489E+02  0.16084483426E+03  0.91042384969E+02 0.  0.
        -13    1    3    3    0    0  0.21511445939E+02  0.54880876969E+01  0.12436527630E+02  0.25446583905E+02  0.00000000000E+00 0.  1.
         14    1    3    3    0    0  0.25473166388E+02 -0.11859371877E+03 -0.51013006224E+01  0.12140583020E+03  0.00000000000E+00 0. -1.
        -11    1    4    4    0    0  0.40538859484E+01  0.42558365734E+02 -0.91351145742E+02  0.10085970609E+03  0.00000000000E+00 0. -1.
         11    1    4    4    0    0 -0.17386723048E+02  0.57190985934E+02  0.50108472531E+01  0.59985128163E+02  0.00000000000E+00 0.  1.
          1    1    1    2  501    0 -0.33651775228E+02  0.13356279407E+02 -0.56270112912E+01  0.36640079580E+02  0.00000000000E+00 0. -1.
<scales pt_clust_5="13000.00000" pt_clust_6="13000.00000" pt_clust_7="13000.00000" pt_clust_8="13000.00000" pt_clust_9="36.20543"></scales>
<clustering>
<clus scale="   36.205">  2  9  1 -1</clus>
<clus scale="   80.693">  5  6 -1 -1</clus>
<clus scale="   91.042">  7  8 -1 -1</clus>
<clus scale="  139.469">  1  5  2 -1</clus>
<clus scale="   36.205">  2  5  1 -1</clus>
</clustering>
</event>
<event>
 9    2  0.5615294E-005  0.1031407E+03  0.7546771E-02  0.1275353E+00
         21   -1    0    0  501  502  0.00000000000E+00  0.00000000000E+00  0.31801231124E+02  0.31801231124E+02  0.00000000000E+00 0.  1.
          2   -1    0    0  502    0 -0.00000000000E+00 -0.00000000000E+00 -0.72396809744E+03  0.72396809744E+03  0.00000000000E+00 0. -1.
         24    2    1    2    0    0 -0.50156058039E+01  0.46443053770E+02 -0.35418458876E+03  0.36805829213E+03  0.88532874940E+02 0.  0.
         23    2    1    2    0    0 -0.57231569099E+02 -0.42823602245E+02 -0.15138303797E+03  0.19096986783E+03  0.91887718551E+02 0.  0.
        -13    1    3    3    0    0 -0.30008883436E+02 -0.15098385509E+02 -0.12621589534E+03  0.13060990225E+03  0.00000000000E+00 0.  1.
         14    1    3    3    0    0  0.24993277632E+02  0.61541439279E+02 -0.22796869342E+03  0.23744838988E+03  0.00000000000E+00 0. -1.
        -13    1    4    4    0    0 -0.73363933684E+02 -0.64628134997E+01 -0.76579087204E+02  0.10624684146E+03  0.00000000000E+00 0.  1.
         13    1    4    4    0    0  0.16132364585E+02 -0.36360788746E+02 -0.74803950771E+02  0.84723026364E+02  0.00000000000E+00 0. -1.
          1    1    1    2  501    0  0.62247174903E+02 -0.36194515246E+01 -0.18659923958E+03  0.19674116861E+03  0.00000000000E+00 0. -1.
<scales pt_clust_5="13000.00000" pt_clust_6="13000.00000" pt_clust_7="13000.00000" pt_clust_8="13000.00000" pt_clust_9="62.35235"></scales>
<clustering>
<clus scale="   62.352">  1  9  2 -1</clus>
<clus scale="   88.533">  5  6 -1 -1</clus>
<clus scale="   91.888">  7  8 -1 -1</clus>
<clus scale="  100.163">  2  5  1 -1</clus>
<clus scale="   62.352">  1  5  2 -1</clus>
</clustering>
</event>
<event>
 9    2  0.8076486E-005  0.1333915E+03  0.7546771E-02  0.1241061E+00
          2   -1    0    0  502    0 -0.00000000000E+00  0.00000000000E+00  0.26546165774E+03  0.26546165774E+03  0.00000000000E+00 0. -1.
         21   -1    0    0  501  502  0.00000000000E+00 -0.00000000000E+00 -0.41339651303E+03  0.41339651303E+03  0.00000000000E+00 0. -1.
         23    2    1    2    0    0 -0.41779568778E+01  0.11769361625E+02  0.15174561511E+03  0.17696131856E+03  0.90180947910E+02 0.  0.
         24    2    1    2    0    0  0.10662990519E+03 -0.35616153857E+02  0.41527817513E+02  0.14484200074E+03  0.81340017557E+02 0.  0.
        -11    1    4    4    0    0  0.76061740075E+01 -0.20702312726E+02 -0.17891583147E+02  0.28399795470E+02  0.00000000000E+00 0.  1.
         12    1    4    4    0    0  0.99023731179E+02 -0.14913841131E+02  0.59419400660E+02  0.11644220527E+03  0.00000000000E+00 0. -1.
        -11    1    3    3    0    0 -0.30518257587E+02  0.23953697924E+02  0.23250956451E+02  0.45229975306E+02  0.00000000000E+00 0.  1.
         11    1    3    3    0    0  0.26340300709E+02 -0.12184336299E+02  0.12849465866E+03  0.13173134325E+03  0.00000000000E+00 0. -1.
          1    1    1    2  501    0 -0.10245194831E+03  0.23846792231E+02 -0.34120828791E+03  0.35705485146E+03  0.00000000000E+00 0. -1.
<scales pt_clust_5="13000.00000" pt_clust_6="13000.00000" pt_clust_7="13000.00000" pt_clust_8="13000.00000" pt_clust_9="105.72182"></scales>
<clustering>
<clus scale="   81.340">  5  6 -1 -1</clus>
<clus scale="   90.181">  7  8 -1 -1</clus>
<clus scale="   91.042">  1  7  2 -1</clus>
<clus scale="  105.722">  2  9  1 -1</clus>
<clus scale="  105.722">  2  5  1 -1</clus>
</clustering>
</event>
<event>
 9    2  0.5615294E-005  0.1272133E+03  0.7546771E-02  0.1232962E+00
         21   -1    0    0  501  502  0.00000000000E+00  0.00000000000E+00  0.29581325035E+03  0.29581325035E+03  0.00000000000E+00 0.  1.
          4   -1    0    0  502    0 -0.00000000000E+00 -0.00000000000E+00 -0.87395458922E+02  0.87395458922E+02  0.00000000000E+00 0. -1.
         23    2    1    2    0    0 -0.10118600690E+03 -0.72814723357E-01  0.89326480516E+01  0.13257095745E+03  0.85185992171E+02 0.  0.
         24    2    1    2    0    0  0.81668908322E+02  0.64820212126E+01  0.10992273464E+03  0.15874966705E+03  0.80041376874E+02 0.  0.
        -13    1    4    4    0    0  0.40848568525E+02  0.17989880686E+02  0.10735091508E+03  0.11626031278E+03  0.00000000000E+00 0.  1.
         14    1    4    4    0    0  0.40820339797E+02 -0.11507859473E+02  0.25718195592E+01  0.42489354275E+02  0.00000000000E+00 0. -1.
        -11    1    3    3    0    0 -0.38690851764E+02 -0.15996681067E+02  0.42676731890E+02  0.59784439950E+02  0.00000000000E+00 0.  1.
         11    1    3    3    0    0 -0.62495155141E+02  0.15923866344E+02 -0.33744083838E+02  0.72786517498E+02  0.00000000000E+00 0. -1.
          3    1    1    2  501    0  0.19517098583E+02 -0.64092064892E+01  0.89562408740E+02  0.91888084778E+02  0.00000000000E+00 0. -1.
<scales pt_clust_5="13000.00000" pt_clust_6="13000.00000" pt_clust_7="13000.00000" pt_clust_8="13000.00000" pt_clust_9="20.54252"></scales>
<clustering>
<clus scale="   20.543">  1  9  2 -1</clus>
<clus scale="   80.041">  5  6 -1 -1</clus>
<clus scale="   85.186">  7  8 -1 -1</clus>
<clus scale="  123.827">  1  5  2 -1</clus>
<clus scale="   20.543">  1  5  2 -1</clus>
</clustering>
</event>
<event>
 9    2  0.5615294E-005  0.9485552E+02  0.7546771E-02  0.1298659E+00
         21   -1    0    0  501  502  0.00000000000E+00  0.00000000000E+00  0.14081867170E+03  0.14081867170E+03  0.00000000000E+00 0.  1.
          2   -1    0    0  502    0 -0.00000000000E+00 -0.00000000000E+00 -0.11316891743E+04  0.11316891743E+04  0.00000000000E+00 0. -1.
         24    2    1    2    0    0 -0.21024700512E+02 -0.11988600501E+02 -0.10964842720E+04  0.10996376020E+04  0.79619924683E+02 0.  0.
         23    2    1    2    0    0  0.25453113265E+01 -0.23350722324E+02  0.59699156587E+02  0.11205489040E+03  0.91872598328E+02 0.  0.
        -13    1    3    3    0    0 -0.30502430682E+02 -0.27005977630E+01 -0.15168030267E+03  0.15474044631E+03  0.00000000000E+00 0.  1.
         14    1    3    3    0    0  0.94777301705E+01 -0.92880027380E+01 -0.94480396931E+03  0.94489715567E+03  0.00000000000E+00 0. -1.
        -13    1    4    4    0    0  0.15849031214E+02  0.28363149048E+02  0.72610551216E+00  0.32499034502E+02  0.00000000000E+00 0. -1.
         13    1    4    4    0    0 -0.13303719888E+02 -0.51713871373E+02  0.58973051074E+02  0.79555855902E+02  0.00000000000E+00 0.  1.
          1    1    1    2  501    0  0.18479389185E+02  0.35339322825E+02  0.45914612819E+02  0.60815353594E+02  0.00000000000E+00 0. -1.
<scales pt_clust_5="13000.00000" pt_clust_6="13000.00000" pt_clust_7="13000.00000" pt_clust_8="13000.00000" pt_clust_9="39.87926"></scales>
<clustering>
<clus scale="   39.879">  1  9  2 -1</clus>
<clus scale="   79.620">  5  6 -1 -1</clus>
<clus scale="   83.044">  2  5  1 -1</clus>
<clus scale="   91.873">  7  8 -1 -1</clus>
<clus scale="   39.879">  1  5  2 -1</clus>
</clustering>
</event>
<event>
 9    2  0.5615294E-005  0.1900442E+03  0.7546771E-02  0.1164625E+00
          4   -1    0    0  502    0 -0.00000000000E+00  0.00000000000E+00  0.15444291074E+03  0.15444291074E+03  0.00000000000E+00 0. -1.
         21   -1    0    0  501  502  0.00000000000E+00 -0.00000000000E+00 -0.62004495740E+03  0.62004495740E+03  0.00000000000E+00 0. -1.
         23    2    1    2    0    0  0.31862692918E+02  0.13214904738E+03 -0.30728625451E+03  0.34857137269E+03  0.92728408411E+02 0.  0.
         24    2    1    2    0    0 -0.15230745710E+03  0.26554809989E+02 -0.48326785349E+01  0.17441913617E+03  0.80597523917E+02 0.  0.
        -13    1    4    4    0    0 -0.12351183971E+03  0.38505677638E+02  0.24428938555E+02  0.13166106030E+03  0.00000000000E+00 0.  1.
         14    1    4    4    0    0 -0.28795617383E+02 -0.11950867649E+02 -0.29261617090E+02  0.42758075878E+02  0.00000000000E+00 0. -1.
        -11    1    3    3    0    0  0.41969284360E+02  0.14707989515E+02 -0.11147072026E+03  0.12001444605E+03  0.00000000000E+00 0.  1.
         11    1    3    3    0    0 -0.10106591442E+02  0.11744105786E+03 -0.19581553425E+03  0.22855692664E+03  0.00000000000E+00 0. -1.
          3    1    1    2  501    0  0.12044476418E+03 -0.15870385736E+03 -0.15348311361E+03  0.25149735928E+03  0.00000000000E+00 0. -1.
<scales pt_clust_5="13000.00000" pt_clust_6="13000.00000" pt_clust_7="13000.00000" pt_clust_8="13000.00000" pt_clust_9="172.10706"></scales>
<clustering>
<clus scale="   80.598">  5  6 -1 -1</clus>
<clus scale="   92.728">  7  8 -1 -1</clus>
<clus scale="  164.551">  1  7  2 -1</clus>
<clus scale="  172.107">  2  9  1 -1</clus>
<clus scale="  172.107">  2  5  1 -1</clus>
</clustering>
</event>
<event>
 9    2  0.5615294E-005  0.1137700E+03  0.7546771E-02  0.1256869E+00
         21   -1    0    0  501  502  0.00000000000E+00  0.00000000000E+00  0.22824403094E+03  0.22824403094E+03  0.00000000000E+00 0. -1.
          2   -1    0    0  502    0 -0.00000000000E+00 -0.00000000000E+00 -0.89948241884E+02  0.89948241884E+02  0.00000000000E+00 0. -1.
         23    2    1    2    0    0 -0.17355537260E+02 -0.87779802612E+02  0.35757271295E+02  0.13153405438E+03  0.89532768257E+02 0.  0.
         24    2    1    2    0    0  0.26321180836E+02  0.37744671459E+02  0.98934178253E+02  0.13569854440E+03  0.80676257613E+02 0.  0.
        -11    1    4    4    0    0  0.24742393018E+02 -0.14679962610E+02  0.66138082708E+01  0.29519989403E+02  0.00000000000E+00 0.  1.
         12    1    4    4    0    0  0.15787878172E+01  0.52424634070E+02  0.92320369983E+02  0.10617855500E+03  0.00000000000E+00 0. -1.
        -11    1    3    3    0    0 -0.24940648159E+02 -0.51447335932E+01  0.41132654999E+02  0.48377675860E+02  0.00000000000E+00 0.  1.
         11    1    3    3    0    0  0.75851108989E+01 -0.82635069019E+02 -0.53753837037E+01  0.83156378523E+02  0.00000000000E+00 0. -1.
          1    1    1    2  501    0 -0.89656435758E+01  0.50035131153E+02  0.36043395026E+01  0.50959674032E+02  0.00000000000E+00 0. -1.
<scales pt_clust_5="13000.00000" pt_clust_6="13000.00000" pt_clust_7="13000.00000" pt_clust_8="13000.00000" pt_clust_9="50.83207"></scales>
<clustering>
<clus scale="   50.832">  1  9  2 -1</clus>
<clus scale="   80.676">  5  6 -1 -1</clus>
<clus scale="   89.533">  7  8 -1 -1</clus>
<clus scale="  106.940">  1  5  2 -1</clus>
<clus scale="   50.832">  1  5  2 -1</clus>
</clustering>
</event>
<event>
 9    2  0.5615294E-005  0.9239955E+02  0.7546771E-02  0.1303733E+00
         21   -1    0    0  501  502  0.00000000000E+00  0.00000000000E+00  0.16713144987E+03  0.16713144987E+03  0.00000000000E+00 0.  1.
          2   -1    0    0  502    0 -0.00000000000E+00 -0.00000000000E+00 -0.88782801600E+02  0.88782801600E+02  0.00000000000E+00 0. -1.
         23    2    1    2    0    0  0.32372162737E+02 -0.14745014322E+02  0.25519537069E+00  0.96981217991E+02  0.90221500490E+02 0.  0.
         24    2    1    2    0    0  0.20213309829E+02  0.20658383701E+02  0.38412714349E+02  0.92791058346E+02  0.79368111821E+02 0.  0.
        -13    1    4    4    0    0  0.92882672914E+01  0.40658605664E+02  0.51688910833E+02  0.66416395769E+02  0.00000000000E+00 0.  1.
         14    1    4    4    0    0  0.10925042538E+02 -0.20000221962E+02 -0.13276196484E+02  0.26374662578E+02  0.00000000000E+00 0. -1.
        -11    1    3    3    0    0  0.21661410021E+02 -0.51311556241E+02  0.12264050478E+02  0.57030688424E+02  0.00000000000E+00 0. -1.
         11    1    3    3    0    0  0.10710752716E+02  0.36566541919E+02 -0.12008855108E+02  0.39950529567E+02  0.00000000000E+00 0.  1.
          1    1    1    2  501    0 -0.52585472566E+02 -0.59133693797E+01  0.39680738548E+02  0.66141975130E+02  0.00000000000E+00 0. -1.
<scales pt_clust_5="13000.00000" pt_clust_6="13000.00000" pt_clust_7="13000.00000" pt_clust_8="13000.00000" pt_clust_9="52.91691"></scales>
<clustering>
<clus scale="   52.917">  1  9  2 -1</clus>
<clus scale="   79.368">  5  6 -1 -1</clus>
<clus scale="   81.836">  1  5  2 -1</clus>
<clus scale="   90.222">  7  8 -1 -1</clus>
<clus scale="   52.917">  1  5  2 -1</clus>
</clustering>
</event>
<event>
 9    2  0.5615294E-005  0.1125149E+03  0.7546771E-02  0.1259944E+00
          2   -1    0    0  502    0 -0.00000000000E+00  0.00000000000E+00  0.67597546215E+03  0.67597546215E+03  0.00000000000E+00 0. -1.
         21   -1    0    0  501  502  0.00000000000E+00 -0.00000000000E+00 -0.71023065036E+02  0.71023065036E+02  0.00000000000E+00 0. -1.
         24    2    1    2    0    0 -0.41914732135E+02  0.48059511189E+02  0.55450270390E+03  0.56388061158E+03  0.80134475152E+02 0.  0.
         23    2    1    2    0    0  0.51994840907E+02 -0.68350382395E+02  0.78075623146E+02  0.14738949482E+03  0.90843943112E+02 0.  0.
        -11    1    3    3    0    0  0.22285288198E+02  0.12635729033E+00  0.11824246493E+03  0.12032427249E+03  0.00000000000E+00 0.  1.
         12    1    3    3    0    0 -0.64200020333E+02  0.47933153899E+02  0.43626023896E+03  0.44355633910E+03  0.00000000000E+00 0. -1.
        -13    1    4    4    0    0  0.70668390154E+02 -0.76909874813E+02  0.66276426034E+02  0.12370010048E+03  0.00000000000E+00 0. -1.
         13    1    4    4    0    0 -0.18673549246E+02  0.85594924183E+01  0.11799197112E+02  0.23689394344E+02  0.00000000000E+00 0.  1.
          1    1    1    2  501    0 -0.10080108772E+02  0.20290871206E+02 -0.27625929926E+02  0.35728420780E+02  0.00000000000E+00 0. -1.
<scales pt_clust_5="13000.00000" pt_clust_6="13000.00000" pt_clust_7="13000.00000" pt_clust_8="13000.00000" pt_clust_9="22.65674"></scales>
<clustering>
<clus scale="   22.657">  2  9  1 -1</clus>
<clus scale="   80.134">  5  6 -1 -1</clus>
<clus scale="   90.844">  7  8 -1 -1</clus>
<clus scale="  104.060">  1  5  2 -1</clus>
<clus scale="   22.657">  2  5  1 -1</clus>
</clustering>
</event>
<event>
 9    2  0.5615294E-005  0.1138946E+03  0.7546771E-02  0.1257996E+00
         21   -1    0    0  501  502  0.00000000000E+00  0.00000000000E+00  0.59329170118E+02  0.59329170118E+02  0.00000000000E+00 0.  1.
         -1   -1    0    0    0  501 -0.00000000000E+00 -0.00000000000E+00 -0.48867317910E+03  0.48867317910E+03  0.00000000000E+00 0.  1.
         23    2    1    2    0    0  0.35798054902E+02  0.77248907458E+02 -0.34159194265E+03  0.36412706084E+03  0.93029923771E+02 0.  0.
         24    2    1    2    0    0 -0.35746087262E+02 -0.16705306543E+02 -0.84127193814E+02  0.12322324791E+03  0.80930427310E+02 0.  0.
        -13    1    4    4    0    0 -0.26769091748E+02 -0.38352140418E+02 -0.13307132173E+02  0.48626646135E+02  0.00000000000E+00 0.  1.
         14    1    4    4    0    0 -0.89769955138E+01  0.21646833874E+02 -0.70820061640E+02  0.74596601772E+02  0.00000000000E+00 0. -1.
        -11    1    3    3    0    0 -0.31178438682E+02  0.15048974439E+02 -0.87987138652E+02  0.94553176776E+02  0.00000000000E+00 0. -1.
         11    1    3    3    0    0  0.66976493583E+02  0.62199933019E+02 -0.25360480400E+03  0.26957388406E+03  0.00000000000E+00 0.  1.
         -2    1    1    2    0  502 -0.51967639781E-01 -0.60543600915E+02 -0.36248725193E+01  0.60652040469E+02  0.00000000000E+00 0.  1.
<scales pt_clust_5="13000.00000" pt_clust_6="13000.00000" pt_clust_7="13000.00000" pt_clust_8="13000.00000" pt_clust_9="60.54362"></scales>
<clustering>
<clus scale="   60.544">  1  9  2 -1</clus>
<clus scale="   80.930">  5  6 -1 -1</clus>
<clus scale="   93.030">  7  8 -1 -1</clus>
<clus scale="  104.246">  1  5  2 -1</clus>
<clus scale="   60.544">  1  5  2 -1</clus>
</clustering>
</event>
<event>
 9    2  0.5615294E-005  0.9464764E+02  0.7546771E-02  0.1297093E+00
         21   -1    0    0  501  502  0.00000000000E+00  0.00000000000E+00  0.11140715760E+03  0.11140715760E+03  0.00000000000E+00 0.  1.
         -1   -1    0    0    0  501 -0.00000000000E+00 -0.00000000000E+00 -0.18126216822E+03  0.18126216822E+03  0.00000000000E+00 0.  1.
         23    2    1    2    0    0 -0.81076405329E+01  0.11280108645E+02 -0.81073386823E+02  0.12245115853E+03  0.90710625002E+02 0.  0.
         24    2    1    2    0    0  0.37126269294E+02 -0.27697588774E+02 -0.45552703116E+02  0.10438071658E+03  0.81699259094E+02 0.  0.
        -13    1    4    4    0    0  0.62973934068E+02 -0.13428529560E+02 -0.30922458269E+02  0.71429967125E+02  0.00000000000E+00 0.  1.
         14    1    4    4    0    0 -0.25847664774E+02 -0.14269059215E+02 -0.14630244846E+02  0.32950749452E+02  0.00000000000E+00 0. -1.
        -13    1    3    3    0    0 -0.19910239374E+02 -0.25511264651E+02  0.30869236472E+00  0.32362594875E+02  0.00000000000E+00 0. -1.
         13    1    3    3    0    0  0.11802598841E+02  0.36791373297E+02 -0.81382079188E+02  0.90088563655E+02  0.00000000000E+00 0.  1.
         -2    1    1    2    0  502 -0.29018628761E+02  0.16417480129E+02  0.56771079316E+02  0.65837450708E+02  0.00000000000E+00 0.  1.
<scales pt_clust_5="13000.00000" pt_clust_6="13000.00000" pt_clust_7="13000.00000" pt_clust_8="13000.00000" pt_clust_9="33.34088"></scales>
<clustering>
<clus scale="   33.341">  1  9  2 -1</clus>
<clus scale="   81.699">  5  6 -1 -1</clus>
<clus scale="   86.050">  1  5  2 -1</clus>
<clus scale="   90.711">  7  8 -1 -1</clus>
<clus scale="   33.341">  1  5  2 -1</clus>
</clustering>
</event>
<event>
 9    2  0.5615294E-005  0.9737823E+02  0.7546771E-02  0.1291458E+00
         -1   -1    0    0    0  501 -0.00000000000E+00  0.00000000000E+00  0.33664809266E+02  0.33664809266E+02  0.00000000000E+00 0.  1.
         21   -1    0    0  501  502  0.00000000000E+00 -0.00000000000E+00 -0.43385160460E+03  0.43385160460E+03  0.00000000000E+00 0.  1.
         24    2    1    2    0    0 -0.22081690872E+02 -0.27009351695E+02 -0.71417756992E+02  0.11244493621E+03  0.79537799283E+02 0.  0.
         23    2    1    2    0    0  0.22432915042E+01  0.50315912798E+02 -0.26353433523E+03  0.28301369272E+03  0.90053767182E+02 0.  0.
        -13    1    3    3    0    0 -0.29784011280E+02 -0.48397051903E+02 -0.27809120604E+02  0.63266967286E+02  0.00000000000E+00 0.  1.
         14    1    3    3    0    0  0.77023204071E+01  0.21387700208E+02 -0.43608636388E+02  0.49177968924E+02  0.00000000000E+00 0. -1.
        -11    1    4    4    0    0  0.34647388153E+02 -0.67035460378E+01 -0.65497345973E+02  0.74399471536E+02  0.00000000000E+00 0. -1.
         11    1    4    4    0    0 -0.32404096649E+02  0.57019458836E+02 -0.19803698926E+03  0.20861422119E+03  0.00000000000E+00 0.  1.
         -2    1    1    2    0  502  0.19838399368E+02 -0.23306561103E+02 -0.65234703109E+02  0.72057784934E+02  0.00000000000E+00 0.  1.
<scales pt_clust_5="13000.00000" pt_clust_6="13000.00000" pt_clust_7="13000.00000" pt_clust_8="13000.00000" pt_clust_9="30.60650"></scales>
<clustering>
<clus scale="   30.607">  2  9  1 -1</clus>
<clus scale="   79.538">  5  6 -1 -1</clus>
<clus scale="   87.745">  1  5  2 -1</clus>
<clus scale="   90.054">  7  8 -1 -1</clus>
<clus scale="   30.607">  2  5  1 -1</clus>
</clustering>
</event>
<event>
 9    2  0.5615294E-005  0.1635152E+03  0.7546771E-02  0.1186745E+00
          2   -1    0    0  502    0 -0.00000000000E+00  0.00000000000E+00  0.23617965915E+03  0.23617965915E+03  0.00000000000E+00 0. -1.
         21   -1    0    0  501  502  0.00000000000E+00 -0.00000000000E+00 -0.16120636369E+03  0.16120636369E+03  0.00000000000E+00 0. -1.
         24    2    1    2    0    0  0.75255670615E+02 -0.83937188972E+02 -0.43277878128E+01  0.13855929699E+03  0.80443031902E+02 0.  0.
         23    2    1    2    0    0 -0.12225920380E+03  0.10172795730E+03  0.27119066006E+02  0.18637807855E+03  0.93303023602E+02 0.  0.
        -13    1    3    3    0    0  0.46079846359E+01 -0.61973381874E+02  0.10717458867E+02  0.63061854618E+02  0.00000000000E+00 0.  1.
         14    1    3    3    0    0  0.70647685979E+02 -0.21963807099E+02 -0.15045246680E+02  0.75497442368E+02  0.00000000000E+00 0. -1.
        -11    1    4    4    0    0 -0.11602168426E+03  0.73403309218E+02 -0.11847876689E+02  0.13780221045E+03  0.00000000000E+00 0. -1.
         11    1    4    4    0    0 -0.62375195417E+01  0.28324648080E+02  0.38966942695E+02  0.48575868102E+02  0.00000000000E+00 0.  1.
          1    1    1    2  501    0  0.47003533187E+02 -0.17790768326E+02  0.52182017267E+02  0.72448647301E+02  0.00000000000E+00 0. -1.
<scales pt_clust_5="13000.00000" pt_clust_6="13000.00000" pt_clust_7="13000.00000" pt_clust_8="13000.00000" pt_clust_9="50.25780"></scales>
<clustering>
<clus scale="   50.258">  2  9  1 -1</clus>
<clus scale="   80.443">  5  6 -1 -1</clus>
<clus scale="   93.303">  7  8 -1 -1</clus>
<clus scale="  156.534">  1  5  2 -1</clus>
<clus scale="   50.258">  2  5  1 -1</clus>
</clustering>
</event>
<event>
 9    2  0.5615294E-005  0.1127069E+03  0.7546771E-02  0.1259406E+00
          2   -1    0    0  502    0 -0.00000000000E+00  0.00000000000E+00  0.71152486507E+03  0.71152486507E+03  0.00000000000E+00 0. -1.
         21   -1    0    0  501  502  0.00000000000E+00 -0.00000000000E+00 -0.28103882841E+02  0.28103882841E+02  0.00000000000E+00 0. -1.
         24    2    1    2    0    0  0.45437457700E+02 -0.58730542590E+02  0.43145678002E+03  0.44517326751E+03  0.80687334091E+02 0.  0.
         23    2    1    2    0    0 -0.54320934161E+01  0.58384404814E+02  0.21143868371E+03  0.23750930728E+03  0.90918137439E+02 0.  0.
        -13    1    3    3    0    0 -0.13314698209E+02 -0.48142288582E+02  0.19403053071E+03  0.20035670187E+03  0.00000000000E+00 0.  1.
         14    1    3    3    0    0  0.58752155909E+02 -0.10588254008E+02  0.23742624931E+03  0.24481656564E+03  0.00000000000E+00 0. -1.
        -11    1    4    4    0    0 -0.45836692986E+02  0.44056595466E+02  0.10480611584E+03  0.12258184182E+03  0.00000000000E+00 0.  1.
         11    1    4    4    0    0  0.40404599570E+02  0.14327809348E+02  0.10663256787E+03  0.11492746546E+03  0.00000000000E+00 0. -1.
          1    1    1    2  501    0 -0.40005364284E+02  0.34613777610E+00  0.40525518503E+02  0.56946173118E+02  0.00000000000E+00 0. -1.
<scales pt_clust_5="13000.00000" pt_clust_6="13000.00000" pt_clust_7="13000.00000" pt_clust_8="13000.00000" pt_clust_9="40.00686"></scales>
<clustering>
<clus scale="   40.007">  2  9  1 -1</clus>
<clus scale="   80.687">  5  6 -1 -1</clus>
<clus scale="   90.918">  7  8 -1 -1</clus>
<clus scale="  104.629">  1  5  2 -1</clus>
<clus scale="   40.007">  2  5  1 -1</clus>
</clustering>
</event>
<event>
 9    2  0.5615294E-005  0.1547673E+03  0.7546771E-02  0.1210477E+00
          2   -1    0    0  502    0 -0.00000000000E+00  0.00000000000E+00  0.68016818500E+02  0.68016818500E+02  0.00000000000E+00 0. -1.
         21   -1    0    0  501  502  0.00000000000E+00 -0.00000000000E+00 -0.85646825979E+03  0.85646825979E+03  0.00000000000E+00 0. -1.
         24    2    1    2    0    0 -0.68409558247E+02  0.35542766704E+02 -0.15819538716E+03  0.19274553910E+03  0.78625100312E+02 0.  0.
         23    2    1    2    0    0 -0.32352429761E+01  0.11238593755E+03 -0.50166670370E+03  0.52305053582E+03  0.96287671405E+02 0.  0.
        -13    1    3    3    0    0  0.12887043177E+02  0.19201644775E+02 -0.59517053076E+02  0.63851849236E+02  0.00000000000E+00 0.  1.
         14    1    3    3    0    0 -0.81296601424E+02  0.16341121929E+02 -0.98678334086E+02  0.12889368987E+03  0.00000000000E+00 0. -1.
        -11    1    4    4    0    0  0.24761468234E+02  0.37527532694E+02 -0.64411702469E+02  0.78551342663E+02  0.00000000000E+00 0.  1.
         11    1    4    4    0    0 -0.27996711210E+02  0.74858404856E+02 -0.43725500123E+03  0.44449919315E+03  0.00000000000E+00 0. -1.
          1    1    1    2  501    0  0.71644801223E+02 -0.14792870425E+03 -0.12858935043E+03  0.20868900337E+03  0.00000000000E+00 0. -1.
<scales pt_clust_5="13000.00000" pt_clust_6="13000.00000" pt_clust_7="13000.00000" pt_clust_8="13000.00000" pt_clust_9="121.16769"></scales>
<clustering>
<clus scale="   78.625">  5  6 -1 -1</clus>
<clus scale="   96.288">  7  8 -1 -1</clus>
<clus scale="  110.114">  1  5  2 -1</clus>
<clus scale="  121.168">  2  9  1 -1</clus>
<clus scale="  121.168">  2  5  1 -1</clus>
</clustering>
</event>
<event>
 9    2  0.5615294E-005  0.8855239E+02  0.7546771E-02  0.1313886E+00
         21   -1    0    0  501  502  0.00000000000E+00  0.00000000000E+00  0.80735414869E+02  0.80735414869E+02  0.00000000000E+00 0. -1.
          2   -1    0    0  502    0 -0.00000000000E+00 -0.00000000000E+00 -0.24077248631E+03  0.24077248631E+03  0.00000000000E+00 0. -1.
         24    2    1    2    0    0  0.15380458075E+02 -0.17822361024E+01 -0.15321203180E+03  0.17187976333E+03  0.76347832306E+02 0.  0.
         23    2    1    2    0    0  0.16545509530E+02  0.21555597980E+02  0.30414640219E+02  0.96741022184E+02  0.87723299891E+02 0.  0.
        -13    1    3    3    0    0 -0.17801398115E+02  0.13767665482E+02 -0.11049886621E+02  0.25070667761E+02  0.00000000000E+00 0.  1.
         14    1    3    3    0    0  0.33181856190E+02 -0.15549901585E+02 -0.14216214518E+03  0.14680909557E+03  0.00000000000E+00 0. -1.
        -13    1    4    4    0    0 -0.14345604126E+02  0.20305698209E+02  0.52941173973E+02  0.58488337633E+02  0.00000000000E+00 0. -1.
         13    1    4    4    0    0  0.30891113657E+02  0.12498997713E+01 -0.22526533754E+02  0.38252684551E+02  0.00000000000E+00 0.  1.
          1    1    1    2  501    0 -0.31925967605E+02 -0.19773361878E+02 -0.37239679862E+02  0.52887115668E+02  0.00000000000E+00 0. -1.
<scales pt_clust_5="13000.00000" pt_clust_6="13000.00000" pt_clust_7="13000.00000" pt_clust_8="13000.00000" pt_clust_9="37.55336"></scales>
<clustering>
<clus scale="   37.553">  1  9  2 -1</clus>
<clus scale="   76.348">  5  6 -1 -1</clus>
<clus scale="   77.299">  2  5  1 -1</clus>
<clus scale="   87.723">  7  8 -1 -1</clus>
<clus scale="   37.553">  1  5  2 -1</clus>
</clustering>
</event>
<event>
 9    2  0.5615294E-005  0.1049403E+03  0.7546771E-02  0.1275375E+00
         21   -1    0    0  501  502  0.00000000000E+00  0.00000000000E+00  0.37784784282E+03  0.37784784282E+03  0.00000000000E+00 0. -1.
          2   -1    0    0  502    0 -0.00000000000E+00 -0.00000000000E+00 -0.36197925683E+03  0.36197925683E+03  0.00000000000E+00 0. -1.
         24    2    1    2    0    0  0.38917510075E+02  0.31574361524E+02 -0.31610346935E+03  0.32981370538E+03  0.79650260659E+02 0.  0.
         23    2    1    2    0    0 -0.99400360243E+02 -0.11580363027E+02  0.97017091081E+02  0.16657598882E+03  0.91217913067E+02 0.  0.
        -13    1    3    3    0    0  0.19876956697E+01  0.51119725064E+02 -0.14788470574E+03  0.15648342857E+03  0.00000000000E+00 0.  1.
         14    1    3    3    0    0  0.36929814405E+02 -0.19545363541E+02 -0.16821876361E+03  0.17333027681E+03  0.00000000000E+00 0. -1.
        -11    1    4    4    0    0 -0.79887715908E+02  0.11331079775E+02  0.10776097231E+03  0.13462120069E+03  0.00000000000E+00 0.  1.
         11    1    4    4    0    0 -0.19512644335E+02 -0.22911442802E+02 -0.10743881232E+02  0.31954788126E+02  0.00000000000E+00 0. -1.
          1    1    1    2  501    0  0.60482850169E+02 -0.19993998497E+02  0.23495496427E+03  0.24343740545E+03  0.00000000000E+00 0. -1.
<scales pt_clust_5="13000.00000" pt_clust_6="13000.00000" pt_clust_7="13000.00000" pt_clust_8="13000.00000" pt_clust_9="63.70192"></scales>
<clustering>
<clus scale="   63.702">  1  9  2 -1</clus>
<clus scale="   79.650">  5  6 -1 -1</clus>
<clus scale="   91.218">  7  8 -1 -1</clus>
<clus scale="   95.057">  2  5  1 -1</clus>
<clus scale="   63.702">  1  5  2 -1</clus>
</clustering>
</event>
<event>
 9    2  0.5615294E-005  0.1059480E+03  0.7546771E-02  0.1272192E+00
         21   -1    0    0  501  502  0.00000000000E+00  0.00000000000E+00  0.77374619865E+03  0.77374619865E+03  0.00000000000E+00 0. -1.
          2   -1    0    0  502    0 -0.00000000000E+00 -0.00000000000E+00 -0.22116987241E+02  0.22116987241E+02  0.00000000000E+00 0. -1.
         23    2    1    2    0    0 -0.46122707411E+02  0.42571898221E+02  0.18877029484E+03  0.21910107929E+03  0.91822590216E+02 0.  0.
         24    2    1    2    0    0  0.35109059945E+02 -0.13513029433E+02  0.34849756803E+03  0.36015992279E+03  0.82760902636E+02 0.  0.
        -11    1    4    4    0    0  0.47676939210E+02 -0.37559818984E+02  0.19318544020E+03  0.20249554277E+03  0.00000000000E+00 0.  1.
         12    1    4    4    0    0 -0.12567879265E+02  0.24046789551E+02  0.15531212783E+03  0.15766438002E+03  0.00000000000E+00 0. -1.
        -13    1    3    3    0    0  0.13156344413E+02  0.21528359266E+02  0.13193067256E+03  0.13432148753E+03  0.00000000000E+00 0.  1.
         13    1    3    3    0    0 -0.59279051824E+02  0.21043538955E+02  0.56839622276E+02  0.84779591751E+02  0.00000000000E+00 0. -1.
          1    1    1    2  501    0  0.11013647467E+02 -0.29058868788E+02  0.21436134854E+03  0.21660218382E+03  0.00000000000E+00 0. -1.
<scales pt_clust_5="13000.00000" pt_clust_6="13000.00000" pt_clust_7="13000.00000" pt_clust_8="13000.00000" pt_clust_9="31.07601"></scales>
<clustering>
<clus scale="   31.076">  1  9  2 -1</clus>
<clus scale="   82.761">  5  6 -1 -1</clus>
<clus scale="   91.823">  7  8 -1 -1</clus>
<clus scale="   98.199">  1  5  2 -1</clus>
<clus scale="   31.076">  1  5  2 -1</clus>
</clustering>
</event>
<event>
 9    2  0.5615294E-005  0.1297257E+03  0.7546771E-02  0.1232877E+00
          4   -1    0    0  502    0 -0.00000000000E+00  0.00000000000E+00  0.14080665638E+04  0.14080665638E+04  0.00000000000E+00 0. -1.
         21   -1    0    0  501  502  0.00000000000E+00 -0.00000000000E+00 -0.45092130476E+02  0.45092130476E+02  0.00000000000E+00 0. -1.
         23    2    1    2    0    0 -0.59967879280E+02 -0.35801904229E+02  0.50163998618E+03  0.51604836966E+03  0.98920782485E+02 0.  0.
         24    2    1    2    0    0 -0.15241103564E+02  0.12539492652E+03  0.78109106332E+03  0.79525722669E+03  0.79841271088E+02 0.  0.
        -11    1    4    4    0    0 -0.31873896271E+02  0.59891252884E+02  0.22308242826E+03  0.23317091850E+03  0.00000000000E+00 0.  1.
         12    1    4    4    0    0  0.16632792707E+02  0.65503673633E+02  0.55800863507E+03  0.56208630819E+03  0.00000000000E+00 0. -1.
        -13    1    3    3    0    0  0.26902496362E+02  0.30773462091E+00  0.12101252891E+03  0.12396721811E+03  0.00000000000E+00 0.  1.
         13    1    3    3    0    0 -0.86870375642E+02 -0.36109638850E+02  0.38062745727E+03  0.39208115156E+03  0.00000000000E+00 0. -1.
          3    1    1    2  501    0  0.75208982844E+02 -0.89593022288E+02  0.80243383827E+02  0.14185309793E+03  0.00000000000E+00 0. -1.
<scales pt_clust_5="13000.00000" pt_clust_6="13000.00000" pt_clust_7="13000.00000" pt_clust_8="13000.00000" pt_clust_9="116.97564"></scales>
<clustering>
<clus scale="   79.841">  5  6 -1 -1</clus>
<clus scale="   98.921">  7  8 -1 -1</clus>
<clus scale="  116.976">  2  9  1 -1</clus>
<clus scale="  116.976">  2  5  1 -1</clus>
<clus scale="  116.976">  2  5  1 -1</clus>
</clustering>
</event>
<event>
 9    2  0.5615294E-005  0.9456076E+02  0.7546771E-02  0.1296814E+00
         21   -1    0    0  501  502  0.00000000000E+00  0.00000000000E+00  0.24437952225E+03  0.24437952225E+03  0.00000000000E+00 0.  1.
          2   -1    0    0  502    0 -0.00000000000E+00 -0.00000000000E+00 -0.85854352933E+02  0.85854352933E+02  0.00000000000E+00 0. -1.
         23    2    1    2    0    0  0.12647900056E+02  0.58407820115E+01  0.34577906060E+02  0.98621970961E+02  0.91304859993E+02 0.  0.
         24    2    1    2    0    0  0.74086494692E+02 -0.57672909352E+01  0.59384582369E+02  0.12348604979E+03  0.78741383838E+02 0.  0.
        -11    1    4    4    0    0  0.60481517897E+02 -0.27377630812E+00 -0.18577667582E+01  0.60510662349E+02  0.00000000000E+00 0.  1.
         12    1    4    4    0    0  0.13604976795E+02 -0.54935146271E+01  0.61242349127E+02  0.62975387440E+02  0.00000000000E+00 0. -1.
        -11    1    3    3    0    0 -0.21710100987E+02  0.20947070333E+02  0.49714907922E+02  0.58152216725E+02  0.00000000000E+00 0.  1.
         11    1    3    3    0    0  0.34358001043E+02 -0.15106288321E+02 -0.15137001862E+02  0.40469754236E+02  0.00000000000E+00 0. -1.
          1    1    1    2  501    0 -0.86734394749E+02 -0.73491076246E-01  0.64562680887E+02  0.10812585443E+03  0.00000000000E+00 0. -1.
<scales pt_clust_5="13000.00000" pt_clust_6="13000.00000" pt_clust_7="13000.00000" pt_clust_8="13000.00000" pt_clust_9="86.73443"></scales>
<clustering>
<clus scale="   78.741">  5  6 -1 -1</clus>
<clus scale="   86.734">  1  9  2 -1</clus>
<clus scale="   86.734">  1  5  2 -1</clus>
<clus scale="   91.305">  7  8 -1 -1</clus>
<clus scale="   86.734">  1  5  2 -1</clus>
</clustering>
</event>
<event>
 9    2  0.5615294E-005  0.1265605E+03  0.7546771E-02  0.1248608E+00
         21   -1    0    0  501  502  0.00000000000E+00  0.00000000000E+00  0.68354069024E+02  0.68354069024E+02  0.00000000000E+00 0. -1.
          2   -1    0    0  502    0 -0.00000000000E+00 -0.00000000000E+00 -0.69758401722E+03  0.69758401722E+03  0.00000000000E+00 0. -1.
         23    2    1    2    0    0  0.16143095608E+02 -0.70584465607E+01 -0.16319767487E+02  0.93000033812E+02  0.89845702594E+02 0.  0.
         24    2    1    2    0    0  0.72508745413E+02  0.52124113821E+02 -0.52997042345E+03  0.54344262156E+03  0.80540622013E+02 0.  0.
        -13    1    4    4    0    0  0.35215435557E+02 -0.17959964509E+02 -0.21623016015E+03  0.21981394265E+03  0.00000000000E+00 0.  1.
         14    1    4    4    0    0  0.37293309856E+02  0.70084078330E+02 -0.31374026331E+03  0.32362867891E+03  0.00000000000E+00 0. -1.
        -11    1    3    3    0    0  0.18305487833E+02  0.27355573776E+02  0.23411692257E+02  0.40392148194E+02  0.00000000000E+00 0. -1.
         11    1    3    3    0    0 -0.21623922244E+01 -0.34414020337E+02 -0.39731459744E+02  0.52607885618E+02  0.00000000000E+00 0.  1.
          1    1    1    2  501    0 -0.88651841021E+02 -0.45065667260E+02 -0.82939757254E+02  0.12949543087E+03  0.00000000000E+00 0. -1.
<scales pt_clust_5="13000.00000" pt_clust_6="13000.00000" pt_clust_7="13000.00000" pt_clust_8="13000.00000" pt_clust_9="97.62567"></scales>
<clustering>
<clus scale="   80.541">  5  6 -1 -1</clus>
<clus scale="   89.846">  7  8 -1 -1</clus>
<clus scale="   91.557">  2  7  1 -1</clus>
<clus scale="   97.626">  1  9  2 -1</clus>
<clus scale="   97.626">  1  5  2 -1</clus>
</clustering>
</event>
<event>
 9    2  0.5615294E-005  0.9150684E+02  0.7546771E-02  0.1306076E+00
          2   -1    0    0  502    0 -0.00000000000E+00  0.00000000000E+00  0.39236112388E+03  0.39236112388E+03  0.00000000000E+00 0. -1.
         21   -1    0    0  501  502  0.00000000000E+00 -0.00000000000E+00 -0.97625209311E+02  0.97625209311E+02  0.00000000000E+00 0. -1.
         24    2    1    2    0    0 -0.14344780092E+02 -0.62992761497E+01  0.27334767040E+03  0.28540289942E+03  0.80563096316E+02 0.  0.
         23    2    1    2    0    0 -0.42422168425E+02 -0.34670138301E+02  0.62382317608E+02  0.12345702981E+03  0.91369720345E+02 0.  0.
        -13    1    3    3    0    0  0.12710137664E+02  0.29995032374E+02  0.71965239952E+02  0.78995223450E+02  0.00000000000E+00 0.  1.
         14    1    3    3    0    0 -0.27054917756E+02 -0.36294308524E+02  0.20138243044E+03  0.20640767596E+03  0.00000000000E+00 0. -1.
        -13    1    4    4    0    0  0.30758269868E+01  0.24586232240E+02 -0.19668307508E+01  0.24855823274E+02  0.00000000000E+00 0.  1.
         13    1    4    4    0    0 -0.45497995411E+02 -0.59256370541E+02  0.64349148358E+02  0.98601206537E+02  0.00000000000E+00 0. -1.
          1    1    1    2  501    0  0.56766948517E+02  0.40969414450E+02 -0.40994073431E+02  0.81126403968E+02  0.00000000000E+00 0. -1.
<scales pt_clust_5="13000.00000" pt_clust_6="13000.00000" pt_clust_7="13000.00000" pt_clust_8="13000.00000" pt_clust_9="70.00700"></scales>
<clustering>
<clus scale="   70.007">  2  9  1 -1</clus>
<clus scale="   80.563">  5  6 -1 -1</clus>
<clus scale="   80.719">  1  5  2 -1</clus>
<clus scale="   91.370">  7  8 -1 -1</clus>
<clus scale="   70.007">  2  5  1 -1</clus>
</clustering>
</event>
<event>
 9    2  0.5615294E-005  0.1025624E+03  0.7546771E-02  0.1280832E+00
          2   -1    0    0  502    0 -0.00000000000E+00  0.00000000000E+00  0.12198769342E+03  0.12198769342E+03  0.00000000000E+00 0. -1.
         21   -1    0    0  501  502  0.00000000000E+00 -0.00000000000E+00 -0.11721334259E+03  0.11721334259E+03  0.00000000000E+00 0.  1.
         24    2    1    2    0    0  0.71705586381E+01  0.39563866524E+02  0.27134811666E+02  0.93676874568E+02  0.80139518211E+02 0.  0.
         23    2    1    2    0    0  0.20942615558E+02 -0.52824507693E+02 -0.21134937162E+01  0.10842786991E+03  0.92320714670E+02 0.  0.
        -13    1    3    3    0    0  0.11893800121E+02  0.42432246696E+02 -0.18438602159E+02  0.47769656588E+02  0.00000000000E+00 0.  1.
         14    1    3    3    0    0 -0.47232414833E+01 -0.28683801719E+01  0.45573413825E+02  0.45907217980E+02  0.00000000000E+00 0. -1.
        -11    1    4    4    0    0  0.34348149349E+01 -0.77816231793E+02 -0.17464502906E+01  0.77911577912E+02  0.00000000000E+00 0.  1.
         11    1    4    4    0    0  0.17507800623E+02  0.24991724100E+02 -0.36704342559E+00  0.30516291993E+02  0.00000000000E+00 0. -1.
          1    1    1    2  501    0 -0.28113174196E+02  0.13260641169E+02 -0.20246967122E+02  0.37096291529E+02  0.00000000000E+00 0. -1.
<scales pt_clust_5="13000.00000" pt_clust_6="13000.00000" pt_clust_7="13000.00000" pt_clust_8="13000.00000" pt_clust_9="31.08368"></scales>
<clustering>
<clus scale="   31.084">  2  9  1 -1</clus>
<clus scale="   80.140">  5  6 -1 -1</clus>
<clus scale="   91.751">  1  5  2 -1</clus>
<clus scale="   92.321">  7  8 -1 -1</clus>
<clus scale="   31.084">  2  5  1 -1</clus>
</clustering>
</event>
<event>
 9    2  0.5615294E-005  0.1232075E+03  0.7546771E-02  0.1239061E+00
         21   -1    0    0  501  502  0.00000000000E+00  0.00000000000E+00  0.47280684579E+02  0.47280684579E+02  0.00000000000E+00 0.  1.
          2   -1    0    0  502    0 -0.00000000000E+00 -0.00000000000E+00 -0.42725108966E+03  0.42725108966E+03  0.00000000000E+00 0. -1.
         23    2    1    2    0    0  0.47887142139E+02 -0.52149621874E+02 -0.20675540954E+03  0.23749890909E+03  0.92979411709E+02 0.  0.
         24    2    1    2    0    0 -0.72440183030E+02  0.46294825029E+02 -0.16660570975E+03  0.21094046928E+03  0.96683132537E+02 0.  0.
        -13    1    4    4    0    0 -0.32951297502E+02  0.22879174448E+02 -0.21236293998E+01  0.40171562483E+02  0.00000000000E+00 0.  1.
         14    1    4    4    0    0 -0.39488885528E+02  0.23415650581E+02 -0.16448208035E+03  0.17076890680E+03  0.00000000000E+00 0. -1.
        -13    1    3    3    0    0  0.20248560087E+02  0.20224600467E+02 -0.18902290962E+02  0.34297744143E+02  0.00000000000E+00 0.  1.
         13    1    3    3    0    0  0.27638582051E+02 -0.72374222340E+02 -0.18785311858E+03  0.20320116495E+03  0.00000000000E+00 0. -1.
          1    1    1    2  501    0  0.24553040892E+02  0.58547968452E+01 -0.66092857831E+01  0.26092395860E+02  0.00000000000E+00 0. -1.
<scales pt_clust_5="13000.00000" pt_clust_6="13000.00000" pt_clust_7="13000.00000" pt_clust_8="13000.00000" pt_clust_9="25.24144"></scales>
<clustering>
<clus scale="   25.241">  1  9  2 -1</clus>
<clus scale="   92.979">  7  8 -1 -1</clus>
<clus scale="   96.683">  5  6 -1 -1</clus>
<clus scale="  120.323">  2  7  1 -1</clus>
<clus scale="   25.241">  1  5  2 -1</clus>
</clustering>
</event>
<event>
 9    2  0.5615294E-005  0.1176260E+03  0.7546771E-02  0.1252169E+00
         -1   -1    0    0    0  501 -0.00000000000E+00  0.00000000000E+00  0.39534242063E+02  0.39534242063E+02  0.00000000000E+00 0.  1.
         21   -1    0    0  501  502  0.00000000000E+00 -0.00000000000E+00 -0.49469992081E+03  0.49469992081E+03  0.00000000000E+00 0.  1.
         24    2    1    2    0    0 -0.77754673721E+02  0.23673586250E+02 -0.11285246701E+03  0.16002486723E+03  0.79158390898E+02 0.  0.
         23    2    1    2    0    0  0.92316099105E+02 -0.42326756544E+02 -0.32176714242E+03  0.34287055228E+03  0.60928689526E+02 0.  0.
        -13    1    3    3    0    0  0.89334523754E+01  0.22022256291E+02 -0.10773284692E+02  0.26093102662E+02  0.00000000000E+00 0.  1.
         14    1    3    3    0    0 -0.86688126096E+02  0.16513299592E+01 -0.10207918232E+03  0.13393176457E+03  0.00000000000E+00 0. -1.
        -13    1    4    4    0    0  0.40708781811E+02 -0.47774094736E+02 -0.13244175534E+03  0.14656189000E+03  0.00000000000E+00 0. -1.
         13    1    4    4    0    0  0.51607317294E+02  0.54473381920E+01 -0.18932538708E+03  0.19630866228E+03  0.00000000000E+00 0.  1.
         -2    1    1    2    0  502 -0.14561425384E+02  0.18653170294E+02 -0.20546069313E+02  0.31338743361E+02  0.00000000000E+00 0.  1.
<scales pt_clust_5="13000.00000" pt_clust_6="13000.00000" pt_clust_7="13000.00000" pt_clust_8="13000.00000" pt_clust_9="23.66382"></scales>
<clustering>
<clus scale="   23.664">  2  9  1 -1</clus>
<clus scale="   60.929">  7  8 -1 -1</clus>
<clus scale="   79.158">  5  6 -1 -1</clus>
<clus scale="  106.217">  2  7  1 -1</clus>
<clus scale="   23.664">  2  5  1 -1</clus>
</clustering>
</event>
<event>
 9    2  0.5615294E-005  0.9671884E+02  0.7546771E-02  0.1292038E+00
          2   -1    0    0  502    0 -0.00000000000E+00  0.00000000000E+00  0.29298074689E+03  0.29298074689E+03  0.00000000000E+00 0. -1.
         21   -1    0    0  501  502  0.00000000000E+00 -0.00000000000E+00 -0.13275792925E+03  0.13275792925E+03  0.00000000000E+00 0. -1.
         23    2    1    2    0    0 -0.33013614221E+02  0.44815278445E+01  0.15434851702E+03  0.18240503443E+03  0.91313465950E+02 0.  0.
         24    2    1    2    0    0  0.22315915656E+02  0.54961643616E+02 -0.86115071466E+02  0.13328830576E+03  0.82650980382E+02 0.  0.
        -13    1    4    4    0    0 -0.38160023336E+01  0.70886417167E+02 -0.56874980202E+02  0.90962681280E+02  0.00000000000E+00 0.  1.
         14    1    4    4    0    0  0.26131917989E+02 -0.15924773552E+02 -0.29240091264E+02  0.42325624479E+02  0.00000000000E+00 0. -1.
        -11    1    3    3    0    0 -0.11927880010E+02 -0.35295380534E+02  0.23549774696E+02  0.44075277614E+02  0.00000000000E+00 0.  1.
         11    1    3    3    0    0 -0.21085734212E+02  0.39776908378E+02  0.13079874233E+03  0.13832975682E+03  0.00000000000E+00 0. -1.
          1    1    1    2  501    0  0.10697698566E+02 -0.59443171460E+02  0.91989372078E+02  0.11004533594E+03  0.00000000000E+00 0. -1.
<scales pt_clust_5="13000.00000" pt_clust_6="13000.00000" pt_clust_7="13000.00000" pt_clust_8="13000.00000" pt_clust_9="60.39814"></scales>
<clustering>
<clus scale="   60.398">  2  9  1 -1</clus>
<clus scale="   82.651">  5  6 -1 -1</clus>
<clus scale="   88.587">  2  5  1 -1</clus>
<clus scale="   91.313">  7  8 -1 -1</clus>
<clus scale="   60.398">  2  5  1 -1</clus>
</clustering>
</event>
<event>
 9    2  0.5615294E-005  0.1145881E+03  0.7546771E-02  0.1255209E+00
         21   -1    0    0  501  502  0.00000000000E+00  0.00000000000E+00  0.26881936395E+02  0.26881936395E+02  0.00000000000E+00 0. -1.
          2   -1    0    0  502    0 -0.00000000000E+00 -0.00000000000E+00 -0.13776983505E+04  0.13776983505E+04  0.00000000000E+00 0. -1.
         24    2    1    2    0    0  0.71250142325E+02  0.60101588851E+02 -0.32746887025E+03  0.35000957700E+03  0.81129891213E+02 0.  0.
         23    2    1    2    0    0 -0.68664995541E+02  0.36148698109E+02 -0.26680198025E+03  0.29192269767E+03  0.89520694622E+02 0.  0.
        -11    1    3    3    0    0  0.19437351525E+02 -0.13408806230E+02 -0.24724796834E+02  0.34189505660E+02  0.00000000000E+00 0.  1.
         12    1    3    3    0    0  0.51812790801E+02  0.73510395081E+02 -0.30274407341E+03  0.31582007134E+03  0.00000000000E+00 0. -1.
        -13    1    4    4    0    0 -0.26090269791E+02  0.62900953968E+02 -0.14774565558E+03  0.16268377586E+03  0.00000000000E+00 0. -1.
         13    1    4    4    0    0 -0.42574725749E+02 -0.26752255859E+02 -0.11905632467E+03  0.12923892181E+03  0.00000000000E+00 0.  1.
          1    1    1    2  501    0 -0.25851467847E+01 -0.96250286960E+02 -0.75654556357E+03  0.76264801218E+03  0.00000000000E+00 0. -1.
<scales pt_clust_5="13000.00000" pt_clust_6="13000.00000" pt_clust_7="13000.00000" pt_clust_8="13000.00000" pt_clust_9="96.28505"></scales>
<clustering>
<clus scale="   81.130">  5  6 -1 -1</clus>
<clus scale="   89.521">  7  8 -1 -1</clus>
<clus scale="   96.285">  1  9  2 -1</clus>
<clus scale="  108.160">  2  5  1 -1</clus>
<clus scale="   96.285">  1  5  2 -1</clus>
</clustering>
</event>
<event>
 9    2  0.5615294E-005  0.1502440E+03  0.7546771E-02  0.1202217E+00
          2   -1    0    0  502    0 -0.00000000000E+00  0.00000000000E+00  0.74743565222E+03  0.74743565222E+03  0.00000000000E+00 0. -1.
         21   -1    0    0  501  502  0.00000000000E+00 -0.00000000000E+00 -0.55270458578E+02  0.55270458578E+02  0.00000000000E+00 0.  1.
         24    2    1    2    0    0  0.11071234126E+03 -0.36717925454E+02  0.52616719946E+03  0.54474196409E+03  0.79287181137E+02 0.  0.
         23    2    1    2    0    0 -0.11822330483E+03  0.58373091661E+02  0.17137376626E+03  0.23442142548E+03  0.90555338487E+02 0.  0.
        -11    1    3    3    0    0  0.49013333649E+02  0.22948232660E+02  0.17147500324E+03  0.17981269420E+03  0.00000000000E+00 0.  1.
         12    1    3    3    0    0  0.61699007610E+02 -0.59666158113E+02  0.35469219622E+03  0.36492926989E+03  0.00000000000E+00 0. -1.
        -11    1    4    4    0    0 -0.79176432337E+02  0.77723718678E+02  0.93108599020E+02  0.14484162073E+03  0.00000000000E+00 0.  1.
         11    1    4    4    0    0 -0.39046872491E+02 -0.19350627017E+02  0.78265167240E+02  0.89579804757E+02  0.00000000000E+00 0. -1.
          1    1    1    2  501    0  0.75109635690E+01 -0.21655166208E+02 -0.53757720813E+01  0.23542721225E+02  0.00000000000E+00 0. -1.
<scales pt_clust_5="13000.00000" pt_clust_6="13000.00000" pt_clust_7="13000.00000" pt_clust_8="13000.00000" pt_clust_9="22.92075"></scales>
<clustering>
<clus scale="   22.921">  2  9  1 -1</clus>
<clus scale="   79.287">  5  6 -1 -1</clus>
<clus scale="   90.555">  7  8 -1 -1</clus>
<clus scale="  143.734">  1  5  2 -1</clus>
<clus scale="   22.921">  2  5  1 -1</clus>
</clustering>
</event>
<event>
 9    2  0.5615294E-005  0.1318421E+03  0.7546771E-02  0.1225937E+00
         21   -1    0    0  501  502  0.00000000000E+00  0.00000000000E+00  0.14844094538E+03  0.14844094538E+03  0.00000000000E+00 0.  1.
          2   -1    0    0  502    0 -0.00000000000E+00 -0.00000000000E+00 -0.18109957407E+03  0.18109957407E+03  0.00000000000E+00 0. -1.
         23    2    1    2    0    0  0.83947233354E+02 -0.77599945297E+02 -0.54515058662E+02  0.15009048179E+03  0.80538013424E+02 0.  0.
         24    2    1    2    0    0 -0.50664931513E+02  0.69971916128E+02 -0.22295564743E+02  0.12363519122E+03  0.85589508517E+02 0.  0.
        -13    1    4    4    0    0 -0.26585318996E+02  0.47681840992E+02  0.29702507126E+02  0.62149626516E+02  0.00000000000E+00 0.  1.
         14    1    4    4    0    0 -0.24079612517E+02  0.22290075136E+02 -0.51998071869E+02  0.61485564701E+02  0.00000000000E+00 0. -1.
        -13    1    3    3    0    0  0.38489359998E+02 -0.82018307168E+02 -0.51741711812E+02  0.10433426228E+03  0.00000000000E+00 0. -1.
         13    1    3    3    0    0  0.45457873356E+02  0.44183618710E+01 -0.27733468506E+01  0.45756219517E+02  0.00000000000E+00 0.  1.
          1    1    1    2  501    0 -0.33282301841E+02  0.76280291696E+01  0.44151994721E+02  0.55814846436E+02  0.00000000000E+00 0. -1.
<scales pt_clust_5="13000.00000" pt_clust_6="13000.00000" pt_clust_7="13000.00000" pt_clust_8="13000.00000" pt_clust_9="34.14526"></scales>
<clustering>
<clus scale="   34.145">  1  9  2 -1</clus>
<clus scale="   80.538">  7  8 -1 -1</clus>
<clus scale="   85.590">  5  6 -1 -1</clus>
<clus scale="  128.620">  2  7  1 -1</clus>
<clus scale="   34.145">  1  5  2 -1</clus>
</clustering>
</event>
<event>
 9    2  0.5615294E-005  0.9471549E+02  0.7546771E-02  0.1291926E+00
          2   -1    0    0  502    0 -0.00000000000E+00  0.00000000000E+00  0.15929002921E+03  0.15929002921E+03  0.00000000000E+00 0. -1.
         21   -1    0    0  501  502  0.00000000000E+00 -0.00000000000E+00 -0.33498135932E+03  0.33498135932E+03  0.00000000000E+00 0. -1.
         24    2    1    2    0    0  0.30169299037E+02  0.64211505065E+01  0.12498507006E+03  0.15765503204E+03  0.91007821707E+02 0.  0.
         23    2    1    2    0    0  0.11565737622E+02  0.11237410889E+02 -0.12594685857E+03  0.15610582830E+03  0.90809541102E+02 0.  0.
        -11    1    3    3    0    0 -0.27133931616E+02 -0.17004497718E+02  0.27683929406E+02  0.42329695663E+02  0.00000000000E+00 0.  1.
         12    1    3    3    0    0  0.57303230653E+02  0.23425648225E+02  0.97301140659E+02  0.11532533638E+03  0.00000000000E+00 0. -1.
        -13    1    4    4    0    0  0.25693368501E+02  0.45328843771E+02 -0.93164537507E+02  0.10674494982E+03  0.00000000000E+00 0. -1.
         13    1    4    4    0    0 -0.14127630879E+02 -0.34091432882E+02 -0.32782321060E+02  0.49360878480E+02  0.00000000000E+00 0.  1.
          1    1    1    2  501    0 -0.41735036659E+02 -0.17658561396E+02 -0.17472954161E+03  0.18051052819E+03  0.00000000000E+00 0. -1.
<scales pt_clust_5="13000.00000" pt_clust_6="13000.00000" pt_clust_7="13000.00000" pt_clust_8="13000.00000" pt_clust_9="45.31708"></scales>
<clustering>
<clus scale="   45.317">  2  9  1 -1</clus>
<clus scale="   90.810">  7  8 -1 -1</clus>
<clus scale="   91.008">  5  6 -1 -1</clus>
<clus scale="   94.525">  2  7  1 -1</clus>
<clus scale="   45.317">  2  5  1 -1</clus>
</clustering>
</event>
<event>
 9    2  0.5615294E-005  0.1470010E+03  0.7546771E-02  0.1206489E+00
         21   -1    0    0  501  502  0.00000000000E+00  0.00000000000E+00  0.12667009149E+03  0.12667009149E+03  0.00000000000E+00 0.  1.
         -1   -1    0    0    0  501 -0.00000000000E+00 -0.00000000000E+00 -0.92874373158E+03  0.92874373158E+03  0.00000000000E+00 0.  1.
         24    2    1    2    0    0  0.76742940386E+01 -0.11212920197E+03 -0.51383898531E+03  0.53193268335E+03  0.79309671936E+02 0.  0.
         23    2    1    2    0    0 -0.21540217167E+02  0.15177002538E+03  0.47948581227E+02  0.18468499618E+03  0.91166659534E+02 0.  0.
        -11    1    3    3    0    0 -0.10665035682E+02 -0.11216022227E+03 -0.36567552932E+03  0.38263853856E+03  0.00000000000E+00 0.  1.
         12    1    3    3    0    0  0.18339329720E+02  0.31020300590E-01 -0.14816345599E+03  0.14929414478E+03  0.00000000000E+00 0. -1.
        -11    1    4    4    0    0 -0.29891893427E+02  0.33767364260E+02  0.48715139426E+02  0.66384674369E+02  0.00000000000E+00 0. -1.
         11    1    4    4    0    0  0.83516762599E+01  0.11800266112E+03 -0.76655819870E+00  0.11830032181E+03  0.00000000000E+00 0.  1.
         -2    1    1    2    0  502  0.13865923128E+02 -0.39640823408E+02 -0.33618323601E+03  0.33879614354E+03  0.00000000000E+00 0.  1.
<scales pt_clust_5="13000.00000" pt_clust_6="13000.00000" pt_clust_7="13000.00000" pt_clust_8="13000.00000" pt_clust_9="41.99596"></scales>
<clustering>
<clus scale="   41.996">  1  9  2 -1</clus>
<clus scale="   79.310">  5  6 -1 -1</clus>
<clus scale="   91.167">  7  8 -1 -1</clus>
<clus scale="  139.957">  2  5  1 -1</clus>
<clus scale="   41.996">  1  5  2 -1</clus>
</clustering>
</event>
<event>
 9    2  0.5615294E-005  0.1288348E+03  0.7546771E-02  0.1231992E+00
          2   -1    0    0  502    0 -0.00000000000E+00  0.00000000000E+00  0.40431432248E+03  0.40431432248E+03  0.00000000000E+00 0. -1.
         21   -1    0    0  501  502  0.00000000000E+00 -0.00000000000E+00 -0.27743587416E+03  0.27743587416E+03  0.00000000000E+00 0. -1.
         24    2    1    2    0    0  0.37041382878E+02 -0.88559676588E+02  0.35141748753E+03  0.37299715971E+03  0.80110862256E+02 0.  0.
         23    2    1    2    0    0  0.15917452484E+01  0.63951570828E+02 -0.39002408813E+02  0.11764594998E+03  0.90703057224E+02 0.  0.
        -11    1    3    3    0    0  0.50340706772E+02 -0.74092091715E+02  0.18631808523E+03  0.20673232378E+03  0.00000000000E+00 0.  1.
         12    1    3    3    0    0 -0.13299323894E+02 -0.14467584873E+02  0.16509940230E+03  0.16626483593E+03  0.00000000000E+00 0. -1.
        -13    1    4    4    0    0  0.36586369287E+02  0.53234173104E+02 -0.60082522691E+00  0.64597218165E+02  0.00000000000E+00 0. -1.
         13    1    4    4    0    0 -0.34994624038E+02  0.10717397724E+02 -0.38401583586E+02  0.53048731818E+02  0.00000000000E+00 0.  1.
          1    1    1    2  501    0 -0.38633128127E+02  0.24608105760E+02 -0.18553663040E+03  0.19110708694E+03  0.00000000000E+00 0. -1.
<scales pt_clust_5="13000.00000" pt_clust_6="13000.00000" pt_clust_7="13000.00000" pt_clust_8="13000.00000" pt_clust_9="45.80478"></scales>
<clustering>
<clus scale="   45.805">  2  9  1 -1</clus>
<clus scale="   80.111">  5  6 -1 -1</clus>
<clus scale="   90.703">  7  8 -1 -1</clus>
<clus scale="  121.611">  1  5  2 -1</clus>
<clus scale="   45.805">  2  5  1 -1</clus>
</clustering>
</event>
<event>
 9    2  0.5615294E-005  0.1055235E+03  0.7546771E-02  0.1273335E+00
          2   -1    0    0  502    0 -0.00000000000E+00  0.00000000000E+00  0.23561502191E+03  0.23561502191E+03  0.00000000000E+00 0. -1.
         21   -1    0    0  501  502  0.00000000000E+00 -0.00000000000E+00 -0.15264752365E+03  0.15264752365E+03  0.00000000000E+00 0. -1.
         24    2    1    2    0    0 -0.18407675623E+02  0.42565423038E+02  0.12095328966E+03  0.15246869123E+03  0.80413591936E+02 0.  0.
         23    2    1    2    0    0  0.10154536956E+03 -0.58667228322E+02 -0.26219253404E+02  0.15029768070E+03  0.90269805678E+02 0.  0.
        -13    1    3    3    0    0  0.16863762194E+02  0.46475891716E+02  0.38369218438E+02  0.62582680589E+02  0.00000000000E+00 0.  1.
         14    1    3    3    0    0 -0.35271437817E+02 -0.39104686784E+01  0.82584071217E+02  0.89886010645E+02  0.00000000000E+00 0. -1.
        -11    1    4    4    0    0  0.43800392422E+02 -0.27919609749E+01  0.29174815802E+02  0.52701416485E+02  0.00000000000E+00 0. -1.
         11    1    4    4    0    0  0.57744977140E+02 -0.55875267347E+02 -0.55394069207E+02  0.97596264217E+02  0.00000000000E+00 0.  1.
          1    1    1    2  501    0 -0.83137693939E+02  0.16101805284E+02 -0.11766537988E+02  0.85496173617E+02  0.00000000000E+00 0. -1.
<scales pt_clust_5="13000.00000" pt_clust_6="13000.00000" pt_clust_7="13000.00000" pt_clust_8="13000.00000" pt_clust_9="84.68261"></scales>
<clustering>
<clus scale="   80.414">  5  6 -1 -1</clus>
<clus scale="   84.683">  2  9  1 -1</clus>
<clus scale="   90.270">  7  8 -1 -1</clus>
<clus scale="   97.226">  1  5  2 -1</clus>
<clus scale="   84.683">  2  5  1 -1</clus>
</clustering>
</event>
<event>
 9    2  0.5615294E-005  0.1152423E+03  0.7546771E-02  0.1254289E+00
         -3   -1    0    0    0  501 -0.00000000000E+00  0.00000000000E+00  0.42983194563E+03  0.42983194563E+03  0.00000000000E+00 0.  1.
         21   -1    0    0  501  502  0.00000000000E+00 -0.00000000000E+00 -0.49044497605E+02  0.49044497605E+02  0.00000000000E+00 0.  1.
         23    2    1    2    0    0 -0.10681153468E+02 -0.55171101686E+02  0.15662455957E+03  0.19036984936E+03  0.92474263374E+02 0.  0.
         24    2    1    2    0    0  0.55819209501E+02  0.64209998942E+02  0.20786405954E+03  0.23967220445E+03  0.83645622861E+02 0.  0.
        -13    1    4    4    0    0  0.75280648331E+02  0.65137879927E+02  0.16744587239E+03  0.19480307901E+03  0.00000000000E+00 0.  1.
         14    1    4    4    0    0 -0.19461438830E+02 -0.92788098519E+00  0.40418187155E+02  0.44869125435E+02  0.00000000000E+00 0. -1.
        -11    1    3    3    0    0  0.11320307429E+02 -0.76596660959E+02  0.11521450556E+03  0.13881491318E+03  0.00000000000E+00 0.  1.
         11    1    3    3    0    0 -0.22001460898E+02  0.21425559273E+02  0.41410054007E+02  0.51554936181E+02  0.00000000000E+00 0. -1.
         -4    1    1    2    0  502 -0.45138056033E+02 -0.90388972557E+01  0.16298828915E+02  0.48834389420E+02  0.00000000000E+00 0.  1.
<scales pt_clust_5="13000.00000" pt_clust_6="13000.00000" pt_clust_7="13000.00000" pt_clust_8="13000.00000" pt_clust_9="46.03418"></scales>
<clustering>
<clus scale="   46.034">  2  9  1 -1</clus>
<clus scale="   83.646">  5  6 -1 -1</clus>
<clus scale="   92.474">  7  8 -1 -1</clus>
<clus scale="  108.286">  2  5  1 -1</clus>
<clus scale="   46.034">  2  5  1 -1</clus>
</clustering>
</event>
<event>
 9    2  0.5615294E-005  0.9693737E+02  0.7546771E-02  0.1291264E+00
         21   -1    0    0  501  502  0.00000000000E+00  0.00000000000E+00  0.52289663486E+03  0.52289663486E+03  0.00000000000E+00 0.  1.
         -3   -1    0    0    0  501 -0.00000000000E+00 -0.00000000000E+00 -0.42432318819E+02  0.42432318819E+02  0.00000000000E+00 0.  1.
         24    2    1    2    0    0 -0.96885642850E+01  0.43650884185E+02  0.59878175075E+02  0.11126720688E+03  0.82436202651E+02 0.  0.
         23    2    1    2    0    0 -0.29324392364E+02 -0.16145515144E+02  0.14431524287E+03  0.17369740306E+03  0.90682417568E+02 0.  0.
        -13    1    3    3    0    0 -0.12264546730E+01  0.44704494657E+02 -0.57481144976E+01  0.45089209949E+02  0.00000000000E+00 0.  1.
         14    1    3    3    0    0 -0.84621096120E+01 -0.10536104713E+01  0.65626289573E+02  0.66177996927E+02  0.00000000000E+00 0. -1.
        -13    1    4    4    0    0 -0.19163436231E+02  0.72588380401E+01 -0.59048002527E+01  0.21325915781E+02  0.00000000000E+00 0. -1.
         13    1    4    4    0    0 -0.10160956132E+02 -0.23404353184E+02  0.15022004313E+03  0.15237148727E+03  0.00000000000E+00 0.  1.
         -4    1    1    2    0  502  0.39012956648E+02 -0.27505369042E+02  0.27627089809E+03  0.28036434375E+03  0.00000000000E+00 0.  1.
<scales pt_clust_5="13000.00000" pt_clust_6="13000.00000" pt_clust_7="13000.00000" pt_clust_8="13000.00000" pt_clust_9="47.73422"></scales>
<clustering>
<clus scale="   47.734">  1  9  2 -1</clus>
<clus scale="   82.436">  5  6 -1 -1</clus>
<clus scale="   89.271">  2  5  1 -1</clus>
<clus scale="   90.682">  7  8 -1 -1</clus>
<clus scale="   47.734">  1  5  2 -1</clus>
</clustering>
</event>
<event>
 9    2  0.5615294E-005  0.1108176E+03  0.7546771E-02  0.1262648E+00
         21   -1    0    0  501  502  0.00000000000E+00  0.00000000000E+00  0.78187342335E+02  0.78187342335E+02  0.00000000000E+00 0. -1.
          2   -1    0    0  502    0 -0.00000000000E+00 -0.00000000000E+00 -0.27202239883E+03  0.27202239883E+03  0.00000000000E+00 0. -1.
         24    2    1    2    0    0 -0.71766613748E+02 -0.39553621733E+01 -0.18300915364E+03  0.21299385329E+03  0.81902011474E+02 0.  0.
         23    2    1    2    0    0  0.37017657039E+02 -0.10260976742E+02 -0.11698352172E+02  0.99661188405E+02  0.91213521226E+02 0.  0.
        -13    1    3    3    0    0  0.10606050111E+02  0.18987450458E+02 -0.23559339487E+02  0.32063281973E+02  0.00000000000E+00 0.  1.
         14    1    3    3    0    0 -0.82372663859E+02 -0.22942812631E+02 -0.15944981416E+03  0.18093057132E+03  0.00000000000E+00 0. -1.
        -11    1    4    4    0    0  0.47167176781E+02 -0.28443205560E+02  0.22600594600E+02  0.59536084724E+02  0.00000000000E+00 0. -1.
         11    1    4    4    0    0 -0.10149519742E+02  0.18182228818E+02 -0.34298946772E+02  0.40125103681E+02  0.00000000000E+00 0.  1.
          1    1    1    2  501    0  0.34748956709E+02  0.14216338915E+02  0.87244931894E+00  0.37554699471E+02  0.00000000000E+00 0. -1.
<scales pt_clust_5="13000.00000" pt_clust_6="13000.00000" pt_clust_7="13000.00000" pt_clust_8="13000.00000" pt_clust_9="37.54456"></scales>
<clustering>
<clus scale="   37.545">  1  9  2 -1</clus>
<clus scale="   81.902">  5  6 -1 -1</clus>
<clus scale="   91.214">  7  8 -1 -1</clus>
<clus scale="  103.289">  2  5  1 -1</clus>
<clus scale="   37.545">  1  5  2 -1</clus>
</clustering>
</event>
<event>
 9    2  0.5615294E-005  0.9442423E+02  0.7546771E-02  0.1298131E+00
          2   -1    0    0  502    0 -0.00000000000E+00  0.00000000000E+00  0.47538895602E+02  0.47538895602E+02  0.00000000000E+00 0. -1.
         21   -1    0    0  501  502  0.00000000000E+00 -0.00000000000E+00 -0.49810201189E+03  0.49810201189E+03  0.00000000000E+00 0.  1.
         23    2    1    2    0    0 -0.25568266951E+02  0.75231824476E+01 -0.33368109055E+02  0.10092747769E+03  0.91447200620E+02 0.  0.
         24    2    1    2    0    0 -0.99704392415E+01 -0.38507026239E+02 -0.35627531154E+03  0.36767962205E+03  0.81694590577E+02 0.  0.
        -13    1    4    4    0    0  0.35107802248E+02 -0.10683750143E+02 -0.11743703206E+03  0.12303721711E+03  0.00000000000E+00 0.  1.
         14    1    4    4    0    0 -0.45078241489E+02 -0.27823276096E+02 -0.23883827948E+03  0.24464240494E+03  0.00000000000E+00 0. -1.
        -13    1    3    3    0    0 -0.43765114328E+02 -0.29481291531E+02 -0.26755430642E+02  0.59164050329E+02  0.00000000000E+00 0.  1.
         13    1    3    3    0    0  0.18196847376E+02  0.37004473979E+02 -0.66126784130E+01  0.41763427358E+02  0.00000000000E+00 0. -1.
          1    1    1    2  501    0  0.35538706193E+02  0.30983843791E+02 -0.60919695696E+02  0.77033807758E+02  0.00000000000E+00 0. -1.
<scales pt_clust_5="13000.00000" pt_clust_6="13000.00000" pt_clust_7="13000.00000" pt_clust_8="13000.00000" pt_clust_9="47.14871"></scales>
<clustering>
<clus scale="   47.149">  2  9  1 -1</clus>
<clus scale="   81.695">  5  6 -1 -1</clus>
<clus scale="   85.014">  2  5  1 -1</clus>
<clus scale="   91.447">  7  8 -1 -1</clus>
<clus scale="   47.149">  2  5  1 -1</clus>
</clustering>
</event>
<event>
 9    2  0.5615294E-005  0.1792703E+03  0.7546771E-02  0.1191720E+00
         21   -1    0    0  501  502  0.00000000000E+00  0.00000000000E+00  0.61253605665E+03  0.61253605665E+03  0.00000000000E+00 0. -1.
          2   -1    0    0  502    0 -0.00000000000E+00 -0.00000000000E+00 -0.99907324502E+02  0.99907324502E+02  0.00000000000E+00 0. -1.
         23    2    1    2    0    0 -0.57387940712E+02 -0.12874537148E+02  0.39362716938E+02  0.11345195194E+03  0.88672388425E+02 0.  0.
         24    2    1    2    0    0  0.41597465538E+02 -0.14954634469E+03  0.13029716067E+03  0.21917895292E+03  0.83472180834E+02 0.  0.
        -13    1    4    4    0    0 -0.24343495844E+02 -0.27304341093E+02  0.19158590508E+02  0.41293878755E+02  0.00000000000E+00 0.  1.
         14    1    4    4    0    0  0.65940961382E+02 -0.12224200360E+03  0.11113857016E+03  0.17788507416E+03  0.00000000000E+00 0. -1.
        -13    1    3    3    0    0  0.45611357817E+01 -0.28110140181E+02  0.40663313476E+02  0.49643619967E+02  0.00000000000E+00 0.  1.
         13    1    3    3    0    0 -0.61949076493E+02  0.15235603033E+02 -0.13005965382E+01  0.63808331975E+02  0.00000000000E+00 0. -1.
          1    1    1    2  501    0  0.15790475173E+02  0.16242088184E+03  0.34296885454E+03  0.37981247630E+03  0.00000000000E+00 0. -1.
<scales pt_clust_5="13000.00000" pt_clust_6="13000.00000" pt_clust_7="13000.00000" pt_clust_8="13000.00000" pt_clust_9="158.65134"></scales>
<clustering>
<clus scale="   83.472">  5  6 -1 -1</clus>
<clus scale="   88.672">  7  8 -1 -1</clus>
<clus scale="  106.405">  2  7  1 -1</clus>
<clus scale="  158.651">  1  9  2 -1</clus>
<clus scale="  158.651">  1  5  2 -1</clus>
</clustering>
</event>
<event>
 9    2  0.5615294E-005  0.1083105E+03  0.7546771E-02  0.1265102E+00
          4   -1    0    0  502    0 -0.00000000000E+00  0.00000000000E+00  0.19925029259E+03  0.19925029259E+03  0.00000000000E+00 0. -1.
         21   -1    0    0  501  502  0.00000000000E+00 -0.00000000000E+00 -0.26952485120E+03  0.26952485120E+03  0.00000000000E+00 0. -1.
         23    2    1    2    0    0  0.43279597622E+01  0.66229216628E+02  0.11314876346E+03  0.15926601732E+03  0.90321543541E+02 0.  0.
         24    2    1    2    0    0  0.92667880886E+02 -0.24856069289E+02 -0.42823294314E+02  0.13375845584E+03  0.82778799487E+02 0.  0.
        -11    1    4    4    0    0  0.18137340612E+01 -0.31204115794E+02 -0.27030823073E+02  0.41323744624E+02  0.00000000000E+00 0.  1.
         12    1    4    4    0    0  0.90854146825E+02  0.63480465052E+01 -0.15792471240E+02  0.92434711216E+02  0.00000000000E+00 0. -1.
        -13    1    3    3    0    0  0.43925205568E+02  0.32424247825E+02  0.82256616798E+02  0.98726422696E+02  0.00000000000E+00 0.  1.
         13    1    3    3    0    0 -0.39597245806E+02  0.33804968803E+02  0.30892146664E+02  0.60539594619E+02  0.00000000000E+00 0. -1.
          3    1    1    2  501    0 -0.96995840648E+02 -0.41373147339E+02 -0.14060002776E+03  0.17575067064E+03  0.00000000000E+00 0. -1.
<scales pt_clust_5="13000.00000" pt_clust_6="13000.00000" pt_clust_7="13000.00000" pt_clust_8="13000.00000" pt_clust_9="105.45108"></scales>
<clustering>
<clus scale="   82.779">  5  6 -1 -1</clus>
<clus scale="   90.322">  7  8 -1 -1</clus>
<clus scale="  105.451">  2  9  1 -1</clus>
<clus scale="  105.451">  2  5  1 -1</clus>
<clus scale="  105.451">  2  5  1 -1</clus>
</clustering>
</event>
<event>
 9    2  0.5615294E-005  0.2022637E+03  0.7546771E-02  0.1174808E+00
         21   -1    0    0  501  502  0.00000000000E+00  0.00000000000E+00  0.52922013872E+02  0.52922013872E+02  0.00000000000E+00 0. -1.
          2   -1    0    0  502    0 -0.00000000000E+00 -0.00000000000E+00 -0.13053721945E+04  0.13053721945E+04  0.00000000000E+00 0. -1.
         24    2    1    2    0    0  0.34505030285E+02 -0.63903773696E+02 -0.48480560961E+03  0.49671583522E+03  0.80099016518E+02 0.  0.
         23    2    1    2    0    0  0.12492113158E+03 -0.67551375244E+02 -0.46510790336E+03  0.49521026242E+03  0.93484570019E+02 0.  0.
        -11    1    3    3    0    0 -0.50098276133E+01 -0.25803420480E+02 -0.36048124512E+02  0.44613699264E+02  0.00000000000E+00 0.  1.
         12    1    3    3    0    0  0.39514857898E+02 -0.38100353216E+02 -0.44875748509E+03  0.45210213596E+03  0.00000000000E+00 0. -1.
        -11    1    4    4    0    0  0.41679736200E+02 -0.65798032533E+02 -0.30450247603E+03  0.31430612372E+03  0.00000000000E+00 0. -1.
         11    1    4    4    0    0  0.83241395381E+02 -0.17533427106E+01 -0.16060542732E+03  0.18090413871E+03  0.00000000000E+00 0.  1.
          1    1    1    2  501    0 -0.15942616187E+03  0.13145514894E+03 -0.30253666762E+03  0.36636811068E+03  0.00000000000E+00 0. -1.
<scales pt_clust_5="13000.00000" pt_clust_6="13000.00000" pt_clust_7="13000.00000" pt_clust_8="13000.00000" pt_clust_9="179.36344"></scales>
<clustering>
<clus scale="   80.099">  5  6 -1 -1</clus>
<clus scale="   93.485">  7  8 -1 -1</clus>
<clus scale="  108.121">  2  5  1 -1</clus>
<clus scale="  179.363">  1  9  2 -1</clus>
<clus scale="  179.363">  1  5  2 -1</clus>
</clustering>
</event>
<event>
 9    2  0.5615294E-005  0.1232932E+03  0.7546771E-02  0.1251617E+00
         -1   -1    0    0    0  501 -0.00000000000E+00  0.00000000000E+00  0.26281680124E+03  0.26281680124E+03  0.00000000000E+00 0.  1.
         21   -1    0    0  501  502  0.00000000000E+00 -0.00000000000E+00 -0.23801592392E+03  0.23801592392E+03  0.00000000000E+00 0. -1.
         24    2    1    2    0    0  0.38782328879E+02 -0.29170064637E+02  0.10202480014E+03  0.13822135536E+03  0.79631159292E+02 0.  0.
         23    2    1    2    0    0  0.76781495429E+02 -0.12955062350E+02 -0.17053463383E+03  0.20822091477E+03  0.90612672041E+02 0.  0.
        -11    1    3    3    0    0  0.35869429809E+01 -0.51278888496E+02  0.61750136502E+02  0.80345939060E+02  0.00000000000E+00 0.  1.
         12    1    3    3    0    0  0.35195385899E+02  0.22108823859E+02  0.40274663641E+02  0.57875416304E+02  0.00000000000E+00 0. -1.
        -13    1    4    4    0    0  0.10036435903E+02  0.19923163179E+02 -0.16037893977E+00  0.22308926422E+02  0.00000000000E+00 0.  1.
         13    1    4    4    0    0  0.66745059526E+02 -0.32878225529E+02 -0.17037425489E+03  0.18591198835E+03  0.00000000000E+00 0. -1.
         -2    1    1    2    0  502 -0.11556382431E+03  0.42125126987E+02  0.93310711010E+02  0.15439045502E+03  0.00000000000E+00 0.  1.
<scales pt_clust_5="13000.00000" pt_clust_6="13000.00000" pt_clust_7="13000.00000" pt_clust_8="13000.00000" pt_clust_9="83.60955"></scales>
<clustering>
<clus scale="   79.631">  5  6 -1 -1</clus>
<clus scale="   90.613">  7  8 -1 -1</clus>
<clus scale="   93.253">  1  5  2 -1</clus>
<clus scale="   83.610">  2  9  1 -1</clus>
<clus scale="   83.610">  2  5  1 -1</clus>
</clustering>
</event>
<event>
 9    2  0.5615294E-005  0.1173490E+03  0.7546771E-02  0.1250698E+00
          2   -1    0    0  502    0 -0.00000000000E+00  0.00000000000E+00  0.29574186036E+03  0.29574186036E+03  0.00000000000E+00 0. -1.
         21   -1    0    0  501  502  0.00000000000E+00 -0.00000000000E+00 -0.81521509104E+02  0.81521509104E+02  0.00000000000E+00 0.  1.
         23    2    1    2    0    0  0.35744405816E+02  0.64402803945E+02  0.50031909105E+02  0.12676886596E+03  0.90231755742E+02 0.  0.
         24    2    1    2    0    0  0.38504519349E+01 -0.82333696989E+02  0.45278684789E+02  0.12388960597E+03  0.80652411805E+02 0.  0.
        -13    1    4    4    0    0 -0.36265113221E+01 -0.73520135648E+02 -0.35662542929E+01  0.73695862162E+02  0.00000000000E+00 0.  1.
         14    1    4    4    0    0  0.74769632571E+01 -0.88135613413E+01  0.48844939082E+02  0.50193743803E+02  0.00000000000E+00 0. -1.
        -13    1    3    3    0    0  0.37911944368E+02 -0.12202749769E+02  0.18060423107E+02  0.43731013143E+02  0.00000000000E+00 0.  1.
         13    1    3    3    0    0 -0.21675385513E+01  0.76605553714E+02  0.31971485998E+02  0.83037852815E+02  0.00000000000E+00 0. -1.
          1    1    1    2  501    0 -0.39594857751E+02  0.17930893045E+02  0.11890975736E+03  0.12660489754E+03  0.00000000000E+00 0. -1.
<scales pt_clust_5="13000.00000" pt_clust_6="13000.00000" pt_clust_7="13000.00000" pt_clust_8="13000.00000" pt_clust_9="43.46575"></scales>
<clustering>
<clus scale="   43.466">  2  9  1 -1</clus>
<clus scale="   80.652">  5  6 -1 -1</clus>
<clus scale="   90.232">  7  8 -1 -1</clus>
<clus scale="  110.154">  2  5  1 -1</clus>
<clus scale="   43.466">  2  5  1 -1</clus>
</clustering>
</event>
<event>
 9    2  0.5615294E-005  0.2213745E+03  0.7546771E-02  0.1137309E+00
         21   -1    0    0  501  502  0.00000000000E+00  0.00000000000E+00  0.94472484049E+03  0.94472484049E+03  0.00000000000E+00 0. -1.
          2   -1    0    0  502    0 -0.00000000000E+00 -0.00000000000E+00 -0.98490040804E+02  0.98490040804E+02  0.00000000000E+00 0. -1.
         23    2    1    2    0    0  0.18234580840E+03  0.59057721944E+02  0.23125754340E+03  0.32600836112E+03  0.12674222571E+03 0.  0.
         24    2    1    2    0    0 -0.17168825970E+03  0.32923500134E+02  0.59095771148E+03  0.62154531021E+03  0.80788244867E+02 0.  0.
        -13    1    4    4    0    0 -0.12351090726E+03 -0.14719899197E+02  0.40222813242E+03  0.42102148420E+03  0.00000000000E+00 0.  1.
         14    1    4    4    0    0 -0.48177352448E+02  0.47643399331E+02  0.18872957905E+03  0.20052382601E+03  0.00000000000E+00 0. -1.
        -11    1    3    3    0    0  0.46672661218E+02  0.52188857066E+02  0.15533560210E+03  0.17038533795E+03  0.00000000000E+00 0.  1.
         11    1    3    3    0    0  0.13567314718E+03  0.68688648781E+01  0.75921941297E+02  0.15562302317E+03  0.00000000000E+00 0. -1.
          1    1    1    2  501    0 -0.10657548693E+02 -0.91981222078E+02  0.24019544807E+02  0.95661209964E+02  0.00000000000E+00 0. -1.
<scales pt_clust_5="13000.00000" pt_clust_6="13000.00000" pt_clust_7="13000.00000" pt_clust_8="13000.00000" pt_clust_9="92.59664"></scales>
<clustering>
<clus scale="   80.788">  5  6 -1 -1</clus>
<clus scale="   92.597">  1  9  2 -1</clus>
<clus scale="  126.742">  7  8 -1 -1</clus>
<clus scale="  198.670">  1  5  2 -1</clus>
<clus scale="   92.597">  1  5  2 -1</clus>
</clustering>
</event>
<event>
 9    2  0.5615294E-005  0.1023980E+03  0.7546771E-02  0.1281530E+00
         21   -1    0    0  501  502  0.00000000000E+00  0.00000000000E+00  0.33617967975E+03  0.33617967975E+03  0.00000000000E+00 0.  1.
         -1   -1    0    0    0  501 -0.00000000000E+00 -0.00000000000E+00 -0.10269830869E+03  0.10269830869E+03  0.00000000000E+00 0.  1.
         24    2    1    2    0    0  0.29155510435E+02 -0.30105519569E+02 -0.49930178319E+02  0.10346149413E+03  0.80342217816E+02 0.  0.
         23    2    1    2    0    0 -0.28756142783E+01  0.57503438525E+02  0.10043672083E+03  0.14854470193E+03  0.93075662670E+02 0.  0.
        -11    1    3    3    0    0  0.42550704757E+02  0.13109112597E+02 -0.31831934826E+02  0.54732836426E+02  0.00000000000E+00 0.  1.
         12    1    3    3    0    0 -0.13395194323E+02 -0.43214632166E+02 -0.18098243493E+02  0.48728657705E+02  0.00000000000E+00 0. -1.
        -11    1    4    4    0    0  0.29941471906E+02  0.67726202020E+02  0.77691887675E+02  0.10732827955E+03  0.00000000000E+00 0.  1.
         11    1    4    4    0    0 -0.32817086184E+02 -0.10222763494E+02  0.22744833154E+02  0.41216422385E+02  0.00000000000E+00 0. -1.
         -2    1    1    2    0  502 -0.26279896156E+02 -0.27397918957E+02  0.18297482855E+03  0.18687179238E+03  0.00000000000E+00 0.  1.
<scales pt_clust_5="13000.00000" pt_clust_6="13000.00000" pt_clust_7="13000.00000" pt_clust_8="13000.00000" pt_clust_9="37.96418"></scales>
<clustering>
<clus scale="   37.964">  1  9  2 -1</clus>
<clus scale="   80.342">  5  6 -1 -1</clus>
<clus scale="   90.979">  2  5  1 -1</clus>
<clus scale="   93.076">  7  8 -1 -1</clus>
<clus scale="   37.964">  1  5  2 -1</clus>
</clustering>
</event>
<event>
 9    2  0.5615294E-005  0.1711413E+03  0.7546771E-02  0.1200189E+00
         21   -1    0    0  501  502  0.00000000000E+00  0.00000000000E+00  0.99701662736E+02  0.99701662736E+02  0.00000000000E+00 0. -1.
          2   -1    0    0  502    0 -0.00000000000E+00 -0.00000000000E+00 -0.59491083287E+03  0.59491083287E+03  0.00000000000E+00 0. -1.
         23    2    1    2    0    0  0.29405154311E+02 -0.30119507949E+02 -0.84664683569E+01  0.10197223736E+03  0.92492206414E+02 0.  0.
         24    2    1    2    0    0 -0.15338581418E+03 -0.39085504827E+02 -0.17212740387E+03  0.24746881751E+03  0.80982021465E+02 0.  0.
        -13    1    4    4    0    0 -0.18142067549E+02 -0.31476026908E+02 -0.13216991565E+02  0.38659588085E+02  0.00000000000E+00 0.  1.
         14    1    4    4    0    0 -0.13524374663E+03 -0.76094779189E+01 -0.15891041230E+03  0.20880922943E+03  0.00000000000E+00 0. -1.
        -11    1    3    3    0    0 -0.25580393545E+02  0.13355812206E+02  0.80445693660E+01  0.29957459003E+02  0.00000000000E+00 0.  1.
         11    1    3    3    0    0  0.54985547856E+02 -0.43475320155E+02 -0.16511037723E+02  0.72014778361E+02  0.00000000000E+00 0. -1.
          1    1    1    2  501    0  0.12398065987E+03  0.69205012775E+02 -0.31461529792E+03  0.34517144073E+03  0.00000000000E+00 0. -1.
<scales pt_clust_5="13000.00000" pt_clust_6="13000.00000" pt_clust_7="13000.00000" pt_clust_8="13000.00000" pt_clust_9="150.76891"></scales>
<clustering>
<clus scale="   80.982">  5  6 -1 -1</clus>
<clus scale="   92.492">  7  8 -1 -1</clus>
<clus scale="  101.620">  2  7  1 -1</clus>
<clus scale="  150.769">  1  9  2 -1</clus>
<clus scale="  150.769">  1  5  2 -1</clus>
</clustering>
</event>
<event>
 9    2  0.5615294E-005  0.9649684E+02  0.7546771E-02  0.1294252E+00
         21   -1    0    0  501  502  0.00000000000E+00  0.00000000000E+00  0.40318645913E+02  0.40318645913E+02  0.00000000000E+00 0. -1.
          2   -1    0    0  502    0 -0.00000000000E+00 -0.00000000000E+00 -0.35921256837E+03  0.35921256837E+03  0.00000000000E+00 0. -1.
         23    2    1    2    0    0 -0.18673993861E+02  0.29268882861E+02 -0.25643052791E+03  0.27423116168E+03  0.90778460224E+02 0.  0.
         24    2    1    2    0    0  0.31054103709E+02 -0.10164390910E+02 -0.45577365045E+02  0.96955975184E+02  0.79091672884E+02 0.  0.
        -11    1    4    4    0    0 -0.26859598409E+02 -0.50293193777E+01 -0.16866517874E+02  0.32112482079E+02  0.00000000000E+00 0.  1.
         12    1    4    4    0    0  0.57913702119E+02 -0.51350715325E+01 -0.28710847171E+02  0.64843493104E+02  0.00000000000E+00 0. -1.
        -13    1    3    3    0    0  0.56781584939E+01 -0.26398800299E+02 -0.14324264905E+03  0.14576554685E+03  0.00000000000E+00 0.  1.
         13    1    3    3    0    0 -0.24352152355E+02  0.55667683161E+02 -0.11318787886E+03  0.12846561483E+03  0.00000000000E+00 0. -1.
          1    1    1    2  501    0 -0.12380109849E+02 -0.19104491951E+02 -0.16886029505E+02  0.28344077424E+02  0.00000000000E+00 0. -1.
<scales pt_clust_5="13000.00000" pt_clust_6="13000.00000" pt_clust_7="13000.00000" pt_clust_8="13000.00000" pt_clust_9="22.76508"></scales>
<clustering>
<clus scale="   22.765">  1  9  2 -1</clus>
<clus scale="   79.092">  5  6 -1 -1</clus>
<clus scale="   85.594">  1  5  2 -1</clus>
<clus scale="   90.778">  7  8 -1 -1</clus>
<clus scale="   22.765">  1  5  2 -1</clus>
</clustering>
</event>
<event>
 9    2  0.5615294E-005  0.1165686E+03  0.7546771E-02  0.1249590E+00
         -1   -1    0    0    0  501 -0.00000000000E+00  0.00000000000E+00  0.40158142001E+03  0.40158142001E+03  0.00000000000E+00 0.  1.
         21   -1    0    0  501  502  0.00000000000E+00 -0.00000000000E+00 -0.51199064135E+02  0.51199064135E+02  0.00000000000E+00 0. -1.
         24    2    1    2    0    0  0.21009559478E+02  0.65555588106E+02  0.25232230159E+03  0.27749050351E+03  0.92711913674E+02 0.  0.
         23    2    1    2    0    0 -0.42183538299E+02 -0.65277615008E+02  0.64700552481E+02  0.13577705859E+03  0.90601491282E+02 0.  0.
        -11    1    3    3    0    0  0.43282196779E+02  0.76996309814E+02  0.21611722867E+03  0.23347041956E+03  0.00000000000E+00 0.  1.
         12    1    3    3    0    0 -0.22272637301E+02 -0.11440721708E+02  0.36205072925E+02  0.44020083951E+02  0.00000000000E+00 0. -1.
        -11    1    4    4    0    0 -0.71056827419E+02 -0.47080957588E+02  0.46578170098E+02  0.97135036006E+02  0.00000000000E+00 0. -1.
         11    1    4    4    0    0  0.28873289120E+02 -0.18196657420E+02  0.18122382384E+02  0.38642022581E+02  0.00000000000E+00 0.  1.
         -2    1    1    2    0  502  0.21173978821E+02 -0.27797309752E+00  0.33359501799E+02  0.39512922044E+02  0.00000000000E+00 0.  1.
<scales pt_clust_5="13000.00000" pt_clust_6="13000.00000" pt_clust_7="13000.00000" pt_clust_8="13000.00000" pt_clust_9="21.17581"></scales>
<clustering>
<clus scale="   21.176">  2  9  1 -1</clus>
<clus scale="   90.601">  7  8 -1 -1</clus>
<clus scale="   92.712">  5  6 -1 -1</clus>
<clus scale="  114.897">  2  7  1 -1</clus>
<clus scale="   21.176">  2  5  1 -1</clus>
</clustering>
</event>
<event>
 9    2  0.5615294E-005  0.1227299E+03  0.7546771E-02  0.1247696E+00
          2   -1    0    0  502    0 -0.00000000000E+00  0.00000000000E+00  0.84688523715E+03  0.84688523715E+03  0.00000000000E+00 0. -1.
         21   -1    0    0  501  502  0.00000000000E+00 -0.00000000000E+00 -0.49595403622E+02  0.49595403622E+02  0.00000000000E+00 0. -1.
         24    2    1    2    0    0  0.52647907134E+02 -0.90992015564E+01  0.38540033935E+03  0.40211862953E+03  0.10154493117E+03 0.  0.
         23    2    1    2    0    0  0.42982151431E+02 -0.10748276797E+02  0.36216221214E+03  0.38476350269E+03  0.12214128830E+03 0.  0.
        -11    1    3    3    0    0  0.44837316377E+02 -0.53401791629E+02  0.23859735352E+03  0.24857762047E+03  0.00000000000E+00 0.  1.
         12    1    3    3    0    0  0.78105907565E+01  0.44302590073E+02  0.14680298583E+03  0.15354100906E+03  0.00000000000E+00 0. -1.
        -13    1    4    4    0    0  0.23497925085E+02  0.42525920507E+02  0.59431166581E+02  0.76763728150E+02  0.00000000000E+00 0.  1.
         13    1    4    4    0    0  0.19484226346E+02 -0.53274197303E+02  0.30273104556E+03  0.30799977454E+03  0.00000000000E+00 0. -1.
          1    1    1    2  501    0 -0.95630058564E+02  0.19847478353E+02  0.49727282040E+02  0.10959850855E+03  0.00000000000E+00 0. -1.
<scales pt_clust_5="13000.00000" pt_clust_6="13000.00000" pt_clust_7="13000.00000" pt_clust_8="13000.00000" pt_clust_9="97.66796"></scales>
<clustering>
<clus scale="   97.668">  2  9  1 -1</clus>
<clus scale="  101.545">  5  6 -1 -1</clus>
<clus scale="  102.252">  1  5  2 -1</clus>
<clus scale="  122.141">  7  8 -1 -1</clus>
<clus scale="   97.668">  2  5  1 -1</clus>
</clustering>
</event>
<event>
 9    2  0.5615294E-005  0.1079961E+03  0.7546771E-02  0.1268202E+00
          2   -1    0    0  502    0 -0.00000000000E+00  0.00000000000E+00  0.79871208357E+03  0.79871208357E+03  0.00000000000E+00 0. -1.
         21   -1    0    0  501  502  0.00000000000E+00 -0.00000000000E+00 -0.15418567638E+03  0.15418567638E+03  0.00000000000E+00 0. -1.
         24    2    1    2    0    0 -0.55404473066E+02 -0.19953978901E+02  0.75824617425E+03  0.76484574618E+03  0.81141467685E+02 0.  0.
         23    2    1    2    0    0  0.59409068669E+02 -0.13539725964E+02 -0.10843674450E+03  0.15390856083E+03  0.90645220061E+02 0.  0.
        -11    1    3    3    0    0 -0.35186811461E+02  0.19074285115E+02  0.15793546821E+03  0.16292805827E+03  0.00000000000E+00 0.  1.
         12    1    3    3    0    0 -0.20217661605E+02 -0.39028264017E+02  0.60031070605E+03  0.60191768792E+03  0.00000000000E+00 0. -1.
        -11    1    4    4    0    0  0.19816212153E+02  0.31521905622E+02 -0.98616413022E+01  0.38517071115E+02  0.00000000000E+00 0.  1.
         11    1    4    4    0    0  0.39592856516E+02 -0.45061631586E+02 -0.98575103195E+02  0.11539148971E+03  0.00000000000E+00 0. -1.
          1    1    1    2  501    0 -0.40045956035E+01  0.33493704865E+02 -0.52830225658E+01  0.34143452945E+02  0.00000000000E+00 0. -1.
<scales pt_clust_5="13000.00000" pt_clust_6="13000.00000" pt_clust_7="13000.00000" pt_clust_8="13000.00000" pt_clust_9="33.73226"></scales>
<clustering>
<clus scale="   33.732">  2  9  1 -1</clus>
<clus scale="   81.141">  5  6 -1 -1</clus>
<clus scale="   90.645">  7  8 -1 -1</clus>
<clus scale="  100.153">  1  5  2 -1</clus>
<clus scale="   33.732">  2  5  1 -1</clus>
</clustering>
</event>
<event>
 9    2  0.5615294E-005  0.1295111E+03  0.7546771E-02  0.1229653E+00
          4   -1    0    0  502    0 -0.00000000000E+00  0.00000000000E+00  0.14429121822E+04  0.14429121822E+04  0.00000000000E+00 0. -1.
         21   -1    0    0  501  502  0.00000000000E+00 -0.00000000000E+00 -0.26376132116E+02  0.26376132116E+02  0.00000000000E+00 0.  1.
         24    2    1    2    0    0  0.96318636538E+02  0.40581126564E+02  0.10970355587E+04  0.11049851511E+04  0.81123729822E+02 0.  0.
         23    2    1    2    0    0 -0.61195158417E+02  0.18951797775E+01  0.13580597138E+03  0.17251793960E+03  0.87009990806E+02 0.  0.
        -13    1    3    3    0    0  0.38846637587E+02  0.26469117652E+02  0.17982545761E+03  0.18586788493E+03  0.00000000000E+00 0.  1.
         14    1    3    3    0    0  0.57471998951E+02  0.14112008912E+02  0.91721010112E+03  0.91911726621E+03  0.00000000000E+00 0. -1.
        -13    1    4    4    0    0 -0.38920284234E+02 -0.15327109579E+02  0.13807340402E+03  0.14427048801E+03  0.00000000000E+00 0. -1.
         13    1    4    4    0    0 -0.22274874183E+02  0.17222289357E+02 -0.22674326363E+01  0.28247451590E+02  0.00000000000E+00 0.  1.
          3    1    1    2  501    0 -0.35123478120E+02 -0.42476306342E+02  0.18369451996E+03  0.19178522356E+03  0.00000000000E+00 0. -1.
<scales pt_clust_5="13000.00000" pt_clust_6="13000.00000" pt_clust_7="13000.00000" pt_clust_8="13000.00000" pt_clust_9="55.11711"></scales>
<clustering>
<clus scale="   55.117">  2  9  1 -1</clus>
<clus scale="   81.124">  5  6 -1 -1</clus>
<clus scale="   87.010">  7  8 -1 -1</clus>
<clus scale="  125.632">  1  5  2 -1</clus>
<clus scale="   55.117">  2  5  1 -1</clus>
</clustering>
</event>
<event>
 9    2  0.5615294E-005  0.2150014E+03  0.7546771E-02  0.1137666E+00
         -1   -1    0    0    0  501 -0.00000000000E+00  0.00000000000E+00  0.38870158300E+03  0.38870158300E+03  0.00000000000E+00 0.  1.
         21   -1    0    0  501  502  0.00000000000E+00 -0.00000000000E+00 -0.70750915789E+02  0.70750915789E+02  0.00000000000E+00 0.  1.
         24    2    1    2    0    0  0.24248019419E+02  0.64335571327E+02  0.76479913226E+02  0.13071593769E+03  0.80687341354E+02 0.  0.
         23    2    1    2    0    0 -0.16118085681E+02  0.52044340227E+02  0.13064151214E+03  0.16782198599E+03  0.90158794645E+02 0.  0.
        -11    1    3    3    0    0  0.24320289438E+02  0.83435042872E+02  0.62653636655E+02  0.10713711329E+03  0.00000000000E+00 0.  1.
         12    1    3    3    0    0 -0.72270018014E-01 -0.19099471546E+02  0.13826276571E+02  0.23578824400E+02  0.00000000000E+00 0. -1.
        -11    1    4    4    0    0 -0.50560990872E+02  0.48509214675E+02  0.78397035574E+02  0.10514586484E+03  0.00000000000E+00 0. -1.
         11    1    4    4    0    0  0.34442905191E+02  0.35351255515E+01  0.52244476563E+02  0.62676121147E+02  0.00000000000E+00 0.  1.
         -2    1    1    2    0  502 -0.81299337389E+01 -0.11637991155E+03  0.11082924185E+03  0.16091457512E+03  0.00000000000E+00 0.  1.
<scales pt_clust_5="13000.00000" pt_clust_6="13000.00000" pt_clust_7="13000.00000" pt_clust_8="13000.00000" pt_clust_9="116.66353"></scales>
<clustering>
<clus scale="   80.687">  5  6 -1 -1</clus>
<clus scale="   90.159">  7  8 -1 -1</clus>
<clus scale="  103.111">  5  7 -1 -1</clus>
<clus scale="  116.664">  2  9  1 -1</clus>
<clus scale="  116.664">  2  5  1 -1</clus>
</clustering>
</event>
<event>
 9    2  0.5615294E-005  0.1040139E+03  0.7546771E-02  0.1277304E+00
          2   -1    0    0  502    0 -0.00000000000E+00  0.00000000000E+00  0.32275582230E+02  0.32275582230E+02  0.00000000000E+00 0. -1.
         21   -1    0    0  501  502  0.00000000000E+00 -0.00000000000E+00 -0.46002724175E+03  0.46002724175E+03  0.00000000000E+00 0. -1.
         23    2    1    2    0    0  0.10106145419E+02 -0.51655809021E+02 -0.13706108188E+03  0.17334161577E+03  0.92147266969E+02 0.  0.
         24    2    1    2    0    0  0.15063995453E+02  0.42137667646E+02 -0.26897332153E+03  0.28438129758E+03  0.80768606040E+02 0.  0.
        -11    1    4    4    0    0  0.14986336516E+02  0.64992168667E+02 -0.22691729943E+03  0.23651645408E+03  0.00000000000E+00 0.  1.
         12    1    4    4    0    0  0.77658936826E-01 -0.22854501022E+02 -0.42056022103E+02  0.47864843497E+02  0.00000000000E+00 0. -1.
        -11    1    3    3    0    0 -0.71012387938E+01 -0.40337289868E+02 -0.14544690721E+03  0.15110369739E+03  0.00000000000E+00 0.  1.
         11    1    3    3    0    0  0.17207384213E+02 -0.11318519153E+02  0.83858253344E+01  0.22237918379E+02  0.00000000000E+00 0. -1.
          1    1    1    2  501    0 -0.25170140872E+02  0.95181413748E+01 -0.21717256108E+02  0.34579910636E+02  0.00000000000E+00 0. -1.
<scales pt_clust_5="13000.00000" pt_clust_6="13000.00000" pt_clust_7="13000.00000" pt_clust_8="13000.00000" pt_clust_9="26.90970"></scales>
<clustering>
<clus scale="   26.910">  2  9  1 -1</clus>
<clus scale="   80.769">  5  6 -1 -1</clus>
<clus scale="   92.147">  7  8 -1 -1</clus>
<clus scale="   94.082">  2  5  1 -1</clus>
<clus scale="   26.910">  2  5  1 -1</clus>
</clustering>
</event>
<event>
 9    2  0.5615294E-005  0.1349104E+03  0.7546771E-02  0.1224034E+00
         -1   -1    0    0    0  501 -0.00000000000E+00  0.00000000000E+00  0.32358627022E+03  0.32358627022E+03  0.00000000000E+00 0.  1.
         21   -1    0    0  501  502  0.00000000000E+00 -0.00000000000E+00 -0.93240476999E+02  0.93240476999E+02  0.00000000000E+00 0. -1.
         23    2    1    2    0    0 -0.79914604268E+02 -0.86103204495E+02  0.19138990368E+03  0.24393629114E+03  0.95261288608E+02 0.  0.
         24    2    1    2    0    0  0.19730959018E+02  0.60892088985E+02  0.18102911745E+02  0.10438849856E+03  0.80449275775E+02 0.  0.
        -13    1    4    4    0    0 -0.25092977146E+01  0.75299777805E+02  0.70300806754E+01  0.75668851893E+02  0.00000000000E+00 0.  1.
         14    1    4    4    0    0  0.22240256732E+02 -0.14407688820E+02  0.11072831069E+02  0.28719646665E+02  0.00000000000E+00 0. -1.
        -11    1    3    3    0    0 -0.80047933105E+02 -0.22400942066E+02  0.13664794068E+03  0.15994415741E+03  0.00000000000E+00 0.  1.
         11    1    3    3    0    0  0.13332883662E+00 -0.63702262429E+02  0.54741963001E+02  0.83992133729E+02  0.00000000000E+00 0. -1.
         -2    1    1    2    0  502  0.60183645250E+02  0.25211115510E+02  0.20852977801E+02  0.68501957520E+02  0.00000000000E+00 0.  1.
<scales pt_clust_5="13000.00000" pt_clust_6="13000.00000" pt_clust_7="13000.00000" pt_clust_8="13000.00000" pt_clust_9="65.25084"></scales>
<clustering>
<clus scale="   65.251">  2  9  1 -1</clus>
<clus scale="   80.449">  5  6 -1 -1</clus>
<clus scale="   95.261">  7  8 -1 -1</clus>
<clus scale="  124.893">  2  5  1 -1</clus>
<clus scale="   65.251">  2  5  1 -1</clus>
</clustering>
</event>
<event>
 9    2  0.5615294E-005  0.9924142E+02  0.7546771E-02  0.1287245E+00
          2   -1    0    0  502    0 -0.00000000000E+00  0.00000000000E+00  0.41207067052E+03  0.41207067052E+03  0.00000000000E+00 0. -1.
         21   -1    0    0  501  502  0.00000000000E+00 -0.00000000000E+00 -0.57339689853E+02  0.57339689853E+02  0.00000000000E+00 0. -1.
         24    2    1    2    0    0 -0.38794339729E+02 -0.52791930036E+01  0.32222195225E+03  0.33477568684E+03  0.81944513654E+02 0.  0.
         23    2    1    2    0    0  0.17196159091E+02 -0.41108650038E+01 -0.64833310011E+00  0.93964472901E+02  0.92283772859E+02 0.  0.
        -13    1    3    3    0    0 -0.14993826602E+02  0.36602855280E+02  0.18944126541E+03  0.19352668263E+03  0.00000000000E+00 0.  1.
         14    1    3    3    0    0 -0.23800513127E+02 -0.41882048284E+02  0.13278068684E+03  0.14124900421E+03  0.00000000000E+00 0. -1.
        -13    1    4    4    0    0  0.49183439149E+02  0.20486955962E+02 -0.42717764938E+01  0.53450670020E+02  0.00000000000E+00 0.  1.
         13    1    4    4    0    0 -0.31987280059E+02 -0.24597820966E+02  0.36234433936E+01  0.40513802881E+02  0.00000000000E+00 0. -1.
          1    1    1    2  501    0  0.21598180638E+02  0.93900580074E+01  0.33157361521E+02  0.40670200630E+02  0.00000000000E+00 0. -1.
<scales pt_clust_5="13000.00000" pt_clust_6="13000.00000" pt_clust_7="13000.00000" pt_clust_8="13000.00000" pt_clust_9="23.55112"></scales>
<clustering>
<clus scale="   23.551">  2  9  1 -1</clus>
<clus scale="   81.945">  5  6 -1 -1</clus>
<clus scale="   89.708">  1  5  2 -1</clus>
<clus scale="   92.284">  7  8 -1 -1</clus>
<clus scale="   23.551">  2  5  1 -1</clus>
</clustering>
</event>
<event>
 9    2  0.5615294E-005  0.1043513E+03  0.7546771E-02  0.1277258E+00
          2   -1    0    0  502    0 -0.00000000000E+00  0.00000000000E+00  0.78114123655E+03  0.78114123655E+03  0.00000000000E+00 0. -1.
         21   -1    0    0  501  502  0.00000000000E+00 -0.00000000000E+00 -0.22685627831E+02  0.22685627831E+02  0.00000000000E+00 0.  1.
         23    2    1    2    0    0 -0.70731948724E+02 -0.18905394625E+02  0.45462597127E+03  0.46942646137E+03  0.91192139805E+02 0.  0.
         24    2    1    2    0    0  0.23221560433E+02 -0.11513028862E+02  0.16206444642E+03  0.18182292476E+03  0.78248964671E+02 0.  0.
        -11    1    4    4    0    0 -0.16119185543E+02  0.18675711799E+02  0.21347471850E+02  0.32623992830E+02  0.00000000000E+00 0.  1.
         12    1    4    4    0    0  0.39340745976E+02 -0.30188740661E+02  0.14071697457E+03  0.14919893193E+03  0.00000000000E+00 0. -1.
        -13    1    3    3    0    0 -0.59160774031E+02 -0.51308669384E+02  0.36753223855E+03  0.37578254764E+03  0.00000000000E+00 0.  1.
         13    1    3    3    0    0 -0.11571174693E+02  0.32403274758E+02  0.87093732719E+02  0.93643913725E+02  0.00000000000E+00 0. -1.
          1    1    1    2  501    0  0.47510388291E+02  0.30418423487E+02  0.14176519102E+03  0.15257747825E+03  0.00000000000E+00 0. -1.
<scales pt_clust_5="13000.00000" pt_clust_6="13000.00000" pt_clust_7="13000.00000" pt_clust_8="13000.00000" pt_clust_9="56.41381"></scales>
<clustering>
<clus scale="   56.414">  2  9  1 -1</clus>
<clus scale="   78.249">  5  6 -1 -1</clus>
<clus scale="   91.192">  7  8 -1 -1</clus>
<clus scale="   93.253">  2  5  1 -1</clus>
<clus scale="   56.414">  2  5  1 -1</clus>
</clustering>
</event>
<event>
 9    2  0.5615294E-005  0.1504421E+03  0.7546771E-02  0.1226728E+00
          2   -1    0    0  502    0 -0.00000000000E+00  0.00000000000E+00  0.42145539927E+03  0.42145539927E+03  0.00000000000E+00 0. -1.
         21   -1    0    0  501  502  0.00000000000E+00 -0.00000000000E+00 -0.12159595470E+03  0.12159595470E+03  0.00000000000E+00 0.  1.
         24    2    1    2    0    0 -0.45457373685E+01 -0.29677708737E+02  0.22658590698E+03  0.24205985616E+03  0.79689212541E+02 0.  0.
         23    2    1    2    0    0  0.12028655737E+03  0.57250537727E+02  0.86475695651E+02  0.18128145108E+03  0.87398161390E+02 0.  0.
        -13    1    3    3    0    0  0.76260281141E+00 -0.53494094921E+02  0.19465425113E+03  0.20187242812E+03  0.00000000000E+00 0.  1.
         14    1    3    3    0    0 -0.53083401799E+01  0.23816386183E+02  0.31931655857E+02  0.40187428035E+02  0.00000000000E+00 0. -1.
        -11    1    4    4    0    0  0.88576962620E+02  0.53613976121E+02  0.10239035544E+03  0.14561635083E+03  0.00000000000E+00 0.  1.
         11    1    4    4    0    0  0.31709594746E+02  0.36365616058E+01 -0.15914659792E+02  0.35665100246E+02  0.00000000000E+00 0. -1.
          1    1    1    2  501    0 -0.11574082000E+03 -0.27572828989E+02 -0.13202158067E+02  0.11971004674E+03  0.00000000000E+00 0. -1.
<scales pt_clust_5="13000.00000" pt_clust_6="13000.00000" pt_clust_7="13000.00000" pt_clust_8="13000.00000" pt_clust_9="122.45159"></scales>
<clustering>
<clus scale="   79.689">  5  6 -1 -1</clus>
<clus scale="   85.158">  1  5  2 -1</clus>
<clus scale="   87.398">  7  8 -1 -1</clus>
<clus scale="  122.452">  2  9  1 -1</clus>
<clus scale="  122.452">  2  5  1 -1</clus>
</clustering>
</event>
<event>
 9    2  0.5615294E-005  0.9961477E+02  0.7546771E-02  0.1286179E+00
         21   -1    0    0  501  502  0.00000000000E+00  0.00000000000E+00  0.41292971130E+02  0.41292971130E+02  0.00000000000E+00 0.  1.
          2   -1    0    0  502    0 -0.00000000000E+00 -0.00000000000E+00 -0.10014100821E+04  0.10014100821E+04  0.00000000000E+00 0. -1.
         24    2    1    2    0    0  0.28036161020E+02  0.25383356194E+02 -0.80963530109E+03  0.81460774327E+03  0.81523699179E+02 0.  0.
         23    2    1    2    0    0 -0.21555094705E+02 -0.46919767554E+02 -0.16896616450E+03  0.19898358375E+03  0.91535868179E+02 0.  0.
        -11    1    3    3    0    0 -0.16544065674E+02  0.24685763180E+02 -0.12348482070E+03  0.12701021202E+03  0.00000000000E+00 0.  1.
         12    1    3    3    0    0  0.44580226694E+02  0.69759301328E+00 -0.68615048039E+03  0.68759753126E+03  0.00000000000E+00 0. -1.
        -11    1    4    4    0    0 -0.40732350259E+02 -0.56044977714E+02 -0.72794166538E+02  0.10049454993E+03  0.00000000000E+00 0.  1.
         11    1    4    4    0    0  0.19177255554E+02  0.91252101598E+01 -0.96171997958E+02  0.98489033818E+02  0.00000000000E+00 0. -1.
          1    1    1    2  501    0 -0.64810663148E+01  0.21536411361E+02  0.18484354640E+02  0.29111726183E+02  0.00000000000E+00 0. -1.
<scales pt_clust_5="13000.00000" pt_clust_6="13000.00000" pt_clust_7="13000.00000" pt_clust_8="13000.00000" pt_clust_9="22.49047"></scales>
<clustering>
<clus scale="   22.490">  1  9  2 -1</clus>
<clus scale="   81.524">  5  6 -1 -1</clus>
<clus scale="   90.501">  2  5  1 -1</clus>
<clus scale="   91.536">  7  8 -1 -1</clus>
<clus scale="   22.490">  1  5  2 -1</clus>
</clustering>
</event>
<event>
 9    2  0.5615294E-005  0.1361263E+03  0.7546771E-02  0.1221416E+00
         21   -1    0    0  501  502  0.00000000000E+00  0.00000000000E+00  0.41657672811E+03  0.41657672811E+03  0.00000000000E+00 0. -1.
          2   -1    0    0  502    0 -0.00000000000E+00 -0.00000000000E+00 -0.10490414679E+03  0.10490414679E+03  0.00000000000E+00 0. -1.
         24    2    1    2    0    0  0.57962118334E+02  0.80408971172E+02 -0.64710581979E+01  0.12797481605E+03  0.80687478224E+02 0.  0.
         23    2    1    2    0    0 -0.87181971494E+02 -0.64731840232E+02  0.32902500413E+03  0.35860654096E+03  0.92467781315E+02 0.  0.
        -11    1    3    3    0    0  0.33661970105E+02 -0.91960106717E+01  0.17219992307E+00  0.34895909451E+02  0.00000000000E+00 0.  1.
         12    1    3    3    0    0  0.24300148230E+02  0.89604981844E+02 -0.66432581209E+01  0.93078906599E+02  0.00000000000E+00 0. -1.
        -13    1    4    4    0    0 -0.68270085970E+02  0.61242945991E+01  0.17726644150E+03  0.19005710432E+03  0.00000000000E+00 0. -1.
         13    1    4    4    0    0 -0.18911885524E+02 -0.70856134831E+02  0.15175856263E+03  0.16854943663E+03  0.00000000000E+00 0.  1.
          1    1    1    2  501    0  0.29219853160E+02 -0.15677130940E+02 -0.10881364613E+02  0.34899517891E+02  0.00000000000E+00 0. -1.
<scales pt_clust_5="13000.00000" pt_clust_6="13000.00000" pt_clust_7="13000.00000" pt_clust_8="13000.00000" pt_clust_9="33.15982"></scales>
<clustering>
<clus scale="   33.160">  1  9  2 -1</clus>
<clus scale="   80.687">  5  6 -1 -1</clus>
<clus scale="   92.468">  7  8 -1 -1</clus>
<clus scale="  128.415">  2  5  1 -1</clus>
<clus scale="   33.160">  1  5  2 -1</clus>
</clustering>
</event>
<event>
 9    2  0.5615294E-005  0.1555008E+03  0.7546771E-02  0.1195153E+00
         21   -1    0    0  501  502  0.00000000000E+00  0.00000000000E+00  0.11732322558E+03  0.11732322558E+03  0.00000000000E+00 0. -1.
          4   -1    0    0  502    0 -0.00000000000E+00 -0.00000000000E+00 -0.73216659407E+03  0.73216659407E+03  0.00000000000E+00 0. -1.
         24    2    1    2    0    0  0.12100222527E+03  0.54154587594E+02 -0.58187111678E+03  0.60236730990E+03  0.81842052893E+02 0.  0.
         23    2    1    2    0    0 -0.95197139223E+02 -0.51741369829E+02 -0.10181369743E+03  0.17356388867E+03  0.89547360640E+02 0.  0.
        -11    1    3    3    0    0  0.11108889217E+02  0.38690748613E+02 -0.98244199526E+02  0.10617110807E+03  0.00000000000E+00 0.  1.
         12    1    3    3    0    0  0.10989333605E+03  0.15463838980E+02 -0.48362691725E+03  0.49619620184E+03  0.00000000000E+00 0. -1.
        -11    1    4    4    0    0 -0.22722727882E+02 -0.21734106242E+02 -0.88604765524E+02  0.94018605659E+02  0.00000000000E+00 0. -1.
         11    1    4    4    0    0 -0.72474411341E+02 -0.30007263587E+02 -0.13208931909E+02  0.79545283012E+02  0.00000000000E+00 0.  1.
          3    1    1    2  501    0 -0.25805086047E+02 -0.24132177648E+01  0.68841445717E+02  0.73558621074E+02  0.00000000000E+00 0. -1.
<scales pt_clust_5="13000.00000" pt_clust_6="13000.00000" pt_clust_7="13000.00000" pt_clust_8="13000.00000" pt_clust_9="25.91768"></scales>
<clustering>
<clus scale="   25.918">  1  9  2 -1</clus>
<clus scale="   81.842">  5  6 -1 -1</clus>
<clus scale="   89.547">  7  8 -1 -1</clus>
<clus scale="  151.195">  2  5  1 -1</clus>
<clus scale="   25.918">  1  5  2 -1</clus>
</clustering>
</event>
<event>
 9    2  0.5615294E-005  0.1331377E+03  0.7546771E-02  0.1233594E+00
         21   -1    0    0  501  502  0.00000000000E+00  0.00000000000E+00  0.69867310547E+03  0.69867310547E+03  0.00000000000E+00 0. -1.
          2   -1    0    0  502    0 -0.00000000000E+00 -0.00000000000E+00 -0.98880726711E+02  0.98880726711E+02  0.00000000000E+00 0. -1.
         23    2    1    2    0    0 -0.48626744768E+02 -0.76867467057E+01  0.49196899092E+02  0.11743097623E+03  0.94583576358E+02 0.  0.
         24    2    1    2    0    0 -0.24919332294E+02 -0.73956382392E+02 -0.71286697716E+01  0.11167685777E+03  0.79563704100E+02 0.  0.
        -11    1    4    4    0    0 -0.19216335201E+02 -0.17173591725E+02  0.33029982330E+02  0.41894862740E+02  0.00000000000E+00 0.  1.
         12    1    4    4    0    0 -0.57029970928E+01 -0.56782790666E+02 -0.40158652101E+02  0.69781995030E+02  0.00000000000E+00 0. -1.
        -13    1    3    3    0    0 -0.40805924720E+02  0.15733939281E+02 -0.16889672907E+02  0.46882207589E+02  0.00000000000E+00 0.  1.
         13    1    3    3    0    0 -0.78208200481E+01 -0.23420685987E+02  0.66086571998E+02  0.70548768641E+02  0.00000000000E+00 0. -1.
          1    1    1    2  501    0  0.73546077062E+02  0.81643129097E+02  0.55772414944E+03  0.56844599818E+03  0.00000000000E+00 0. -1.
<scales pt_clust_5="13000.00000" pt_clust_6="13000.00000" pt_clust_7="13000.00000" pt_clust_8="13000.00000" pt_clust_9="106.74861"></scales>
<clustering>
<clus scale="   79.564">  5  6 -1 -1</clus>
<clus scale="   94.584">  7  8 -1 -1</clus>
<clus scale="  106.629">  2  7  1 -1</clus>
<clus scale="  106.749">  1  9  2 -1</clus>
<clus scale="  106.749">  1  5  2 -1</clus>
</clustering>
</event>
<event>
 9    2  0.8608396E-005  0.1177101E+03  0.7546771E-02  0.1254131E+00
         -3   -1    0    0    0  501 -0.00000000000E+00  0.00000000000E+00  0.43530324792E+03  0.43530324792E+03  0.00000000000E+00 0.  1.
         21   -1    0    0  501  502  0.00000000000E+00 -0.00000000000E+00 -0.13333061615E+03  0.13333061615E+03  0.00000000000E+00 0. -1.
         23    2    1    2    0    0 -0.39144211409E+02 -0.63306907445E+02  0.36280386190E+03  0.38237626061E+03  0.95104829819E+02 0.  0.
         24    2    1    2    0    0  0.52175261925E+02 -0.78304113020E+01 -0.67446588260E+02  0.11363467760E+03  0.74700899514E+02 0.  0.
        -11    1    4    4    0    0 -0.40370388038E+01 -0.23253427151E+02  0.11348549322E+01  0.23628530473E+02  0.00000000000E+00 0.  1.
         12    1    4    4    0    0  0.56212300729E+02  0.15423015849E+02 -0.68581443192E+02  0.90006147131E+02  0.00000000000E+00 0. -1.
        -11    1    3    3    0    0 -0.52171622426E+02 -0.81437045093E+02  0.31692644505E+03  0.33135516002E+03  0.00000000000E+00 0.  1.
         11    1    3    3    0    0  0.13027411018E+02  0.18130137649E+02  0.45877416847E+02  0.51021100591E+02  0.00000000000E+00 0. -1.
         -4    1    1    2    0  502 -0.13031050516E+02  0.71137318747E+02  0.66153581328E+01  0.72622925852E+02  0.00000000000E+00 0.  1.
<scales pt_clust_5="13000.00000" pt_clust_6="13000.00000" pt_clust_7="13000.00000" pt_clust_8="13000.00000" pt_clust_9="72.32100"></scales>
<clustering>
<clus scale="   72.321">  2  9  1 -1</clus>
<clus scale="   74.701">  5  6 -1 -1</clus>
<clus scale="   95.105">  7  8 -1 -1</clus>
<clus scale="  101.936">  2  5  1 -1</clus>
<clus scale="   72.321">  2  5  1 -1</clus>
</clustering>
</event>
<event>
 9    2  0.5615294E-005  0.9344566E+02  0.7546771E-02  0.1305074E+00
          4   -1    0    0  502    0 -0.00000000000E+00  0.00000000000E+00  0.14535111638E+03  0.14535111638E+03  0.00000000000E+00 0. -1.
         21   -1    0    0  501  502  0.00000000000E+00 -0.00000000000E+00 -0.44430757792E+03  0.44430757792E+03  0.00000000000E+00 0. -1.
         24    2    1    2    0    0  0.34557347010E+01  0.18957263563E+02  0.12192879316E+03  0.14412800680E+03  0.74397122241E+02 0.  0.
         23    2    1    2    0    0 -0.14007761309E+02 -0.55374988818E+02 -0.29187766453E+03  0.31106673583E+03  0.91144590207E+02 0.  0.
        -13    1    3    3    0    0 -0.25437398881E+02 -0.17014226336E+02  0.52443609941E+02  0.60719662246E+02  0.00000000000E+00 0.  1.
         14    1    3    3    0    0  0.28893133582E+02  0.35971489900E+02  0.69485183224E+02  0.83408344555E+02  0.00000000000E+00 0. -1.
        -11    1    4    4    0    0 -0.48929366486E+02 -0.14881656641E+02 -0.10670079461E+03  0.11832415721E+03  0.00000000000E+00 0.  1.
         11    1    4    4    0    0  0.34921605177E+02 -0.40493332177E+02 -0.18517686993E+03  0.19274257862E+03  0.00000000000E+00 0. -1.
          3    1    1    2  501    0  0.10552026608E+02  0.36417725254E+02 -0.12900759017E+03  0.13446395167E+03  0.00000000000E+00 0. -1.
<scales pt_clust_5="13000.00000" pt_clust_6="13000.00000" pt_clust_7="13000.00000" pt_clust_8="13000.00000" pt_clust_9="37.91564"></scales>
<clustering>
<clus scale="   37.916">  2  9  1 -1</clus>
<clus scale="   74.397">  5  6 -1 -1</clus>
<clus scale="   77.199">  1  5  2 -1</clus>
<clus scale="   91.145">  7  8 -1 -1</clus>
<clus scale="   37.916">  2  5  1 -1</clus>
</clustering>
</event>
<event>
 9    2  0.9340205E-005  0.1000207E+03  0.7546771E-02  0.1285086E+00
         21   -1    0    0  501  502  0.00000000000E+00  0.00000000000E+00  0.21534456001E+03  0.21534456001E+03  0.00000000000E+00 0. -1.
          2   -1    0    0  502    0 -0.00000000000E+00 -0.00000000000E+00 -0.37612194185E+03  0.37612194185E+03  0.00000000000E+00 0. -1.
         24    2    1    2    0    0  0.45341187166E+02 -0.16622688962E+02 -0.25250587040E+03  0.27136365074E+03  0.86872776611E+02 0.  0.
         23    2    1    2    0    0  0.29347469947E+02  0.77120289459E+01 -0.82593117719E+02  0.13024548946E+03  0.96028719909E+02 0.  0.
        -13    1    3    3    0    0 -0.20459859679E+02 -0.22251009283E+02 -0.50706986184E+02  0.59033140862E+02  0.00000000000E+00 0.  1.
         14    1    3    3    0    0  0.65801046844E+02  0.56283203210E+01 -0.20179888422E+03  0.21233050988E+03  0.00000000000E+00 0. -1.
        -11    1    4    4    0    0 -0.12290452616E+02  0.30018675009E+02  0.29041470456E+01  0.32567010069E+02  0.00000000000E+00 0.  1.
         11    1    4    4    0    0  0.41637922562E+02 -0.22306646063E+02 -0.85497264764E+02  0.97678479390E+02  0.00000000000E+00 0. -1.
          1    1    1    2  501    0 -0.74688657113E+02  0.89106600164E+01  0.17432160627E+03  0.18985736166E+03  0.00000000000E+00 0. -1.
<scales pt_clust_5="13000.00000" pt_clust_6="13000.00000" pt_clust_7="13000.00000" pt_clust_8="13000.00000" pt_clust_9="75.21832"></scales>
<clustering>
<clus scale="   75.218">  1  9  2 -1</clus>
<clus scale="   86.873">  5  6 -1 -1</clus>
<clus scale="   91.266">  2  5  1 -1</clus>
<clus scale="   96.029">  7  8 -1 -1</clus>
<clus scale="   75.218">  1  5  2 -1</clus>
</clustering>
</event>
<event>
 9    2  0.5615294E-005  0.1105415E+03  0.7546771E-02  0.1260129E+00
          2   -1    0    0  502    0 -0.00000000000E+00  0.00000000000E+00  0.10316748673E+04  0.10316748673E+04  0.00000000000E+00 0. -1.
         21   -1    0    0  501  502  0.00000000000E+00 -0.00000000000E+00 -0.82179842516E+02  0.82179842516E+02  0.00000000000E+00 0. -1.
         24    2    1    2    0    0 -0.73077860415E+02 -0.11731412122E+02  0.91667056393E+03  0.92407788246E+03  0.90316168874E+02 0.  0.
         23    2    1    2    0    0 -0.15097853446E+02 -0.34021245827E+01  0.42694307138E+02  0.99769081486E+02  0.88834374699E+02 0.  0.
        -11    1    3    3    0    0 -0.21297461625E+02  0.47844053405E+00  0.36210729511E+02  0.42012232847E+02  0.00000000000E+00 0.  1.
         12    1    3    3    0    0 -0.51780398790E+02 -0.12209852656E+02  0.88045983442E+03  0.88206564962E+03  0.00000000000E+00 0. -1.
        -13    1    4    4    0    0  0.11237681825E+02 -0.41921786627E+02  0.18128750754E+02  0.47035872381E+02  0.00000000000E+00 0. -1.
         13    1    4    4    0    0 -0.26335535271E+02  0.38519662044E+02  0.24565556385E+02  0.52733209105E+02  0.00000000000E+00 0.  1.
          1    1    1    2  501    0  0.88175713861E+02  0.15133536705E+02 -0.98698462999E+01  0.90007745856E+02  0.00000000000E+00 0. -1.
<scales pt_clust_5="13000.00000" pt_clust_6="13000.00000" pt_clust_7="13000.00000" pt_clust_8="13000.00000" pt_clust_9="89.46497"></scales>
<clustering>
<clus scale="   88.834">  7  8 -1 -1</clus>
<clus scale="   89.465">  2  9  1 -1</clus>
<clus scale="   90.316">  5  6 -1 -1</clus>
<clus scale="  109.334">  2  7  1 -1</clus>
<clus scale="   89.465">  2  5  1 -1</clus>
</clustering>
</event>
<event>
 9    2  0.5615294E-005  0.9329330E+02  0.7546771E-02  0.1302706E+00
          2   -1    0    0  502    0 -0.00000000000E+00  0.00000000000E+00  0.17853697241E+03  0.17853697241E+03  0.00000000000E+00 0. -1.
         21   -1    0    0  501  502  0.00000000000E+00 -0.00000000000E+00 -0.60795387770E+02  0.60795387770E+02  0.00000000000E+00 0.  1.
         24    2    1    2    0    0  0.12745704212E+02  0.23383566100E+01  0.75889156083E+02  0.11033765813E+03  0.79039951313E+02 0.  0.
         23    2    1    2    0    0 -0.25712450132E+02  0.18918275141E+02  0.35690952327E+02  0.10334426965E+03  0.91581454264E+02 0.  0.
        -11    1    3    3    0    0 -0.16664326082E+02 -0.30860499860E+02  0.40661445905E+02  0.53697517620E+02  0.00000000000E+00 0.  1.
         12    1    3    3    0    0  0.29410030294E+02  0.33198856470E+02  0.35227710177E+02  0.56640140512E+02  0.00000000000E+00 0. -1.
        -13    1    4    4    0    0  0.14548720467E+02  0.16890757202E+02 -0.23072442634E+02  0.32082714274E+02  0.00000000000E+00 0.  1.
         13    1    4    4    0    0 -0.40261170599E+02  0.20275179383E+01  0.58763394961E+02  0.71261555374E+02  0.00000000000E+00 0. -1.
          1    1    1    2  501    0  0.12966745920E+02 -0.21256631751E+02  0.61614762335E+01  0.25650432404E+02  0.00000000000E+00 0. -1.
<scales pt_clust_5="13000.00000" pt_clust_6="13000.00000" pt_clust_7="13000.00000" pt_clust_8="13000.00000" pt_clust_9="24.89942"></scales>
<clustering>
<clus scale="   24.899">  2  9  1 -1</clus>
<clus scale="   79.040">  5  6 -1 -1</clus>
<clus scale="   81.017">  1  5  2 -1</clus>
<clus scale="   91.581">  7  8 -1 -1</clus>
<clus scale="   24.899">  2  5  1 -1</clus>
</clustering>
</event>
<event>
 9    2  0.5615294E-005  0.1610666E+03  0.7546771E-02  0.1188749E+00
         -1   -1    0    0    0  501 -0.00000000000E+00  0.00000000000E+00  0.84374772271E+03  0.84374772271E+03  0.00000000000E+00 0.  1.
         21   -1    0    0  501  502  0.00000000000E+00 -0.00000000000E+00 -0.86836109959E+02  0.86836109959E+02  0.00000000000E+00 0. -1.
         24    2    1    2    0    0  0.85789566390E+02 -0.11012753669E+03  0.59326377519E+03  0.61472672301E+03  0.80244083879E+02 0.  0.
         23    2    1    2    0    0 -0.11067805062E+03  0.41481665931E+02  0.12758407546E+02  0.14822861473E+03  0.88535788043E+02 0.  0.
        -11    1    3    3    0    0  0.49845377119E+02 -0.94674561586E+02  0.52719044048E+03  0.53793828155E+03  0.00000000000E+00 0.  1.
         12    1    3    3    0    0  0.35944189270E+02 -0.15452975101E+02  0.66073334713E+02  0.76788441460E+02  0.00000000000E+00 0. -1.
        -13    1    4    4    0    0 -0.53860941759E+02  0.35090606007E+02  0.48741424156E+02  0.80672660213E+02  0.00000000000E+00 0.  1.
         13    1    4    4    0    0 -0.56817108865E+02  0.63910599239E+01 -0.35983016610E+02  0.67555954520E+02  0.00000000000E+00 0. -1.
         -2    1    1    2    0  502  0.24888484235E+02  0.68645870756E+02  0.15088943001E+03  0.16762849492E+03  0.00000000000E+00 0.  1.
<scales pt_clust_5="13000.00000" pt_clust_6="13000.00000" pt_clust_7="13000.00000" pt_clust_8="13000.00000" pt_clust_9="73.01847"></scales>
<clustering>
<clus scale="   73.018">  2  9  1 -1</clus>
<clus scale="   80.244">  5  6 -1 -1</clus>
<clus scale="   88.536">  7  8 -1 -1</clus>
<clus scale="  156.662">  1  5  2 -1</clus>
<clus scale="   73.018">  2  5  1 -1</clus>
</clustering>
</event>
<event>
 9    2  0.5615294E-005  0.2110158E+03  0.7546771E-02  0.1169410E+00
          2   -1    0    0  502    0 -0.00000000000E+00  0.00000000000E+00  0.13108938274E+04  0.13108938274E+04  0.00000000000E+00 0. -1.
         21   -1    0    0  501  502  0.00000000000E+00 -0.00000000000E+00 -0.52504265271E+02  0.52504265271E+02  0.00000000000E+00 0. -1.
         24    2    1    2    0    0  0.69758060977E+02 -0.10539207691E+02  0.36556334288E+03  0.38109285445E+03  0.81350747267E+02 0.  0.
         23    2    1    2    0    0 -0.18789744989E+03  0.11878167046E+03  0.42507497933E+03  0.48787165482E+03  0.88968964307E+02 0.  0.
        -13    1    3    3    0    0  0.32344665353E+02 -0.42083360872E+02  0.25039639432E+03  0.25596003775E+03  0.00000000000E+00 0.  1.
         14    1    3    3    0    0  0.37413395624E+02  0.31544153181E+02  0.11516694857E+03  0.12513281670E+03  0.00000000000E+00 0. -1.
        -13    1    4    4    0    0 -0.14772007734E+02  0.26629256791E+02  0.13032078154E+03  0.13383137013E+03  0.00000000000E+00 0.  1.
         13    1    4    4    0    0 -0.17312544215E+03  0.92152413668E+02  0.29475419779E+03  0.35404028469E+03  0.00000000000E+00 0. -1.
          1    1    1    2  501    0  0.11813938891E+03 -0.10824246277E+03  0.46775123992E+03  0.49443358342E+03  0.00000000000E+00 0. -1.
<scales pt_clust_5="13000.00000" pt_clust_6="13000.00000" pt_clust_7="13000.00000" pt_clust_8="13000.00000" pt_clust_9="191.34321"></scales>
<clustering>
<clus scale="   81.351">  5  6 -1 -1</clus>
<clus scale="   88.969">  7  8 -1 -1</clus>
<clus scale="  107.681">  1  5  2 -1</clus>
<clus scale="  191.343">  2  9  1 -1</clus>
<clus scale="  191.343">  2  5  1 -1</clus>
</clustering>
</event>
<event>
 9    2  0.5615294E-005  0.1907903E+03  0.7546771E-02  0.1194565E+00
         21   -1    0    0  501  502  0.00000000000E+00  0.00000000000E+00  0.42263094642E+03  0.42263094642E+03  0.00000000000E+00 0. -1.
          2   -1    0    0  502    0 -0.00000000000E+00 -0.00000000000E+00 -0.25658651387E+03  0.25658651387E+03  0.00000000000E+00 0. -1.
         24    2    1    2    0    0 -0.96726579616E+01 -0.83621697854E+01 -0.16817298596E+03  0.18750455470E+03  0.81928741162E+02 0.  0.
         23    2    1    2    0    0  0.15465321801E+03  0.81386726677E+02  0.16411312996E+03  0.25658013951E+03  0.91426645167E+02 0.  0.
        -13    1    3    3    0    0  0.13590837779E+02  0.26610346453E+02 -0.11966186176E+03  0.12333605544E+03  0.00000000000E+00 0.  1.
         14    1    3    3    0    0 -0.23263495740E+02 -0.34972516239E+02 -0.48511124200E+02  0.64168499260E+02  0.00000000000E+00 0. -1.
        -11    1    4    4    0    0  0.12175373083E+03  0.88352010069E+02  0.90266240973E+02  0.17543672054E+03  0.00000000000E+00 0. -1.
         11    1    4    4    0    0  0.32899487179E+02 -0.69652833912E+01  0.73846888988E+02  0.81143418973E+02  0.00000000000E+00 0.  1.
          1    1    1    2  501    0 -0.14498056005E+03 -0.73024556892E+02  0.17010428855E+03  0.23513276608E+03  0.00000000000E+00 0. -1.
<scales pt_clust_5="13000.00000" pt_clust_6="13000.00000" pt_clust_7="13000.00000" pt_clust_8="13000.00000" pt_clust_9="167.45779"></scales>
<clustering>
<clus scale="   81.929">  5  6 -1 -1</clus>
<clus scale="   82.920">  2  5  1 -1</clus>
<clus scale="   91.427">  7  8 -1 -1</clus>
<clus scale="  167.458">  1  9  2 -1</clus>
<clus scale="  167.458">  1  5  2 -1</clus>
</clustering>
</event>
<event>
 9    2  0.5615294E-005  0.1363265E+03  0.7546771E-02  0.1220405E+00
         21   -1    0    0  501  502  0.00000000000E+00  0.00000000000E+00  0.57465642241E+02  0.57465642241E+02  0.00000000000E+00 0. -1.
          2   -1    0    0  502    0 -0.00000000000E+00 -0.00000000000E+00 -0.85668296523E+03  0.85668296523E+03  0.00000000000E+00 0. -1.
         23    2    1    2    0    0 -0.12544579485E+03  0.42784459571E+02 -0.62793918801E+03  0.64790309810E+03  0.88902436778E+02 0.  0.
         24    2    1    2    0    0  0.61355531329E+02 -0.10838215881E+02 -0.16598975352E+03  0.19443958104E+03  0.79825962289E+02 0.  0.
        -11    1    4    4    0    0  0.59969066834E+02 -0.71028442846E+01 -0.17471001500E+03  0.18485218072E+03  0.00000000000E+00 0.  1.
         12    1    4    4    0    0  0.13864644951E+01 -0.37353715967E+01  0.87202614816E+01  0.95874003290E+01  0.00000000000E+00 0. -1.
        -13    1    3    3    0    0 -0.21967811093E+02 -0.25195345915E+02 -0.18451766600E+03  0.18752109013E+03  0.00000000000E+00 0.  1.
         13    1    3    3    0    0 -0.10347798376E+03  0.67979805486E+02 -0.44342152201E+03  0.46038200796E+03  0.00000000000E+00 0. -1.
          1    1    1    2  501    0  0.64090263521E+02 -0.31946243689E+02 -0.52883814592E+01  0.71805928324E+02  0.00000000000E+00 0. -1.
<scales pt_clust_5="13000.00000" pt_clust_6="13000.00000" pt_clust_7="13000.00000" pt_clust_8="13000.00000" pt_clust_9="71.61092"></scales>
<clustering>
<clus scale="   71.611">  1  9  2 -1</clus>
<clus scale="   79.826">  5  6 -1 -1</clus>
<clus scale="   88.902">  7  8 -1 -1</clus>
<clus scale="  130.589">  1  5  2 -1</clus>
<clus scale="   71.611">  1  5  2 -1</clus>
</clustering>
</event>
<event>
 9    2  0.5615294E-005  0.1026803E+03  0.7546771E-02  0.1285044E+00
         21   -1    0    0  501  502  0.00000000000E+00  0.00000000000E+00  0.44715545642E+03  0.44715545642E+03  0.00000000000E+00 0. -1.
          2   -1    0    0  502    0 -0.00000000000E+00 -0.00000000000E+00 -0.58683526780E+02  0.58683526780E+02  0.00000000000E+00 0. -1.
         23    2    1    2    0    0  0.28377897195E+02  0.30831852221E+02  0.33513322247E+02  0.10594396192E+03  0.91351366370E+02 0.  0.
         24    2    1    2    0    0  0.19915455187E+02 -0.77878478555E+02  0.14972631333E+03  0.18387204227E+03  0.70208804648E+02 0.  0.
        -11    1    4    4    0    0 -0.15753634990E+00 -0.30284101468E+02  0.56381111777E+01  0.30804868399E+02  0.00000000000E+00 0.  1.
         12    1    4    4    0    0  0.20072991537E+02 -0.47594377087E+02  0.14408820215E+03  0.15306717388E+03  0.00000000000E+00 0. -1.
        -11    1    3    3    0    0 -0.26376336360E+02 -0.13425935729E+02  0.51521588722E+01  0.30041831020E+02  0.00000000000E+00 0.  1.
         11    1    3    3    0    0  0.54754233555E+02  0.44257787949E+02  0.28361163375E+02  0.75902130895E+02  0.00000000000E+00 0. -1.
          1    1    1    2  501    0 -0.48293352382E+02  0.47046626334E+02  0.20523229407E+03  0.21602297902E+03  0.00000000000E+00 0. -1.
<scales pt_clust_5="13000.00000" pt_clust_6="13000.00000" pt_clust_7="13000.00000" pt_clust_8="13000.00000" pt_clust_9="67.42131"></scales>
<clustering>
<clus scale="   67.421">  1  9  2 -1</clus>
<clus scale="   70.209">  5  6 -1 -1</clus>
<clus scale="   84.424">  1  5  2 -1</clus>
<clus scale="   91.351">  7  8 -1 -1</clus>
<clus scale="   67.421">  1  5  2 -1</clus>
</clustering>
</event>
<event>
 9    2  0.5615294E-005  0.9275749E+02  0.7546771E-02  0.1301253E+00
          2   -1    0    0  502    0 -0.00000000000E+00  0.00000000000E+00  0.19048895575E+03  0.19048895575E+03  0.00000000000E+00 0. -1.
         21   -1    0    0  501  502  0.00000000000E+00 -0.00000000000E+00 -0.64804258123E+02  0.64804258123E+02  0.00000000000E+00 0.  1.
         24    2    1    2    0    0 -0.20179823088E+02  0.33384685024E+01  0.55190362070E+02  0.10245729080E+03  0.83863876261E+02 0.  0.
         23    2    1    2    0    0 -0.41223906495E+01  0.17084167903E+02  0.24312484441E+02  0.96796249241E+02  0.92030180212E+02 0.  0.
        -11    1    3    3    0    0  0.76681115386E+01  0.30706232520E+02  0.54948771729E+02  0.63411672149E+02  0.00000000000E+00 0.  1.
         12    1    3    3    0    0 -0.27847934626E+02 -0.27367764017E+02  0.24159034117E+00  0.39045618655E+02  0.00000000000E+00 0. -1.
        -11    1    4    4    0    0 -0.16469843536E+02  0.32961696913E+02  0.51285187714E+02  0.63149819385E+02  0.00000000000E+00 0. -1.
         11    1    4    4    0    0  0.12347452887E+02 -0.15877529010E+02 -0.26972703273E+02  0.33646429857E+02  0.00000000000E+00 0.  1.
          1    1    1    2  501    0  0.24302213737E+02 -0.20422636405E+02  0.46181851113E+02  0.56039673826E+02  0.00000000000E+00 0. -1.
<scales pt_clust_5="13000.00000" pt_clust_6="13000.00000" pt_clust_7="13000.00000" pt_clust_8="13000.00000" pt_clust_9="31.74402"></scales>
<clustering>
<clus scale="   31.744">  2  9  1 -1</clus>
<clus scale="   83.864">  5  6 -1 -1</clus>
<clus scale="   84.661">  1  5  2 -1</clus>
<clus scale="   92.030">  7  8 -1 -1</clus>
<clus scale="   31.744">  2  5  1 -1</clus>
</clustering>
</event>
<event>
 9    2  0.5615294E-005  0.1056330E+03  0.7546771E-02  0.1290795E+00
          2   -1    0    0  502    0 -0.00000000000E+00  0.00000000000E+00  0.13458486905E+03  0.13458486905E+03  0.00000000000E+00 0. -1.
         21   -1    0    0  501  502  0.00000000000E+00 -0.00000000000E+00 -0.13691480942E+03  0.13691480942E+03  0.00000000000E+00 0. -1.
         24    2    1    2    0    0  0.25623074994E+02  0.15354775536E+02  0.66566375129E+02  0.94413835743E+02  0.59921440052E+02 0.  0.
         23    2    1    2    0    0 -0.52609931397E+02 -0.44583070261E+02 -0.38611392099E+02  0.12708824062E+03  0.99524500849E+02 0.  0.
        -11    1    3    3    0    0 -0.25984018989E+01  0.33345413473E+02  0.34899342994E+02  0.48338726023E+02  0.00000000000E+00 0.  1.
         12    1    3    3    0    0  0.28221476893E+02 -0.17990637937E+02  0.31667032136E+02  0.46075109720E+02  0.00000000000E+00 0. -1.
        -11    1    4    4    0    0 -0.12162103199E+02 -0.61687706411E+02  0.76061418701E+01  0.63333587223E+02  0.00000000000E+00 0. -1.
         11    1    4    4    0    0 -0.40447828198E+02  0.17104636150E+02 -0.46217533970E+02  0.63754653399E+02  0.00000000000E+00 0.  1.
          1    1    1    2  501    0  0.26986856402E+02  0.29228294725E+02 -0.30284923397E+02  0.49997602104E+02  0.00000000000E+00 0. -1.
<scales pt_clust_5="13000.00000" pt_clust_6="13000.00000" pt_clust_7="13000.00000" pt_clust_8="13000.00000" pt_clust_9="39.78170"></scales>
<clustering>
<clus scale="   39.782">  2  9  1 -1</clus>
<clus scale="   59.921">  5  6 -1 -1</clus>
<clus scale="   69.597">  1  5  2 -1</clus>
<clus scale="   99.525">  7  8 -1 -1</clus>
<clus scale="   39.782">  2  5  1 -1</clus>
</clustering>
</event>
<event>
 9    2  0.5615294E-005  0.2943384E+03  0.7546771E-02  0.1088106E+00
         21   -1    0    0  501  502  0.00000000000E+00  0.00000000000E+00  0.87349661626E+02  0.87349661626E+02  0.00000000000E+00 0. -1.
          2   -1    0    0  502    0 -0.00000000000E+00 -0.00000000000E+00 -0.96739827249E+03  0.96739827249E+03  0.00000000000E+00 0. -1.
         24    2    1    2    0    0 -0.19450828532E+02  0.17431090041E+03 -0.49042890159E+03  0.52694541393E+03  0.79927073129E+02 0.  0.
         23    2    1    2    0    0 -0.17075018747E+02  0.39732182681E+02 -0.24950738338E+03  0.26938417176E+03  0.91889580608E+02 0.  0.
        -13    1    3    3    0    0  0.30280879538E+02  0.45430582516E+02 -0.14078837990E+03  0.15100409732E+03  0.00000000000E+00 0.  1.
         14    1    3    3    0    0 -0.49731708070E+02  0.12888031789E+03 -0.34964052169E+03  0.37594131661E+03  0.00000000000E+00 0. -1.
        -11    1    4    4    0    0 -0.46286391664E+02  0.49410463131E+02 -0.19941239549E+03  0.21059232511E+03  0.00000000000E+00 0.  1.
         11    1    4    4    0    0  0.29211372916E+02 -0.96782804498E+01 -0.50094987895E+02  0.58791846648E+02  0.00000000000E+00 0. -1.
          1    1    1    2  501    0  0.36525847280E+02 -0.21404308309E+03 -0.14011232589E+03  0.25841834843E+03  0.00000000000E+00 0. -1.
<scales pt_clust_5="13000.00000" pt_clust_6="13000.00000" pt_clust_7="13000.00000" pt_clust_8="13000.00000" pt_clust_9="217.13724"></scales>
<clustering>
<clus scale="   79.927">  5  6 -1 -1</clus>
<clus scale="   91.890">  7  8 -1 -1</clus>
<clus scale="   94.420">  5  7 -1 -1</clus>
<clus scale="  217.137">  1  9  2 -1</clus>
<clus scale="  217.137">  1  5  2 -1</clus>
</clustering>
</event>
<event>
 9    2  0.5615294E-005  0.1090733E+03  0.7546771E-02  0.1272871E+00
         21   -1    0    0  501  502  0.00000000000E+00  0.00000000000E+00  0.54460888121E+02  0.54460888121E+02  0.00000000000E+00 0. -1.
          2   -1    0    0  502    0 -0.00000000000E+00 -0.00000000000E+00 -0.43425353035E+03  0.43425353035E+03  0.00000000000E+00 0. -1.
         24    2    1    2    0    0  0.39616952245E+02 -0.22996943119E+02 -0.23142702533E+03  0.24747217064E+03  0.74737172091E+02 0.  0.
         23    2    1    2    0    0 -0.16598607657E+02  0.64553588820E+02 -0.15300793051E+03  0.19351018246E+03  0.97939186788E+02 0.  0.
        -13    1    3    3    0    0 -0.44605439056E+01  0.22622048586E+02 -0.45265851402E+02  0.50800106666E+02  0.00000000000E+00 0.  1.
         14    1    3    3    0    0  0.44077496150E+02 -0.45618991705E+02 -0.18616117393E+03  0.19667206398E+03  0.00000000000E+00 0. -1.
        -13    1    4    4    0    0 -0.53454658208E+02  0.49891748390E+02 -0.68670149501E+02  0.10031040063E+03  0.00000000000E+00 0.  1.
         13    1    4    4    0    0  0.36856050550E+02  0.14661840430E+02 -0.84337781012E+02  0.93199781829E+02  0.00000000000E+00 0. -1.
          1    1    1    2  501    0 -0.23018344587E+02 -0.41556645702E+02  0.46423136086E+01  0.47732065377E+02  0.00000000000E+00 0. -1.
<scales pt_clust_5="13000.00000" pt_clust_6="13000.00000" pt_clust_7="13000.00000" pt_clust_8="13000.00000" pt_clust_9="47.50578"></scales>
<clustering>
<clus scale="   47.506">  1  9  2 -1</clus>
<clus scale="   74.737">  5  6 -1 -1</clus>
<clus scale="   88.829">  2  5  1 -1</clus>
<clus scale="   97.939">  7  8 -1 -1</clus>
<clus scale="   47.506">  1  5  2 -1</clus>
</clustering>
</event>
<event>
 9    2  0.5615294E-005  0.3814669E+03  0.7546771E-02  0.1097472E+00
         -1   -1    0    0    0  501 -0.00000000000E+00  0.00000000000E+00  0.57444732718E+03  0.57444732718E+03  0.00000000000E+00 0.  1.
         21   -1    0    0  501  502  0.00000000000E+00 -0.00000000000E+00 -0.41785834689E+03  0.41785834689E+03  0.00000000000E+00 0.  1.
         24    2    1    2    0    0  0.69193764865E+02  0.30482348097E+01  0.18833525125E+03  0.21596506550E+03  0.79835291821E+02 0.  0.
         23    2    1    2    0    0  0.10150282305E+03 -0.34335525860E+03  0.83729897277E+02  0.37849523534E+03  0.89734557341E+02 0.  0.
        -13    1    3    3    0    0  0.76787592862E+02  0.17704882871E+02  0.18192201763E+03  0.19825594012E+03  0.00000000000E+00 0.  1.
         14    1    3    3    0    0 -0.75938279975E+01 -0.14656648062E+02  0.64132336186E+01  0.17709125374E+02  0.00000000000E+00 0. -1.
        -13    1    4    4    0    0  0.63239144972E+02 -0.91007908481E+02  0.48014041119E+02  0.12077655819E+03  0.00000000000E+00 0. -1.
         13    1    4    4    0    0  0.38263678076E+02 -0.25234735012E+03  0.35715856158E+02  0.25771867715E+03  0.00000000000E+00 0.  1.
         -2    1    1    2    0  502 -0.17069658791E+03  0.34030702379E+03 -0.11547616824E+03  0.39784537323E+03  0.00000000000E+00 0.  1.
<scales pt_clust_5="13000.00000" pt_clust_6="13000.00000" pt_clust_7="13000.00000" pt_clust_8="13000.00000" pt_clust_9="370.76228"></scales>
<clustering>
<clus scale="   79.835">  5  6 -1 -1</clus>
<clus scale="   89.735">  7  8 -1 -1</clus>
<clus scale="  105.692">  1  5  2 -1</clus>
<clus scale="  370.762">  2  9  1 -1</clus>
<clus scale="  370.762">  2  5  1 -1</clus>
</clustering>
</event>
<event>
 9    2  0.5615294E-005  0.1244712E+03  0.7546771E-02  0.1238531E+00
          2   -1    0    0  502    0 -0.00000000000E+00  0.00000000000E+00  0.14325223542E+04  0.14325223542E+04  0.00000000000E+00 0. -1.
         21   -1    0    0  501  502  0.00000000000E+00 -0.00000000000E+00 -0.78889690923E+02  0.78889690923E+02  0.00000000000E+00 0.  1.
         24    2    1    2    0    0  0.71333262388E+02  0.48515655046E+02  0.13492483760E+04  0.13544547297E+04  0.81450793026E+02 0.  0.
         23    2    1    2    0    0 -0.37677562251E+02 -0.63354778220E+02  0.17055636949E+02  0.11805398862E+03  0.90622419176E+02 0.  0.
        -13    1    3    3    0    0  0.37592351188E+02  0.35746819449E+02  0.29073114204E+03  0.29532290281E+03  0.00000000000E+00 0.  1.
         14    1    3    3    0    0  0.33740911200E+02  0.12768835597E+02  0.10585172339E+04  0.10591318269E+04  0.00000000000E+00 0. -1.
        -13    1    4    4    0    0 -0.39567690868E+02  0.46175557319E+01 -0.15397010530E+02  0.42708218353E+02  0.00000000000E+00 0.  1.
         13    1    4    4    0    0  0.18901286177E+01 -0.67972333952E+02  0.32452647480E+02  0.75345770269E+02  0.00000000000E+00 0. -1.
          1    1    1    2  501    0 -0.33655700137E+02  0.14839123174E+02 -0.12671349689E+02  0.38903326738E+02  0.00000000000E+00 0. -1.
<scales pt_clust_5="13000.00000" pt_clust_6="13000.00000" pt_clust_7="13000.00000" pt_clust_8="13000.00000" pt_clust_9="36.78187"></scales>
<clustering>
<clus scale="   36.782">  2  9  1 -1</clus>
<clus scale="   81.451">  5  6 -1 -1</clus>
<clus scale="   90.622">  7  8 -1 -1</clus>
<clus scale="  117.961">  1  5  2 -1</clus>
<clus scale="   36.782">  2  5  1 -1</clus>
</clustering>
</event>
<event>
 9    2  0.5615294E-005  0.1487818E+03  0.7546771E-02  0.1222135E+00
         21   -1    0    0  501  502  0.00000000000E+00  0.00000000000E+00  0.10500155317E+03  0.10500155317E+03  0.00000000000E+00 0.  1.
          2   -1    0    0  502    0 -0.00000000000E+00 -0.00000000000E+00 -0.50695524873E+03  0.50695524873E+03  0.00000000000E+00 0. -1.
         24    2    1    2    0    0  0.52511810841E+02  0.17086586787E+02  0.17199215866E+02  0.98398802300E+02  0.79605712998E+02 0.  0.
         23    2    1    2    0    0 -0.40454446297E+02 -0.12966348533E+03 -0.33305881617E+03  0.37132181798E+03  0.92209195962E+02 0.  0.
        -11    1    3    3    0    0  0.72583851132E+02  0.90736584358E+01  0.44004587980E+01  0.73281039568E+02  0.00000000000E+00 0.  1.
         12    1    3    3    0    0 -0.20072040291E+02  0.80129283516E+01  0.12798757068E+02  0.25117762733E+02  0.00000000000E+00 0. -1.
        -13    1    4    4    0    0 -0.16149104952E+02 -0.13660497614E+03 -0.29674295041E+03  0.32707505517E+03  0.00000000000E+00 0. -1.
         13    1    4    4    0    0 -0.24305341345E+02  0.69414908075E+01 -0.36315865760E+02  0.44246762802E+02  0.00000000000E+00 0.  1.
          1    1    1    2  501    0 -0.12057364544E+02  0.11257689854E+03 -0.86094095251E+02  0.14223618162E+03  0.00000000000E+00 0. -1.
<scales pt_clust_5="13000.00000" pt_clust_6="13000.00000" pt_clust_7="13000.00000" pt_clust_8="13000.00000" pt_clust_9="116.76247"></scales>
<clustering>
<clus scale="   79.606">  5  6 -1 -1</clus>
<clus scale="   92.209">  7  8 -1 -1</clus>
<clus scale="   96.884">  2  5  1 -1</clus>
<clus scale="  116.762">  1  9  2 -1</clus>
<clus scale="  116.762">  1  5  2 -1</clus>
</clustering>
</event>
<event>
 9    2  0.5615294E-005  0.3000420E+03  0.7546771E-02  0.1085220E+00
          2   -1    0    0  502    0 -0.00000000000E+00  0.00000000000E+00  0.11327633192E+03  0.11327633192E+03  0.00000000000E+00 0. -1.
         21   -1    0    0  501  502  0.00000000000E+00 -0.00000000000E+00 -0.65823488772E+03  0.65823488772E+03  0.00000000000E+00 0. -1.
         24    2    1    2    0    0  0.63551600282E+02  0.87910504558E+02 -0.83275892020E+02  0.15836936141E+03  0.79868127137E+02 0.  0.
         23    2    1    2    0    0  0.50209338657E+02  0.12489971059E+03 -0.16766255381E+03  0.23277681781E+03  0.89181834288E+02 0.  0.
        -11    1    3    3    0    0  0.10054719801E+02  0.66957019660E+02 -0.73774507816E+02  0.10013499826E+03  0.00000000000E+00 0.  1.
         12    1    3    3    0    0  0.53496880481E+02  0.20953484898E+02 -0.95013842038E+01  0.58234363157E+02  0.00000000000E+00 0. -1.
        -11    1    4    4    0    0 -0.24981942414E+02  0.39947751761E+02 -0.38333170796E+02  0.60740038696E+02  0.00000000000E+00 0.  1.
         11    1    4    4    0    0  0.75191281070E+02  0.84951958829E+02 -0.12932938302E+03  0.17203677912E+03  0.00000000000E+00 0. -1.
          1    1    1    2  501    0 -0.11376093894E+03 -0.21281021515E+03 -0.29402010997E+03  0.38036504041E+03  0.00000000000E+00 0. -1.
<scales pt_clust_5="13000.00000" pt_clust_6="13000.00000" pt_clust_7="13000.00000" pt_clust_8="13000.00000" pt_clust_9="241.30839"></scales>
<clustering>
<clus scale="   79.868">  5  6 -1 -1</clus>
<clus scale="   89.182">  7  8 -1 -1</clus>
<clus scale="  102.662">  5  7 -1 -1</clus>
<clus scale="  241.308">  2  9  1 -1</clus>
<clus scale="  241.308">  2  5  1 -1</clus>
</clustering>
</event>
<event>
 9    2  0.5615294E-005  0.9254486E+02  0.7546771E-02  0.1303955E+00
         21   -1    0    0  501  502  0.00000000000E+00  0.00000000000E+00  0.25143420426E+02  0.25143420426E+02  0.00000000000E+00 0. -1.
          2   -1    0    0  502    0 -0.00000000000E+00 -0.00000000000E+00 -0.51183644545E+03  0.51183644545E+03  0.00000000000E+00 0. -1.
         24    2    1    2    0    0  0.19571179353E+01 -0.12297273505E+02 -0.25853082688E+03  0.27111999209E+03  0.80701972825E+02 0.  0.
         23    2    1    2    0    0  0.14560410980E+02 -0.45913672755E+01 -0.10542712924E+03  0.14087206603E+03  0.92179027907E+02 0.  0.
        -13    1    3    3    0    0  0.25623210681E+02  0.26070751379E+02 -0.11259853323E+03  0.11838354061E+03  0.00000000000E+00 0.  1.
         14    1    3    3    0    0 -0.23666092746E+02 -0.38368024884E+02 -0.14593229365E+03  0.15273645148E+03  0.00000000000E+00 0. -1.
        -11    1    4    4    0    0  0.27369667446E+02 -0.28181562806E+02 -0.10699873789E+03  0.11398258239E+03  0.00000000000E+00 0.  1.
         11    1    4    4    0    0 -0.12809256466E+02  0.23590195531E+02  0.15716086540E+01  0.26889483635E+02  0.00000000000E+00 0. -1.
          1    1    1    2  501    0 -0.16517528915E+02  0.16888640781E+02 -0.12273506891E+03  0.12498780776E+03  0.00000000000E+00 0. -1.
<scales pt_clust_5="13000.00000" pt_clust_6="13000.00000" pt_clust_7="13000.00000" pt_clust_8="13000.00000" pt_clust_9="23.62320"></scales>
<clustering>
<clus scale="   23.623">  1  9  2 -1</clus>
<clus scale="   80.702">  5  6 -1 -1</clus>
<clus scale="   81.120">  2  5  1 -1</clus>
<clus scale="   92.179">  7  8 -1 -1</clus>
<clus scale="   23.623">  1  5  2 -1</clus>
</clustering>
</event>
<event>
 9    2  0.5615294E-005  0.9459316E+02  0.7546771E-02  0.1298991E+00
         -3   -1    0    0    0  501 -0.00000000000E+00  0.00000000000E+00  0.14284274270E+03  0.14284274270E+03  0.00000000000E+00 0.  1.
         21   -1    0    0  501  502  0.00000000000E+00 -0.00000000000E+00 -0.13912748308E+03  0.13912748308E+03  0.00000000000E+00 0. -1.
         24    2    1    2    0    0  0.23812132502E+02  0.11655870689E+02  0.98991401507E+02  0.12974693045E+03  0.79574439444E+02 0.  0.
         23    2    1    2    0    0 -0.40289395792E+01 -0.18736581594E+02 -0.59490469161E+02  0.11072479462E+03  0.91397879505E+02 0.  0.
        -11    1    3    3    0    0 -0.21337497618E+02  0.18069920419E+02  0.70830546194E+02  0.76149701921E+02  0.00000000000E+00 0.  1.
         12    1    3    3    0    0  0.45149630120E+02 -0.64140497303E+01  0.28160855312E+02  0.53597228527E+02  0.00000000000E+00 0. -1.
        -13    1    4    4    0    0 -0.46425754880E+02 -0.60591859054E+01 -0.42787419076E+02  0.63425765121E+02  0.00000000000E+00 0.  1.
         13    1    4    4    0    0  0.42396815301E+02 -0.12677395688E+02 -0.16703050085E+02  0.47299029495E+02  0.00000000000E+00 0. -1.
         -4    1    1    2    0  502 -0.19783192923E+02  0.70807109047E+01 -0.35785672729E+02  0.41498500718E+02  0.00000000000E+00 0.  1.
<scales pt_clust_5="13000.00000" pt_clust_6="13000.00000" pt_clust_7="13000.00000" pt_clust_8="13000.00000" pt_clust_9="21.01217"></scales>
<clustering>
<clus scale="   21.012">  2  9  1 -1</clus>
<clus scale="   79.574">  5  6 -1 -1</clus>
<clus scale="   83.225">  1  5  2 -1</clus>
<clus scale="   91.398">  7  8 -1 -1</clus>
<clus scale="   21.012">  2  5  1 -1</clus>
</clustering>
</event>
<event>
 9    2  0.5615294E-005  0.1426137E+03  0.7546771E-02  0.1212443E+00
         21   -1    0    0  501  502  0.00000000000E+00  0.00000000000E+00  0.10250899357E+03  0.10250899357E+03  0.00000000000E+00 0. -1.
          2   -1    0    0  502    0 -0.00000000000E+00 -0.00000000000E+00 -0.32691600582E+03  0.32691600582E+03  0.00000000000E+00 0. -1.
         23    2    1    2    0    0  0.87453115562E+02  0.68276219123E+02 -0.18472293419E+03  0.23521604985E+03  0.94309798929E+02 0.  0.
         24    2    1    2    0    0 -0.63084135034E+02 -0.73230844094E+02  0.20970532490E+02  0.12865456524E+03  0.82279215499E+02 0.  0.
        -11    1    4    4    0    0  0.17674114881E+02 -0.23659770449E+02  0.16412298207E+02  0.33786426372E+02  0.00000000000E+00 0.  1.
         12    1    4    4    0    0 -0.80758249915E+02 -0.49571073645E+02  0.45582342832E+01  0.94868138863E+02  0.00000000000E+00 0. -1.
        -11    1    3    3    0    0  0.98106534924E+01 -0.22934432295E+02 -0.42423556831E+02  0.49213771252E+02  0.00000000000E+00 0.  1.
         11    1    3    3    0    0  0.77642462070E+02  0.91210651418E+02 -0.14229937736E+03  0.18600227860E+03  0.00000000000E+00 0. -1.
          1    1    1    2  501    0 -0.24368980528E+02  0.49546249714E+01 -0.60654610553E+02  0.65554384307E+02  0.00000000000E+00 0. -1.
<scales pt_clust_5="13000.00000" pt_clust_6="13000.00000" pt_clust_7="13000.00000" pt_clust_8="13000.00000" pt_clust_9="24.86757"></scales>
<clustering>
<clus scale="   24.868">  1  9  2 -1</clus>
<clus scale="   82.279">  5  6 -1 -1</clus>
<clus scale="   94.310">  7  8 -1 -1</clus>
<clus scale="  134.960">  1  5  2 -1</clus>
<clus scale="   24.868">  1  5  2 -1</clus>
</clustering>
</event>
<event>
 9    2  0.5615294E-005  0.1149685E+03  0.7546771E-02  0.1255116E+00
         -1   -1    0    0    0  501 -0.00000000000E+00  0.00000000000E+00  0.52439066797E+02  0.52439066797E+02  0.00000000000E+00 0.  1.
         21   -1    0    0  501  502  0.00000000000E+00 -0.00000000000E+00 -0.41940736386E+03  0.41940736386E+03  0.00000000000E+00 0. -1.
         23    2    1    2    0    0  0.89544466681E+02 -0.17391949246E+02 -0.82580587259E+02  0.15266400086E+03  0.90366212457E+02 0.  0.
         24    2    1    2    0    0 -0.34750980751E+02  0.92350469087E+01 -0.19603538339E+03  0.21489918695E+03  0.80367109299E+02 0.  0.
        -13    1    4    4    0    0 -0.23650387727E+02 -0.27110696394E+02 -0.37879956325E+02  0.52241954307E+02  0.00000000000E+00 0.  1.
         14    1    4    4    0    0 -0.11100593024E+02  0.36345743303E+02 -0.15815542706E+03  0.16265723264E+03  0.00000000000E+00 0. -1.
        -13    1    3    3    0    0 -0.37046860179E+00  0.27765340606E+02 -0.18840944243E+02  0.33556408716E+02  0.00000000000E+00 0. -1.
         13    1    3    3    0    0  0.89914935283E+02 -0.45157289852E+02 -0.63739643016E+02  0.11910759214E+03  0.00000000000E+00 0.  1.
         -2    1    1    2    0  502 -0.54793485931E+02  0.81569023373E+01 -0.88352326416E+02  0.10428324285E+03  0.00000000000E+00 0.  1.
<scales pt_clust_5="13000.00000" pt_clust_6="13000.00000" pt_clust_7="13000.00000" pt_clust_8="13000.00000" pt_clust_9="55.39730"></scales>
<clustering>
<clus scale="   55.397">  2  9  1 -1</clus>
<clus scale="   80.367">  5  6 -1 -1</clus>
<clus scale="   90.366">  7  8 -1 -1</clus>
<clus scale="  107.287">  2  5  1 -1</clus>
<clus scale="   55.397">  2  5  1 -1</clus>
</clustering>
</event>
<event>
 9    2  0.5615294E-005  0.9445671E+02  0.7546771E-02  0.1299506E+00
         21   -1    0    0  501  502  0.00000000000E+00  0.00000000000E+00  0.21000812385E+03  0.21000812385E+03  0.00000000000E+00 0. -1.
         -1   -1    0    0    0  501 -0.00000000000E+00 -0.00000000000E+00 -0.98316201529E+02  0.98316201529E+02  0.00000000000E+00 0.  1.
         24    2    1    2    0    0  0.19285353079E+02  0.14222240011E+02 -0.56802473005E+02  0.10001413672E+03  0.78753473898E+02 0.  0.
         23    2    1    2    0    0 -0.18368420020E+02 -0.36580851746E+02  0.14368522202E+03  0.17489996020E+03  0.90934017199E+02 0.  0.
        -11    1    3    3    0    0  0.40247319229E+02  0.34596697812E+02 -0.35782222367E+02  0.64008949703E+02  0.00000000000E+00 0.  1.
         12    1    3    3    0    0 -0.20961966150E+02 -0.20374457801E+02 -0.21020250638E+02  0.36005187021E+02  0.00000000000E+00 0. -1.
        -13    1    4    4    0    0 -0.31020903447E+02 -0.11478607917E+02  0.50696624191E+01  0.33462760906E+02  0.00000000000E+00 0.  1.
         13    1    4    4    0    0  0.12652483427E+02 -0.25102243828E+02  0.13861555960E+03  0.14143719930E+03  0.00000000000E+00 0. -1.
         -2    1    1    2    0  502 -0.91693305862E+00  0.22358611735E+02  0.24809173306E+02  0.33410228449E+02  0.00000000000E+00 0.  1.
<scales pt_clust_5="13000.00000" pt_clust_6="13000.00000" pt_clust_7="13000.00000" pt_clust_8="13000.00000" pt_clust_9="22.37741"></scales>
<clustering>
<clus scale="   22.377">  1  9  2 -1</clus>
<clus scale="   78.753">  5  6 -1 -1</clus>
<clus scale="   82.796">  2  5  1 -1</clus>
<clus scale="   90.934">  7  8 -1 -1</clus>
<clus scale="   22.377">  1  5  2 -1</clus>
</clustering>
</event>
<event>
 9    2  0.5615294E-005  0.1532718E+03  0.7546771E-02  0.1220024E+00
         -3   -1    0    0    0  501 -0.00000000000E+00  0.00000000000E+00  0.92723116105E+03  0.92723116105E+03  0.00000000000E+00 0.  1.
         21   -1    0    0  501  502  0.00000000000E+00 -0.00000000000E+00 -0.44028236755E+02  0.44028236755E+02  0.00000000000E+00 0.  1.
         23    2    1    2    0    0  0.12391822540E+02  0.70635860986E+01  0.92107407165E+02  0.13062688001E+03  0.91521340741E+02 0.  0.
         24    2    1    2    0    0  0.19833513886E+02  0.12342444544E+03  0.39230889229E+03  0.41980432146E+03  0.81868427010E+02 0.  0.
        -13    1    4    4    0    0 -0.63646575657E+01  0.12146540506E+03  0.34309679273E+03  0.36401890428E+03  0.00000000000E+00 0.  1.
         14    1    4    4    0    0  0.26198171452E+02  0.19590403791E+01  0.49212099557E+02  0.55785417176E+02  0.00000000000E+00 0. -1.
        -11    1    3    3    0    0  0.25717882657E+02 -0.35034585507E+02  0.66911789212E+02  0.79787337376E+02  0.00000000000E+00 0. -1.
         11    1    3    3    0    0 -0.13326060117E+02  0.42098171606E+02  0.25195617954E+02  0.50839542630E+02  0.00000000000E+00 0.  1.
         -4    1    1    2    0  502 -0.32225336426E+02 -0.13048803154E+03  0.39878662484E+03  0.42082819634E+03  0.00000000000E+00 0.  1.
<scales pt_clust_5="13000.00000" pt_clust_6="13000.00000" pt_clust_7="13000.00000" pt_clust_8="13000.00000" pt_clust_9="129.57558"></scales>
<clustering>
<clus scale="   81.868">  5  6 -1 -1</clus>
<clus scale="   91.521">  7  8 -1 -1</clus>
<clus scale="   92.626">  1  7  2 -1</clus>
<clus scale="  129.576">  2  9  1 -1</clus>
<clus scale="  129.576">  2  5  1 -1</clus>
</clustering>
</event>
<event>
 9    2  0.5615294E-005  0.1055895E+03  0.7546771E-02  0.1274167E+00
          2   -1    0    0  502    0 -0.00000000000E+00  0.00000000000E+00  0.12363840437E+03  0.12363840437E+03  0.00000000000E+00 0. -1.
         21   -1    0    0  501  502  0.00000000000E+00 -0.00000000000E+00 -0.18049004763E+03  0.18049004763E+03  0.00000000000E+00 0. -1.
         23    2    1    2    0    0  0.52647610470E+02  0.10362032643E+02  0.64585612327E+02  0.12458782062E+03  0.92041735738E+02 0.  0.
         24    2    1    2    0    0 -0.44550886120E+02  0.81289436857E+01 -0.12851747336E+03  0.15814898268E+03  0.80271405770E+02 0.  0.
        -11    1    4    4    0    0 -0.44248571189E+00  0.24664729741E+02 -0.39637389317E+01  0.24985113830E+02  0.00000000000E+00 0.  1.
         12    1    4    4    0    0 -0.44108400408E+02 -0.16535786055E+02 -0.12455373443E+03  0.13316386885E+03  0.00000000000E+00 0. -1.
        -13    1    3    3    0    0  0.75700387487E+02  0.24371073403E+02  0.49661225257E+02  0.93758920528E+02  0.00000000000E+00 0. -1.
         13    1    3    3    0    0 -0.23052777018E+02 -0.14009040760E+02  0.14924387070E+02  0.30828900089E+02  0.00000000000E+00 0.  1.
          1    1    1    2  501    0 -0.80967243496E+01 -0.18490976329E+02  0.70802177704E+01  0.21391648708E+02  0.00000000000E+00 0. -1.
<scales pt_clust_5="13000.00000" pt_clust_6="13000.00000" pt_clust_7="13000.00000" pt_clust_8="13000.00000" pt_clust_9="20.18597"></scales>
<clustering>
<clus scale="   20.186">  2  9  1 -1</clus>
<clus scale="   80.271">  5  6 -1 -1</clus>
<clus scale="   92.042">  7  8 -1 -1</clus>
<clus scale="   95.504">  2  5  1 -1</clus>
<clus scale="   20.186">  2  5  1 -1</clus>
</clustering>
</event>
<event>
 9    2  0.5615294E-005  0.1032959E+03  0.7546771E-02  0.1275826E+00
          4   -1    0    0  502    0 -0.00000000000E+00  0.00000000000E+00  0.31334963459E+03  0.31334963459E+03  0.00000000000E+00 0. -1.
         21   -1    0    0  501  502  0.00000000000E+00 -0.00000000000E+00 -0.82682706980E+02  0.82682706980E+02  0.00000000000E+00 0.  1.
         24    2    1    2    0    0  0.39401913439E+01 -0.28984610132E+02  0.57210346851E+02  0.10605627131E+03  0.84375803192E+02 0.  0.
         23    2    1    2    0    0 -0.63613595427E+02  0.77236950276E+02  0.47451381710E+02  0.14244128226E+03  0.89585988046E+02 0.  0.
        -11    1    3    3    0    0  0.15510712554E+02  0.20862105089E+02  0.47242130853E+02  0.53922430957E+02  0.00000000000E+00 0.  1.
         12    1    3    3    0    0 -0.11570521211E+02 -0.49846715221E+02  0.99682159975E+01  0.52133840350E+02  0.00000000000E+00 0. -1.
        -11    1    4    4    0    0 -0.25500256407E+02  0.11100871264E+02  0.59013201351E+02  0.65238411640E+02  0.00000000000E+00 0. -1.
         11    1    4    4    0    0 -0.38113339020E+02  0.66136079012E+02 -0.11561819640E+02  0.77202870619E+02  0.00000000000E+00 0.  1.
          3    1    1    2  501    0  0.59673404083E+02 -0.48252340144E+02  0.12600519905E+03  0.14753478800E+03  0.00000000000E+00 0. -1.
<scales pt_clust_5="13000.00000" pt_clust_6="13000.00000" pt_clust_7="13000.00000" pt_clust_8="13000.00000" pt_clust_9="76.74118"></scales>
<clustering>
<clus scale="   76.741">  2  9  1 -1</clus>
<clus scale="   84.376">  5  6 -1 -1</clus>
<clus scale="   89.586">  7  8 -1 -1</clus>
<clus scale="   98.811">  1  5  2 -1</clus>
<clus scale="   76.741">  2  5  1 -1</clus>
</clustering>
</event>
<event>
 9    2  0.5615294E-005  0.1053913E+03  0.7546771E-02  0.1275428E+00
          2   -1    0    0  502    0 -0.00000000000E+00  0.00000000000E+00  0.91083765279E+03  0.91083765279E+03  0.00000000000E+00 0. -1.
         21   -1    0    0  501  502  0.00000000000E+00 -0.00000000000E+00 -0.79210666440E+02  0.79210666440E+02  0.00000000000E+00 0. -1.
         24    2    1    2    0    0  0.52503940342E+02  0.17712694671E+02  0.80374299713E+03  0.80934173615E+03  0.77206457833E+02 0.  0.
         23    2    1    2    0    0 -0.28818794755E+02 -0.21635633587E+02  0.77992044187E+02  0.12514407104E+03  0.90992615026E+02 0.  0.
        -11    1    3    3    0    0  0.33856105763E+02 -0.66162724182E+00  0.10975336780E+03  0.11485850161E+03  0.00000000000E+00 0.  1.
         12    1    3    3    0    0  0.18647834579E+02  0.18374321913E+02  0.69398962933E+03  0.69448323454E+03  0.00000000000E+00 0. -1.
        -11    1    4    4    0    0 -0.25317021767E+02  0.12410016754E+02 -0.10638171833E+02  0.30135208759E+02  0.00000000000E+00 0.  1.
         11    1    4    4    0    0 -0.35017729874E+01 -0.34045650341E+02  0.88630216019E+02  0.95008862286E+02  0.00000000000E+00 0. -1.
          1    1    1    2  501    0 -0.23685145587E+02  0.39229389160E+01 -0.50108054967E+02  0.55562512037E+02  0.00000000000E+00 0. -1.
<scales pt_clust_5="13000.00000" pt_clust_6="13000.00000" pt_clust_7="13000.00000" pt_clust_8="13000.00000" pt_clust_9="24.00782"></scales>
<clustering>
<clus scale="   24.008">  2  9  1 -1</clus>
<clus scale="   77.206">  5  6 -1 -1</clus>
<clus scale="   90.993">  7  8 -1 -1</clus>
<clus scale="   93.747">  1  5  2 -1</clus>
<clus scale="   24.008">  2  5  1 -1</clus>
</clustering>
</event>
<event>
 9    2  0.5615294E-005  0.1423754E+03  0.7546771E-02  0.1231061E+00
          2   -1    0    0  502    0 -0.00000000000E+00  0.00000000000E+00  0.33020670173E+03  0.33020670173E+03  0.00000000000E+00 0. -1.
         21   -1    0    0  501  502  0.00000000000E+00 -0.00000000000E+00 -0.15902047296E+03  0.15902047296E+03  0.00000000000E+00 0. -1.
         23    2    1    2    0    0 -0.20114985269E+01  0.12775093683E+01 -0.45685062657E+02  0.10258758513E+03  0.91822706974E+02 0.  0.
         24    2    1    2    0    0  0.38635377461E+02 -0.10890400420E+03  0.23106989314E+03  0.27206921299E+03  0.85297049301E+02 0.  0.
        -13    1    4    4    0    0 -0.20265991516E+02 -0.30570492341E+02  0.26549975682E+02  0.45278765695E+02  0.00000000000E+00 0.  1.
         14    1    4    4    0    0  0.58901368977E+02 -0.78333511855E+02  0.20451991746E+03  0.22679044730E+03  0.00000000000E+00 0. -1.
        -13    1    3    3    0    0 -0.39248308821E+02  0.23500886803E+02 -0.10979538975E+02  0.47045421689E+02  0.00000000000E+00 0.  1.
         13    1    3    3    0    0  0.37236810294E+02 -0.22223377435E+02 -0.34705523682E+02  0.55542163439E+02  0.00000000000E+00 0. -1.
          1    1    1    2  501    0 -0.36623878934E+02  0.10762649483E+03 -0.14198601710E+02  0.11457037657E+03  0.00000000000E+00 0. -1.
<scales pt_clust_5="13000.00000" pt_clust_6="13000.00000" pt_clust_7="13000.00000" pt_clust_8="13000.00000" pt_clust_9="113.99634"></scales>
<clustering>
<clus scale="   85.297">  5  6 -1 -1</clus>
<clus scale="   91.823">  7  8 -1 -1</clus>
<clus scale="   91.854">  1  7  2 -1</clus>
<clus scale="  113.996">  2  9  1 -1</clus>
<clus scale="  113.996">  2  5  1 -1</clus>
</clustering>
</event>
<event>
 9    2  0.5615294E-005  0.1009127E+03  0.7546771E-02  0.1286707E+00
          2   -1    0    0  502    0 -0.00000000000E+00  0.00000000000E+00  0.90867994866E+03  0.90867994866E+03  0.00000000000E+00 0. -1.
         21   -1    0    0  501  502  0.00000000000E+00 -0.00000000000E+00 -0.42347159681E+02  0.42347159681E+02  0.00000000000E+00 0. -1.
         24    2    1    2    0    0 -0.41167273605E+02 -0.11216246879E+02  0.73124338509E+03  0.73670667492E+03  0.78735557580E+02 0.  0.
         23    2    1    2    0    0 -0.53871106018E+01 -0.79928366778E+01  0.13352241266E+03  0.16393437343E+03  0.94622078351E+02 0.  0.
        -13    1    3    3    0    0 -0.20104017324E+02 -0.36869353713E+02  0.19665442641E+03  0.20108824974E+03  0.00000000000E+00 0.  1.
         14    1    3    3    0    0 -0.21063256281E+02  0.25653106833E+02  0.53458895868E+03  0.53561842518E+03  0.00000000000E+00 0. -1.
        -13    1    4    4    0    0  0.21640012921E+02  0.28342728633E+00 -0.52853378507E+01  0.22277910280E+02  0.00000000000E+00 0.  1.
         13    1    4    4    0    0 -0.27027123523E+02 -0.82762639641E+01  0.13880775051E+03  0.14165646315E+03  0.00000000000E+00 0. -1.
          1    1    1    2  501    0  0.46554384207E+02  0.19209083557E+02  0.15669912355E+01  0.50386059992E+02  0.00000000000E+00 0. -1.
<scales pt_clust_5="13000.00000" pt_clust_6="13000.00000" pt_clust_7="13000.00000" pt_clust_8="13000.00000" pt_clust_9="50.36169"></scales>
<clustering>
<clus scale="   50.362">  2  9  1 -1</clus>
<clus scale="   78.736">  5  6 -1 -1</clus>
<clus scale="   86.193">  1  5  2 -1</clus>
<clus scale="   94.622">  7  8 -1 -1</clus>
<clus scale="   50.362">  2  5  1 -1</clus>
</clustering>
</event>
<event>
 9    2  0.5615294E-005  0.3775093E+03  0.7546771E-02  0.1052075E+00
         21   -1    0    0  501  502  0.00000000000E+00  0.00000000000E+00  0.21183481306E+03  0.21183481306E+03  0.00000000000E+00 0. -1.
          2   -1    0    0  502    0 -0.00000000000E+00 -0.00000000000E+00 -0.10565372117E+04  0.10565372117E+04  0.00000000000E+00 0. -1.
         24    2    1    2    0    0 -0.24634241298E+03  0.29054114701E+03 -0.49034141265E+03  0.62622894690E+03  0.81420209056E+02 0.  0.
         23    2    1    2    0    0  0.14606026807E+03 -0.31347186871E+03 -0.10566190467E+03  0.37300824245E+03  0.91501346703E+02 0.  0.
        -13    1    3    3    0    0 -0.10459533654E+03  0.11540490607E+03 -0.13847756356E+03  0.20840948246E+03  0.00000000000E+00 0.  1.
         14    1    3    3    0    0 -0.14174707644E+03  0.17513624094E+03 -0.35186384909E+03  0.41781946444E+03  0.00000000000E+00 0. -1.
        -13    1    4    4    0    0  0.85241639504E+02 -0.89819650787E+02 -0.17624972507E+02  0.12507736178E+03  0.00000000000E+00 0.  1.
         13    1    4    4    0    0  0.60818628570E+02 -0.22365221793E+03 -0.88036932168E+02  0.24793088067E+03  0.00000000000E+00 0. -1.
          1    1    1    2  501    0  0.10028214490E+03  0.22930721701E+02 -0.24869908132E+03  0.26913483541E+03  0.00000000000E+00 0. -1.
<scales pt_clust_5="13000.00000" pt_clust_6="13000.00000" pt_clust_7="13000.00000" pt_clust_8="13000.00000" pt_clust_9="102.87049"></scales>
<clustering>
<clus scale="   81.420">  5  6 -1 -1</clus>
<clus scale="   91.501">  7  8 -1 -1</clus>
<clus scale="  102.870">  1  9  2 -1</clus>
<clus scale="  375.193">  2  5  1 -1</clus>
<clus scale="  102.870">  1  5  2 -1</clus>
</clustering>
</event>
<event>
 9    2  0.5615294E-005  0.2317387E+03  0.7546771E-02  0.1126064E+00
          2   -1    0    0  502    0 -0.00000000000E+00  0.00000000000E+00  0.21132438194E+04  0.21132438194E+04  0.00000000000E+00 0. -1.
         21   -1    0    0  501  502  0.00000000000E+00 -0.00000000000E+00 -0.52994302492E+02  0.52994302492E+02  0.00000000000E+00 0.  1.
         23    2    1    2    0    0  0.21070514954E+03 -0.82143760196E+02  0.12301299584E+04  0.12540401039E+04  0.90843877505E+02 0.  0.
         24    2    1    2    0    0 -0.19530483707E+03  0.42361123585E+02  0.84096827538E+03  0.86818072080E+03  0.81065896711E+02 0.  0.
        -13    1    4    4    0    0 -0.66156324299E+01  0.24619553701E+02  0.79806322882E+02  0.83779103533E+02  0.00000000000E+00 0.  1.
         14    1    4    4    0    0 -0.18868920464E+03  0.17741569883E+02  0.76116195250E+03  0.78440161727E+03  0.00000000000E+00 0. -1.
        -11    1    3    3    0    0  0.49498861336E+02  0.13423699593E+02  0.17357090119E+03  0.18098947683E+03  0.00000000000E+00 0.  1.
         11    1    3    3    0    0  0.16120628821E+03 -0.95567459789E+02  0.10565590572E+04  0.10730506270E+04  0.00000000000E+00 0. -1.
          1    1    1    2  501    0 -0.15400312469E+02  0.39782636611E+02 -0.10848716872E+02  0.44017297255E+02  0.00000000000E+00 0. -1.
<scales pt_clust_5="13000.00000" pt_clust_6="13000.00000" pt_clust_7="13000.00000" pt_clust_8="13000.00000" pt_clust_9="42.65944"></scales>
<clustering>
<clus scale="   42.659">  2  9  1 -1</clus>
<clus scale="   81.066">  5  6 -1 -1</clus>
<clus scale="   90.844">  7  8 -1 -1</clus>
<clus scale="  228.083">  2  5  1 -1</clus>
<clus scale="   42.659">  2  5  1 -1</clus>
</clustering>
</event>
<event>
 9    2  0.5615294E-005  0.8603640E+02  0.7546771E-02  0.1317901E+00
         21   -1    0    0  501  502  0.00000000000E+00  0.00000000000E+00  0.16011212246E+03  0.16011212246E+03  0.00000000000E+00 0. -1.
          2   -1    0    0  502    0 -0.00000000000E+00 -0.00000000000E+00 -0.26993732491E+03  0.26993732491E+03  0.00000000000E+00 0. -1.
         24    2    1    2    0    0 -0.49123028957E-01 -0.94244540923E+01 -0.20741442576E+03  0.22157693840E+03  0.77374239062E+02 0.  0.
         23    2    1    2    0    0 -0.38511961981E+01  0.29965254791E+02 -0.17092527381E+02  0.91900467191E+02  0.85092850292E+02 0.  0.
        -11    1    3    3    0    0 -0.29333389940E+01  0.31974095949E+02 -0.12809079758E+03  0.13205377584E+03  0.00000000000E+00 0.  1.
         12    1    3    3    0    0  0.28842159650E+01 -0.41398550041E+02 -0.79323628180E+02  0.89523162561E+02  0.00000000000E+00 0. -1.
        -13    1    4    4    0    0  0.71293149847E+01  0.51433841841E+02  0.12814060720E+02  0.53483337319E+02  0.00000000000E+00 0.  1.
         13    1    4    4    0    0 -0.10980511183E+02 -0.21468587050E+02 -0.29906588101E+02  0.38417129872E+02  0.00000000000E+00 0. -1.
          1    1    1    2  501    0  0.39003192271E+01 -0.20540800699E+02  0.11468175069E+03  0.11657204178E+03  0.00000000000E+00 0. -1.
<scales pt_clust_5="13000.00000" pt_clust_6="13000.00000" pt_clust_7="13000.00000" pt_clust_8="13000.00000" pt_clust_9="20.90782"></scales>
<clustering>
<clus scale="   20.908">  1  9  2 -1</clus>
<clus scale="   77.374">  5  6 -1 -1</clus>
<clus scale="   78.411">  2  5  1 -1</clus>
<clus scale="   85.093">  7  8 -1 -1</clus>
<clus scale="   20.908">  1  5  2 -1</clus>
</clustering>
</event>
<event>
 9    2  0.5615294E-005  0.1210364E+03  0.7546771E-02  0.1249230E+00
          2   -1    0    0  502    0 -0.00000000000E+00  0.00000000000E+00  0.66825743189E+03  0.66825743189E+03  0.00000000000E+00 0. -1.
         21   -1    0    0  501  502  0.00000000000E+00 -0.00000000000E+00 -0.56750262408E+02  0.56750262408E+02  0.00000000000E+00 0. -1.
         24    2    1    2    0    0  0.82100962898E+02  0.33575694243E+02  0.41944196135E+03  0.43678967166E+03  0.83580876860E+02 0.  0.
         23    2    1    2    0    0 -0.47762387338E+02 -0.89035315699E+02  0.38379996922E+02  0.12126278454E+03  0.54982776072E+02 0.  0.
        -11    1    3    3    0    0 -0.84511425514E+01  0.29956462383E+02  0.11608792897E+03  0.12018826357E+03  0.00000000000E+00 0.  1.
         12    1    3    3    0    0  0.90552105449E+02  0.36192318593E+01  0.30335403238E+03  0.31660140809E+03  0.00000000000E+00 0. -1.
        -13    1    4    4    0    0 -0.23880303710E+02 -0.87889179715E+02  0.31746401725E+02  0.96450043228E+02  0.00000000000E+00 0. -1.
         13    1    4    4    0    0 -0.23882083628E+02 -0.11461359834E+01  0.66335951972E+01  0.24812741310E+02  0.00000000000E+00 0.  1.
          1    1    1    2  501    0 -0.34338575560E+02  0.55459621456E+02  0.15368521121E+03  0.16695523810E+03  0.00000000000E+00 0. -1.
<scales pt_clust_5="13000.00000" pt_clust_6="13000.00000" pt_clust_7="13000.00000" pt_clust_8="13000.00000" pt_clust_9="65.22968"></scales>
<clustering>
<clus scale="   54.983">  7  8 -1 -1</clus>
<clus scale="   65.230">  2  9  1 -1</clus>
<clus scale="   83.581">  5  6 -1 -1</clus>
<clus scale="  103.379">  2  7  1 -1</clus>
<clus scale="   65.230">  2  5  1 -1</clus>
</clustering>
</event>
<event>
 9    2  0.5615294E-005  0.1193955E+03  0.7546771E-02  0.1246436E+00
         21   -1    0    0  501  502  0.00000000000E+00  0.00000000000E+00  0.17838409546E+02  0.17838409546E+02  0.00000000000E+00 0. -1.
          2   -1    0    0  502    0 -0.00000000000E+00 -0.00000000000E+00 -0.13285268460E+04  0.13285268460E+04  0.00000000000E+00 0. -1.
         24    2    1    2    0    0  0.44520927167E+02  0.31065699382E+02 -0.38367865288E+03  0.39666700937E+03  0.84783353367E+02 0.  0.
         23    2    1    2    0    0 -0.10666955684E+03 -0.12397650086E+02 -0.62774166597E+03  0.64347552585E+03  0.92027480047E+02 0.  0.
        -11    1    3    3    0    0  0.69884784472E+02  0.18410406344E+02 -0.28164163860E+03  0.29076595185E+03  0.00000000000E+00 0.  1.
         12    1    3    3    0    0 -0.25363857305E+02  0.12655293038E+02 -0.10203701428E+03  0.10590105752E+03  0.00000000000E+00 0. -1.
        -13    1    4    4    0    0 -0.22110862465E+02 -0.44871656315E+02 -0.19120406729E+03  0.19763944730E+03  0.00000000000E+00 0. -1.
         13    1    4    4    0    0 -0.84558694378E+02  0.32474006229E+02 -0.43653759868E+03  0.44583607855E+03  0.00000000000E+00 0.  1.
          1    1    1    2  501    0  0.62148629676E+02 -0.18668049296E+02 -0.29926811755E+03  0.30622272028E+03  0.00000000000E+00 0. -1.
<scales pt_clust_5="13000.00000" pt_clust_6="13000.00000" pt_clust_7="13000.00000" pt_clust_8="13000.00000" pt_clust_9="64.89185"></scales>
<clustering>
<clus scale="   64.892">  1  9  2 -1</clus>
<clus scale="   84.783">  5  6 -1 -1</clus>
<clus scale="   92.027">  7  8 -1 -1</clus>
<clus scale="  113.905">  2  5  1 -1</clus>
<clus scale="   64.892">  1  5  2 -1</clus>
</clustering>
</event>
<event>
 9    2  0.5615294E-005  0.4109453E+03  0.7546771E-02  0.1098210E+00
         21   -1    0    0  501  502  0.00000000000E+00  0.00000000000E+00  0.20687173089E+03  0.20687173089E+03  0.00000000000E+00 0. -1.
          2   -1    0    0  502    0 -0.00000000000E+00 -0.00000000000E+00 -0.15015803324E+04  0.15015803324E+04  0.00000000000E+00 0. -1.
         24    2    1    2    0    0 -0.19340025657E+02 -0.25721981753E+01 -0.29252264389E+03  0.30405095320E+03  0.80602928933E+02 0.  0.
         23    2    1    2    0    0 -0.38385089519E+03  0.99693255416E+02 -0.11171058118E+03  0.42208659099E+03  0.91638318561E+02 0.  0.
        -13    1    3    3    0    0 -0.48348147394E+01  0.38794321447E+02 -0.13754655110E+03  0.14299450524E+03  0.00000000000E+00 0.  1.
         14    1    3    3    0    0 -0.14505210918E+02 -0.41366519623E+02 -0.15497609279E+03  0.16105644795E+03  0.00000000000E+00 0. -1.
        -11    1    4    4    0    0 -0.63184623501E+02 -0.15066590036E+02 -0.31475603460E+02  0.72180415595E+02  0.00000000000E+00 0.  1.
         11    1    4    4    0    0 -0.32066627169E+03  0.11475984545E+03 -0.80234977722E+02  0.34990617539E+03  0.00000000000E+00 0. -1.
          1    1    1    2  501    0  0.40319092085E+03 -0.97121057240E+02 -0.89047537644E+03  0.98231451911E+03  0.00000000000E+00 0. -1.
<scales pt_clust_5="13000.00000" pt_clust_6="13000.00000" pt_clust_7="13000.00000" pt_clust_8="13000.00000" pt_clust_9="400.59785"></scales>
<clustering>
<clus scale="   80.603">  5  6 -1 -1</clus>
<clus scale="   82.931">  2  5  1 -1</clus>
<clus scale="   91.638">  7  8 -1 -1</clus>
<clus scale="  400.598">  1  9  2 -1</clus>
<clus scale="  400.598">  1  5  2 -1</clus>
</clustering>
</event>
<event>
 9    2  0.5615294E-005  0.1543100E+03  0.7546771E-02  0.1211276E+00
         -3   -1    0    0    0  501 -0.00000000000E+00  0.00000000000E+00  0.14416936309E+04  0.14416936309E+04  0.00000000000E+00 0.  1.
         21   -1    0    0  501  502  0.00000000000E+00 -0.00000000000E+00 -0.28654659787E+02  0.28654659787E+02  0.00000000000E+00 0. -1.
         23    2    1    2    0    0 -0.26516645330E+02  0.54525547824E+02  0.50545842811E+03  0.51712375668E+03  0.90843763347E+02 0.  0.
         24    2    1    2    0    0 -0.11230030856E+03 -0.35151656251E+02  0.55652537498E+03  0.57522291316E+03  0.85521392558E+02 0.  0.
        -13    1    4    4    0    0 -0.25209354676E+02  0.27979006023E+02  0.13023237700E+03  0.13556846374E+03  0.00000000000E+00 0.  1.
         14    1    4    4    0    0 -0.87090953885E+02 -0.63130662274E+02  0.42629299798E+03  0.43965444942E+03  0.00000000000E+00 0. -1.
        -11    1    3    3    0    0 -0.23487728449E+02 -0.21874402085E+02  0.12470681723E+03  0.12877093273E+03  0.00000000000E+00 0.  1.
         11    1    3    3    0    0 -0.30289168815E+01  0.76399949909E+02  0.38075161088E+03  0.38835282395E+03  0.00000000000E+00 0. -1.
         -4    1    1    2    0  502  0.13881695389E+03 -0.19373891573E+02  0.35105516802E+03  0.37800162083E+03  0.00000000000E+00 0.  1.
<scales pt_clust_5="13000.00000" pt_clust_6="13000.00000" pt_clust_7="13000.00000" pt_clust_8="13000.00000" pt_clust_9="128.44323"></scales>
<clustering>
<clus scale="   85.521">  5  6 -1 -1</clus>
<clus scale="   90.844">  7  8 -1 -1</clus>
<clus scale="  109.219">  1  7  2 -1</clus>
<clus scale="  128.443">  2  9  1 -1</clus>
<clus scale="  128.443">  2  5  1 -1</clus>
</clustering>
</event>
<event>
 9    2  0.5615294E-005  0.1035123E+03  0.7546771E-02  0.1281299E+00
         21   -1    0    0  501  502  0.00000000000E+00  0.00000000000E+00  0.66433373718E+02  0.66433373718E+02  0.00000000000E+00 0. -1.
          4   -1    0    0  502    0 -0.00000000000E+00 -0.00000000000E+00 -0.32596445498E+03  0.32596445498E+03  0.00000000000E+00 0. -1.
         23    2    1    2    0    0  0.41059856211E+02  0.47335022658E+02 -0.82912307687E+02  0.14004635972E+03  0.93872338545E+02 0.  0.
         24    2    1    2    0    0 -0.37362578572E+02  0.12979037148E+02 -0.26445674604E+02  0.90476778774E+02  0.76956196042E+02 0.  0.
        -11    1    4    4    0    0 -0.53440374848E+02  0.30812137033E+02 -0.24546001141E+02  0.66391020661E+02  0.00000000000E+00 0.  1.
         12    1    4    4    0    0  0.16077796276E+02 -0.17833099886E+02 -0.18996734626E+01  0.24085758113E+02  0.00000000000E+00 0. -1.
        -13    1    3    3    0    0  0.22767108465E+02 -0.16552845943E+02  0.62587567062E+01  0.28835914624E+02  0.00000000000E+00 0.  1.
         13    1    3    3    0    0  0.18292747746E+02  0.63887868601E+02 -0.89171064393E+02  0.11121044510E+03  0.00000000000E+00 0. -1.
          3    1    1    2  501    0 -0.36972776391E+01 -0.60314059806E+02 -0.15017309897E+03  0.16187469020E+03  0.00000000000E+00 0. -1.
<scales pt_clust_5="13000.00000" pt_clust_6="13000.00000" pt_clust_7="13000.00000" pt_clust_8="13000.00000" pt_clust_9="60.42731"></scales>
<clustering>
<clus scale="   60.427">  1  9  2 -1</clus>
<clus scale="   76.956">  5  6 -1 -1</clus>
<clus scale="   88.459">  1  5  2 -1</clus>
<clus scale="   93.872">  7  8 -1 -1</clus>
<clus scale="   60.427">  1  5  2 -1</clus>
</clustering>
</event>
<event>
 9    2  0.5615294E-005  0.1016344E+03  0.7546771E-02  0.1281895E+00
          4   -1    0    0  502    0 -0.00000000000E+00  0.00000000000E+00  0.12234727119E+03  0.12234727119E+03  0.00000000000E+00 0. -1.
         21   -1    0    0  501  502  0.00000000000E+00 -0.00000000000E+00 -0.34633384066E+03  0.34633384066E+03  0.00000000000E+00 0.  1.
         23    2    1    2    0    0 -0.23940794680E+02  0.39608075319E+02  0.78185815160E+02  0.12849236023E+03  0.90858701650E+02 0.  0.
         24    2    1    2    0    0  0.47920026713E+02 -0.13021288411E+02 -0.28542698623E+03  0.30066320071E+03  0.80398463186E+02 0.  0.
        -13    1    4    4    0    0 -0.18622359537E+02  0.12952609632E+02 -0.57827581679E+02  0.62117562524E+02  0.00000000000E+00 0.  1.
         14    1    4    4    0    0  0.66542386250E+02 -0.25973898043E+02 -0.22759940455E+03  0.23854563819E+03  0.00000000000E+00 0. -1.
        -13    1    3    3    0    0  0.87909493277E+01 -0.25641293034E+02  0.10906702883E+02  0.29218365223E+02  0.00000000000E+00 0.  1.
         13    1    3    3    0    0 -0.32731744007E+02  0.65249368353E+02  0.67279112276E+02  0.99273995009E+02  0.00000000000E+00 0. -1.
          3    1    1    2  501    0 -0.23979232033E+02 -0.26586786909E+02 -0.16745398401E+02  0.39525550909E+02  0.00000000000E+00 0. -1.
<scales pt_clust_5="13000.00000" pt_clust_6="13000.00000" pt_clust_7="13000.00000" pt_clust_8="13000.00000" pt_clust_9="35.80310"></scales>
<clustering>
<clus scale="   35.803">  2  9  1 -1</clus>
<clus scale="   80.398">  5  6 -1 -1</clus>
<clus scale="   90.859">  7  8 -1 -1</clus>
<clus scale="   92.402">  2  5  1 -1</clus>
<clus scale="   35.803">  2  5  1 -1</clus>
</clustering>
</event>
<event>
 9    2  0.5615294E-005  0.1001003E+03  0.7546771E-02  0.1285269E+00
         21   -1    0    0  501  502  0.00000000000E+00  0.00000000000E+00  0.13688779164E+03  0.13688779164E+03  0.00000000000E+00 0. -1.
          2   -1    0    0  502    0 -0.00000000000E+00 -0.00000000000E+00 -0.26165556522E+03  0.26165556522E+03  0.00000000000E+00 0. -1.
         24    2    1    2    0    0 -0.61200566799E+01 -0.47032614655E+02 -0.19287964683E+03  0.21420449074E+03  0.80196532072E+02 0.  0.
         23    2    1    2    0    0  0.25974152843E+02 -0.92633296622E+01  0.79351474922E+02  0.12359557739E+03  0.90657290304E+02 0.  0.
        -11    1    3    3    0    0  0.28280446849E+02 -0.14556317507E+02 -0.27034348808E+02  0.41743575180E+02  0.00000000000E+00 0.  1.
         12    1    3    3    0    0 -0.34400503529E+02 -0.32476297148E+02 -0.16584529802E+03  0.17246091556E+03  0.00000000000E+00 0. -1.
        -13    1    4    4    0    0 -0.34101241755E+02 -0.30533653176E+01  0.31794152331E+02  0.46723504272E+02  0.00000000000E+00 0. -1.
         13    1    4    4    0    0  0.60075394597E+02 -0.62099643446E+01  0.47557322591E+02  0.76872073117E+02  0.00000000000E+00 0.  1.
          1    1    1    2  501    0 -0.19854096163E+02  0.56295944317E+02 -0.11239601670E+02  0.60743288738E+02  0.00000000000E+00 0. -1.
<scales pt_clust_5="13000.00000" pt_clust_6="13000.00000" pt_clust_7="13000.00000" pt_clust_8="13000.00000" pt_clust_9="59.69438"></scales>
<clustering>
<clus scale="   59.694">  1  9  2 -1</clus>
<clus scale="   80.197">  5  6 -1 -1</clus>
<clus scale="   90.657">  7  8 -1 -1</clus>
<clus scale="   90.735">  2  5  1 -1</clus>
<clus scale="   59.694">  1  5  2 -1</clus>
</clustering>
</event>
<event>
 9    2  0.5615294E-005  0.1050220E+03  0.7546771E-02  0.1277699E+00
          2   -1    0    0  502    0 -0.00000000000E+00  0.00000000000E+00  0.13819875334E+03  0.13819875334E+03  0.00000000000E+00 0. -1.
         21   -1    0    0  501  502  0.00000000000E+00 -0.00000000000E+00 -0.43158854440E+03  0.43158854440E+03  0.00000000000E+00 0. -1.
         23    2    1    2    0    0  0.35243382885E+02 -0.19409558240E+02  0.82196725346E+02  0.13512178971E+03  0.99412119018E+02 0.  0.
         24    2    1    2    0    0 -0.24267549458E+02 -0.70634180413E+02 -0.11739164352E+03  0.16099977000E+03  0.81006336627E+02 0.  0.
        -11    1    4    4    0    0  0.18408101569E+02 -0.88289584310E+01 -0.68265657788E+02  0.71253131465E+02  0.00000000000E+00 0.  1.
         12    1    4    4    0    0 -0.42675651027E+02 -0.61805221982E+02 -0.49125985730E+02  0.89746638537E+02  0.00000000000E+00 0. -1.
        -13    1    3    3    0    0 -0.71731230323E+01  0.32437082549E+02  0.61607373002E+01  0.33787167718E+02  0.00000000000E+00 0.  1.
         13    1    3    3    0    0  0.42416505918E+02 -0.51846640789E+02  0.76035988045E+02  0.10133462199E+03  0.00000000000E+00 0. -1.
          1    1    1    2  501    0 -0.10975833427E+02  0.90043738653E+02 -0.25819487288E+03  0.27366573803E+03  0.00000000000E+00 0. -1.
<scales pt_clust_5="13000.00000" pt_clust_6="13000.00000" pt_clust_7="13000.00000" pt_clust_8="13000.00000" pt_clust_9="90.71022"></scales>
<clustering>
<clus scale="   81.006">  5  6 -1 -1</clus>
<clus scale="   90.710">  2  9  1 -1</clus>
<clus scale="   90.710">  2  5  1 -1</clus>
<clus scale="   99.412">  7  8 -1 -1</clus>
<clus scale="   90.710">  2  5  1 -1</clus>
</clustering>
</event>
<event>
 9    2  0.5615294E-005  0.2040858E+03  0.7546771E-02  0.1148122E+00
          2   -1    0    0  502    0 -0.00000000000E+00  0.00000000000E+00  0.78082951459E+02  0.78082951459E+02  0.00000000000E+00 0. -1.
         21   -1    0    0  501  502  0.00000000000E+00 -0.00000000000E+00 -0.73662512545E+03  0.73662512545E+03  0.00000000000E+00 0.  1.
         23    2    1    2    0    0  0.19296981493E+03 -0.34551031993E+02 -0.16904863109E+03  0.27792839751E+03  0.10117129626E+03 0.  0.
         24    2    1    2    0    0 -0.14064862180E+03  0.22626391897E+02 -0.39745009113E+03  0.43023531631E+03  0.82715561015E+02 0.  0.
        -11    1    4    4    0    0 -0.83533624727E+02  0.32962882101E+02 -0.32620141447E+03  0.33833678614E+03  0.00000000000E+00 0.  1.
         12    1    4    4    0    0 -0.57114997072E+02 -0.10336490203E+02 -0.71248676662E+02  0.91898530164E+02  0.00000000000E+00 0. -1.
        -13    1    3    3    0    0  0.14482406607E+03  0.62983299372E+01 -0.71265548932E+02  0.16153159920E+03  0.00000000000E+00 0. -1.
         13    1    3    3    0    0  0.48145748853E+02 -0.40849361930E+02 -0.97783082155E+02  0.11639679832E+03  0.00000000000E+00 0.  1.
          1    1    1    2  501    0 -0.52321193128E+02  0.11924640096E+02 -0.92043451768E+02  0.10654436308E+03  0.00000000000E+00 0. -1.
<scales pt_clust_5="13000.00000" pt_clust_6="13000.00000" pt_clust_7="13000.00000" pt_clust_8="13000.00000" pt_clust_9="53.66288"></scales>
<clustering>
<clus scale="   53.663">  2  9  1 -1</clus>
<clus scale="   82.716">  5  6 -1 -1</clus>
<clus scale="  101.171">  7  8 -1 -1</clus>
<clus scale="  195.595">  2  5  1 -1</clus>
<clus scale="   53.663">  2  5  1 -1</clus>
</clustering>
</event>
<event>
 9    2  0.5615294E-005  0.7790669E+02  0.7546771E-02  0.1335510E+00
         21   -1    0    0  501  502  0.00000000000E+00  0.00000000000E+00  0.14104496719E+02  0.14104496719E+02  0.00000000000E+00 0.  1.
          2   -1    0    0  502    0 -0.00000000000E+00 -0.00000000000E+00 -0.74627698666E+03  0.74627698666E+03  0.00000000000E+00 0. -1.
         24    2    1    2    0    0 -0.59117425877E+01  0.30195489728E+00 -0.49164621665E+03  0.49772855646E+03  0.77347745242E+02 0.  0.
         23    2    1    2    0    0  0.14193494045E+02  0.20889739337E+02 -0.16437551258E+03  0.18317580021E+03  0.76786901007E+02 0.  0.
        -13    1    3    3    0    0 -0.69445428449E+01 -0.28116618470E+02 -0.79647673743E+02  0.84749766030E+02  0.00000000000E+00 0.  1.
         14    1    3    3    0    0  0.10328002572E+01  0.28418573368E+02 -0.41199854290E+03  0.41297879043E+03  0.00000000000E+00 0. -1.
        -11    1    4    4    0    0  0.35821750966E+02  0.22450672457E+02 -0.44596684234E+02  0.61449937191E+02  0.00000000000E+00 0.  1.
         11    1    4    4    0    0 -0.21628256921E+02 -0.15609331200E+01 -0.11977882834E+03  0.12172586302E+03  0.00000000000E+00 0. -1.
          1    1    1    2  501    0 -0.82817514571E+01 -0.21191694235E+02 -0.76150760722E+02  0.79477126711E+02  0.00000000000E+00 0. -1.
<scales pt_clust_5="13000.00000" pt_clust_6="13000.00000" pt_clust_7="13000.00000" pt_clust_8="13000.00000" pt_clust_9="22.75248"></scales>
<clustering>
<clus scale="   22.752">  1  9  2 -1</clus>
<clus scale="   76.787">  7  8 -1 -1</clus>
<clus scale="   77.348">  5  6 -1 -1</clus>
<clus scale="   77.350">  1  7  2 -1</clus>
<clus scale="   22.752">  1  5  2 -1</clus>
</clustering>
</event>
<event>
 9    2  0.5615294E-005  0.1004011E+03  0.7546771E-02  0.1283824E+00
         21   -1    0    0  501  502  0.00000000000E+00  0.00000000000E+00  0.10759605356E+03  0.10759605356E+03  0.00000000000E+00 0. -1.
         -1   -1    0    0    0  501 -0.00000000000E+00 -0.00000000000E+00 -0.29498274205E+03  0.29498274205E+03  0.00000000000E+00 0.  1.
         24    2    1    2    0    0  0.36988521059E+02 -0.27789347995E+02 -0.24616763847E+03  0.26339157278E+03  0.81462972159E+02 0.  0.
         23    2    1    2    0    0 -0.15163478076E+02  0.21661464448E+02  0.23246831212E+02  0.97037999173E+02  0.90425704380E+02 0.  0.
        -11    1    3    3    0    0  0.57860136454E+02 -0.36453994516E+02 -0.20888586641E+03  0.21979534639E+03  0.00000000000E+00 0.  1.
         12    1    3    3    0    0 -0.20871615395E+02  0.86646465206E+01 -0.37281772056E+02  0.43596226398E+02  0.00000000000E+00 0. -1.
        -11    1    4    4    0    0  0.27311285716E+02  0.23144169604E+02 -0.15978199042E+02  0.39202828453E+02  0.00000000000E+00 0.  1.
         11    1    4    4    0    0 -0.42474763791E+02 -0.14827051552E+01  0.39225030254E+02  0.57835170719E+02  0.00000000000E+00 0. -1.
         -2    1    1    2    0  502 -0.21825042984E+02  0.61278835465E+01  0.35534118764E+02  0.42149223651E+02  0.00000000000E+00 0.  1.
<scales pt_clust_5="13000.00000" pt_clust_6="13000.00000" pt_clust_7="13000.00000" pt_clust_8="13000.00000" pt_clust_9="22.66900"></scales>
<clustering>
<clus scale="   22.669">  1  9  2 -1</clus>
<clus scale="   81.463">  5  6 -1 -1</clus>
<clus scale="   90.426">  7  8 -1 -1</clus>
<clus scale="   92.411">  2  5  1 -1</clus>
<clus scale="   22.669">  1  5  2 -1</clus>
</clustering>
</event>
<event>
 9    2  0.5615294E-005  0.2910656E+03  0.7546771E-02  0.1090115E+00
         21   -1    0    0  501  502  0.00000000000E+00  0.00000000000E+00  0.11898517996E+03  0.11898517996E+03  0.00000000000E+00 0. -1.
          2   -1    0    0  502    0 -0.00000000000E+00 -0.00000000000E+00 -0.80258655689E+03  0.80258655689E+03  0.00000000000E+00 0. -1.
         23    2    1    2    0    0 -0.12117279734E+03 -0.25839319019E+03 -0.33050753555E+03  0.44617336794E+03  0.91572679597E+02 0.  0.
         24    2    1    2    0    0  0.12935532726E+03  0.23389402051E+03 -0.27229316823E+03  0.39056964799E+03  0.83437802860E+02 0.  0.
        -11    1    4    4    0    0 -0.12261036251E+01  0.28974079994E+02 -0.64989647688E+02  0.71166389175E+02  0.00000000000E+00 0.  1.
         12    1    4    4    0    0  0.13058143089E+03  0.20491994051E+03 -0.20730352054E+03  0.31940325882E+03  0.00000000000E+00 0. -1.
        -13    1    3    3    0    0 -0.68561370310E+02 -0.10544071914E+03 -0.20878639097E+03  0.24374200255E+03  0.00000000000E+00 0.  1.
         13    1    3    3    0    0 -0.52611427025E+02 -0.15295247106E+03 -0.12172114458E+03  0.20243136539E+03  0.00000000000E+00 0. -1.
          1    1    1    2  501    0 -0.81825299254E+01  0.24499169685E+02 -0.80800673151E+02  0.84828720920E+02  0.00000000000E+00 0. -1.
<scales pt_clust_5="13000.00000" pt_clust_6="13000.00000" pt_clust_7="13000.00000" pt_clust_8="13000.00000" pt_clust_9="25.82951"></scales>
<clustering>
<clus scale="   25.830">  1  9  2 -1</clus>
<clus scale="   83.438">  5  6 -1 -1</clus>
<clus scale="   91.573">  7  8 -1 -1</clus>
<clus scale="  288.610">  1  5  2 -1</clus>
<clus scale="   25.830">  1  5  2 -1</clus>
</clustering>
</event>
<event>
 9    2  0.5615294E-005  0.1134368E+03  0.7546771E-02  0.1260682E+00
          2   -1    0    0  502    0 -0.00000000000E+00  0.00000000000E+00  0.70805348927E+02  0.70805348927E+02  0.00000000000E+00 0. -1.
         21   -1    0    0  501  502  0.00000000000E+00 -0.00000000000E+00 -0.60594731873E+03  0.60594731873E+03  0.00000000000E+00 0.  1.
         23    2    1    2    0    0 -0.42959429124E+02  0.43054310533E+01 -0.18585779368E+03  0.21420399408E+03  0.97345684658E+02 0.  0.
         24    2    1    2    0    0  0.64769421142E+02  0.86754997779E+02 -0.34291531629E+03  0.36869645023E+03  0.81391957302E+02 0.  0.
        -13    1    4    4    0    0  0.66951842305E+02  0.99312256857E+02 -0.32738084488E+03  0.34860248299E+03  0.00000000000E+00 0.  1.
         14    1    4    4    0    0 -0.21824211629E+01 -0.12557259079E+02 -0.15534471409E+02  0.20093967245E+02  0.00000000000E+00 0. -1.
        -11    1    3    3    0    0 -0.52910987788E+02  0.39533149675E+02 -0.14507102194E+03  0.15939900865E+03  0.00000000000E+00 0.  1.
         11    1    3    3    0    0  0.99515586643E+01 -0.35227718622E+02 -0.40786771743E+02  0.54804985434E+02  0.00000000000E+00 0. -1.
          1    1    1    2  501    0 -0.21809992018E+02 -0.91060428832E+02 -0.63688598329E+01  0.93852223343E+02  0.00000000000E+00 0. -1.
<scales pt_clust_5="13000.00000" pt_clust_6="13000.00000" pt_clust_7="13000.00000" pt_clust_8="13000.00000" pt_clust_9="93.63592"></scales>
<clustering>
<clus scale="   81.392">  5  6 -1 -1</clus>
<clus scale="   93.636">  2  9  1 -1</clus>
<clus scale="   97.346">  7  8 -1 -1</clus>
<clus scale="  100.082">  2  5  1 -1</clus>
<clus scale="   93.636">  2  5  1 -1</clus>
</clustering>
</event>
<event>
 9    2  0.5615294E-005  0.9866439E+02  0.7546771E-02  0.1289576E+00
          2   -1    0    0  502    0 -0.00000000000E+00  0.00000000000E+00  0.15866350743E+03  0.15866350743E+03  0.00000000000E+00 0. -1.
         21   -1    0    0  501  502  0.00000000000E+00 -0.00000000000E+00 -0.96740477326E+02  0.96740477326E+02  0.00000000000E+00 0. -1.
         23    2    1    2    0    0 -0.41232772538E+02 -0.22024757733E+02  0.81410253731E+02  0.13055264847E+03  0.90725592453E+02 0.  0.
         24    2    1    2    0    0  0.45166618529E+01  0.31063879910E+02 -0.21240998613E+02  0.86998275111E+02  0.78308077367E+02 0.  0.
        -11    1    4    4    0    0 -0.20917422532E+02 -0.16240441338E+02  0.54289364470E+01  0.27032644177E+02  0.00000000000E+00 0.  1.
         12    1    4    4    0    0  0.25434084385E+02  0.47304321249E+02 -0.26669935060E+02  0.59965630935E+02  0.00000000000E+00 0. -1.
        -13    1    3    3    0    0 -0.29628267357E+02 -0.57525488929E+02  0.52185521463E+02  0.83128483407E+02  0.00000000000E+00 0. -1.
         13    1    3    3    0    0 -0.11604505181E+02  0.35500731196E+02  0.29224732267E+02  0.47424165064E+02  0.00000000000E+00 0.  1.
          1    1    1    2  501    0  0.36716110685E+02 -0.90391221776E+01  0.17537749858E+01  0.37853061174E+02  0.00000000000E+00 0. -1.
<scales pt_clust_5="13000.00000" pt_clust_6="13000.00000" pt_clust_7="13000.00000" pt_clust_8="13000.00000" pt_clust_9="37.81241"></scales>
<clustering>
<clus scale="   37.812">  2  9  1 -1</clus>
<clus scale="   78.308">  5  6 -1 -1</clus>
<clus scale="   87.382">  2  5  1 -1</clus>
<clus scale="   90.726">  7  8 -1 -1</clus>
<clus scale="   37.812">  2  5  1 -1</clus>
</clustering>
</event>
<event>
 9    2  0.5615294E-005  0.9958709E+02  0.7546771E-02  0.1286877E+00
         -3   -1    0    0    0  501 -0.00000000000E+00  0.00000000000E+00  0.22192033803E+03  0.22192033803E+03  0.00000000000E+00 0.  1.
         21   -1    0    0  501  502  0.00000000000E+00 -0.00000000000E+00 -0.64875658359E+02  0.64875658359E+02  0.00000000000E+00 0. -1.
         23    2    1    2    0    0  0.19430416609E+02  0.24362299324E+02  0.11554980561E+03  0.15083064603E+03  0.91799038597E+02 0.  0.
         24    2    1    2    0    0 -0.44354799632E+02 -0.27614014077E+02  0.51384814683E+02  0.10895406673E+03  0.80626964802E+02 0.  0.
        -11    1    4    4    0    0 -0.61256503749E+02 -0.32962951369E+02  0.57448552745E+02  0.90217801054E+02  0.00000000000E+00 0.  1.
         12    1    4    4    0    0  0.16901704117E+02  0.53489372924E+01 -0.60637380621E+01  0.18736265676E+02  0.00000000000E+00 0. -1.
        -11    1    3    3    0    0 -0.17407237891E+02  0.39162874284E+02  0.98889132018E+02  0.10777663515E+03  0.00000000000E+00 0.  1.
         11    1    3    3    0    0  0.36837654500E+02 -0.14800574960E+02  0.16660673591E+02  0.43054010879E+02  0.00000000000E+00 0. -1.
         -4    1    1    2    0  502  0.24924383023E+02  0.32517147525E+01 -0.98899406200E+01  0.27011283630E+02  0.00000000000E+00 0.  1.
<scales pt_clust_5="13000.00000" pt_clust_6="13000.00000" pt_clust_7="13000.00000" pt_clust_8="13000.00000" pt_clust_9="25.13560"></scales>
<clustering>
<clus scale="   25.136">  2  9  1 -1</clus>
<clus scale="   80.627">  5  6 -1 -1</clus>
<clus scale="   89.394">  2  5  1 -1</clus>
<clus scale="   91.799">  7  8 -1 -1</clus>
<clus scale="   25.136">  2  5  1 -1</clus>
</clustering>
</event>
<event>
 9    2  0.5615294E-005  0.1577180E+03  0.7546771E-02  0.1193794E+00
         21   -1    0    0  501  502  0.00000000000E+00  0.00000000000E+00  0.13536249845E+03  0.13536249845E+03  0.00000000000E+00 0.  1.
          2   -1    0    0  502    0 -0.00000000000E+00 -0.00000000000E+00 -0.61100520240E+03  0.61100520240E+03  0.00000000000E+00 0. -1.
         23    2    1    2    0    0  0.11167746613E+03 -0.38131604116E+02 -0.44579734955E+03  0.47083281613E+03  0.94986252728E+02 0.  0.
         24    2    1    2    0    0 -0.18176783037E+03  0.41987719278E+02 -0.13871966686E+02  0.20354406656E+03  0.80219965364E+02 0.  0.
        -11    1    4    4    0    0 -0.14143625401E+03  0.52951544033E+02  0.16437776407E+02  0.15191537268E+03  0.00000000000E+00 0.  1.
         12    1    4    4    0    0 -0.40331576366E+02 -0.10963824754E+02 -0.30309743093E+02  0.51628693880E+02  0.00000000000E+00 0. -1.
        -13    1    3    3    0    0  0.67171565340E+02 -0.69409570658E+02 -0.26644137723E+03  0.28340909511E+03  0.00000000000E+00 0. -1.
         13    1    3    3    0    0  0.44505900787E+02  0.31277966541E+02 -0.17935597232E+03  0.18742372102E+03  0.00000000000E+00 0.  1.
          1    1    1    2  501    0  0.70090364246E+02 -0.38561151619E+01 -0.15973387721E+02  0.71990818162E+02  0.00000000000E+00 0. -1.
<scales pt_clust_5="13000.00000" pt_clust_6="13000.00000" pt_clust_7="13000.00000" pt_clust_8="13000.00000" pt_clust_9="70.19636"></scales>
<clustering>
<clus scale="   70.196">  1  9  2 -1</clus>
<clus scale="   80.220">  5  6 -1 -1</clus>
<clus scale="   94.986">  7  8 -1 -1</clus>
<clus scale="  149.291">  1  5  2 -1</clus>
<clus scale="   70.196">  1  5  2 -1</clus>
</clustering>
</event>
<event>
 9    2  0.5615294E-005  0.1041213E+03  0.7546771E-02  0.1277394E+00
          2   -1    0    0  502    0 -0.00000000000E+00  0.00000000000E+00  0.27262146488E+03  0.27262146488E+03  0.00000000000E+00 0. -1.
         21   -1    0    0  501  502  0.00000000000E+00 -0.00000000000E+00 -0.84367829350E+02  0.84367829350E+02  0.00000000000E+00 0. -1.
         23    2    1    2    0    0 -0.42673062506E+02 -0.11543644265E+02  0.61402329341E+02  0.11926323334E+03  0.92191251163E+02 0.  0.
         24    2    1    2    0    0  0.51805823360E+02 -0.55201049659E+02  0.20965950383E+02  0.11222717619E+03  0.80152160186E+02 0.  0.
        -13    1    4    4    0    0  0.12372226546E+02  0.20168440799E+02  0.12459030532E+02  0.26740707466E+02  0.00000000000E+00 0.  1.
         14    1    4    4    0    0  0.39433596814E+02 -0.75369490457E+02  0.85069198511E+01  0.85486468724E+02  0.00000000000E+00 0. -1.
        -13    1    3    3    0    0 -0.42578842226E+02 -0.36142155625E+02  0.73125492859E+02  0.92013862675E+02  0.00000000000E+00 0. -1.
         13    1    3    3    0    0 -0.94220279351E-01  0.24598511360E+02 -0.11723163518E+02  0.27249370662E+02  0.00000000000E+00 0.  1.
          1    1    1    2  501    0 -0.91327608549E+01  0.66744693924E+02  0.10588535580E+03  0.12549888470E+03  0.00000000000E+00 0. -1.
<scales pt_clust_5="13000.00000" pt_clust_6="13000.00000" pt_clust_7="13000.00000" pt_clust_8="13000.00000" pt_clust_9="67.36665"></scales>
<clustering>
<clus scale="   67.367">  2  9  1 -1</clus>
<clus scale="   80.152">  5  6 -1 -1</clus>
<clus scale="   92.191">  7  8 -1 -1</clus>
<clus scale="   93.629">  2  5  1 -1</clus>
<clus scale="   67.367">  2  5  1 -1</clus>
</clustering>
</event>
<event>
 9    2  0.5615294E-005  0.1082657E+03  0.7546771E-02  0.1266635E+00
         21   -1    0    0  501  502  0.00000000000E+00  0.00000000000E+00  0.79177270794E+03  0.79177270794E+03  0.00000000000E+00 0. -1.
          2   -1    0    0  502    0 -0.00000000000E+00 -0.00000000000E+00 -0.22354495718E+02  0.22354495718E+02  0.00000000000E+00 0. -1.
         24    2    1    2    0    0 -0.16534831908E+02  0.39823140124E+02  0.17206561860E+03  0.20314366529E+03  0.99002467072E+02 0.  0.
         23    2    1    2    0    0  0.36301188807E+02 -0.32561994984E+02  0.44304157130E+03  0.45524232769E+03  0.92637374729E+02 0.  0.
        -11    1    3    3    0    0  0.40367172766E+02  0.16690486234E+02  0.95255107232E+02  0.10479320790E+03  0.00000000000E+00 0.  1.
         12    1    3    3    0    0 -0.56902004674E+02  0.23132653891E+02  0.76810511367E+02  0.98350457388E+02  0.00000000000E+00 0. -1.
        -13    1    4    4    0    0  0.46349453616E+01  0.28542660078E+02  0.67291227910E+02  0.73241214603E+02  0.00000000000E+00 0. -1.
         13    1    4    4    0    0  0.31666243445E+02 -0.61104655062E+02  0.37575034339E+03  0.38200111309E+03  0.00000000000E+00 0.  1.
          1    1    1    2  501    0 -0.19766356899E+02 -0.72611451400E+01  0.15431102232E+03  0.15574121068E+03  0.00000000000E+00 0. -1.
<scales pt_clust_5="13000.00000" pt_clust_6="13000.00000" pt_clust_7="13000.00000" pt_clust_8="13000.00000" pt_clust_9="21.05785"></scales>
<clustering>
<clus scale="   21.058">  1  9  2 -1</clus>
<clus scale="   92.637">  7  8 -1 -1</clus>
<clus scale="   99.002">  5  6 -1 -1</clus>
<clus scale="  102.478">  1  7  2 -1</clus>
<clus scale="   21.058">  1  5  2 -1</clus>
</clustering>
</event>
<event>
 9    2  0.5615294E-005  0.9641191E+02  0.7546771E-02  0.1293739E+00
         21   -1    0    0  501  502  0.00000000000E+00  0.00000000000E+00  0.14732855805E+03  0.14732855805E+03  0.00000000000E+00 0. -1.
          2   -1    0    0  502    0 -0.00000000000E+00 -0.00000000000E+00 -0.99172129183E+02  0.99172129183E+02  0.00000000000E+00 0. -1.
         23    2    1    2    0    0 -0.11976038127E+02 -0.27165331178E+02  0.21353117634E+02  0.98009966685E+02  0.90931937347E+02 0.  0.
         24    2    1    2    0    0  0.38187009022E+02  0.15583801525E+02  0.56958742545E+02  0.10689147942E+03  0.80500853990E+02 0.  0.
        -13    1    4    4    0    0 -0.16903142728E+02  0.22789648754E+02  0.39536747249E+02  0.48664552884E+02  0.00000000000E+00 0.  1.
         14    1    4    4    0    0  0.55090151750E+02 -0.72058472295E+01  0.17421995296E+02  0.58226926539E+02  0.00000000000E+00 0. -1.
        -11    1    3    3    0    0 -0.32356758024E+02 -0.31206457948E+02  0.46977296559E+02  0.65020529062E+02  0.00000000000E+00 0.  1.
         11    1    3    3    0    0  0.20380719897E+02  0.40411267702E+01 -0.25624178925E+02  0.32989437623E+02  0.00000000000E+00 0. -1.
          1    1    1    2  501    0 -0.26210970895E+02  0.11581529653E+02 -0.30155431313E+02  0.41599241124E+02  0.00000000000E+00 0. -1.
<scales pt_clust_5="13000.00000" pt_clust_6="13000.00000" pt_clust_7="13000.00000" pt_clust_8="13000.00000" pt_clust_9="28.65567"></scales>
<clustering>
<clus scale="   28.656">  1  9  2 -1</clus>
<clus scale="   80.501">  5  6 -1 -1</clus>
<clus scale="   86.643">  1  5  2 -1</clus>
<clus scale="   90.932">  7  8 -1 -1</clus>
<clus scale="   28.656">  1  5  2 -1</clus>
</clustering>
</event>
<event>
 9    2  0.5615294E-005  0.1935632E+03  0.7546771E-02  0.1188559E+00
         21   -1    0    0  501  502  0.00000000000E+00  0.00000000000E+00  0.33820742694E+03  0.33820742694E+03  0.00000000000E+00 0. -1.
          2   -1    0    0  502    0 -0.00000000000E+00 -0.00000000000E+00 -0.54885007211E+03  0.54885007211E+03  0.00000000000E+00 0. -1.
         24    2    1    2    0    0 -0.35029095280E+02  0.22938525981E+02  0.30979126341E+02  0.95792088857E+02  0.80394057792E+02 0.  0.
         23    2    1    2    0    0  0.20134685816E+03  0.48091740912E+01 -0.46286417547E+03  0.51309327928E+03  0.91966204983E+02 0.  0.
        -11    1    3    3    0    0 -0.23769669014E+02  0.31302008307E+02 -0.19161892885E+02  0.43726319626E+02  0.00000000000E+00 0.  1.
         12    1    3    3    0    0 -0.11259426266E+02 -0.83634823266E+01  0.50141019227E+02  0.52065769230E+02  0.00000000000E+00 0. -1.
        -13    1    4    4    0    0  0.19050644830E+03  0.31000271345E+02 -0.40715290567E+03  0.45058541062E+03  0.00000000000E+00 0. -1.
         13    1    4    4    0    0  0.10840409857E+02 -0.26191097253E+02 -0.55711269798E+02  0.62507868654E+02  0.00000000000E+00 0.  1.
          1    1    1    2  501    0 -0.16631776288E+03 -0.27747700072E+02  0.22124240396E+03  0.27817213092E+03  0.00000000000E+00 0. -1.
<scales pt_clust_5="13000.00000" pt_clust_6="13000.00000" pt_clust_7="13000.00000" pt_clust_8="13000.00000" pt_clust_9="170.32004"></scales>
<clustering>
<clus scale="   80.394">  5  6 -1 -1</clus>
<clus scale="   90.645">  2  5  1 -1</clus>
<clus scale="   91.966">  7  8 -1 -1</clus>
<clus scale="  170.320">  1  9  2 -1</clus>
<clus scale="  170.320">  1  5  2 -1</clus>
</clustering>
</event>
<event>
 9    2  0.5615294E-005  0.1077439E+03  0.7546771E-02  0.1268981E+00
         21   -1    0    0  501  502  0.00000000000E+00  0.00000000000E+00  0.89442371001E+02  0.89442371001E+02  0.00000000000E+00 0. -1.
          2   -1    0    0  502    0 -0.00000000000E+00 -0.00000000000E+00 -0.50250935287E+03  0.50250935287E+03  0.00000000000E+00 0. -1.
         23    2    1    2    0    0 -0.49384283853E+02  0.25308075535E+02 -0.42163846058E+03  0.43490417662E+03  0.91012884935E+02 0.  0.
         24    2    1    2    0    0  0.51785524293E+02 -0.56895728728E+02 -0.21133414342E+02  0.11362029243E+03  0.80895520130E+02 0.  0.
        -11    1    4    4    0    0  0.98652709479E+01  0.20906176420E+02 -0.20577636002E+01  0.23208321232E+02  0.00000000000E+00 0.  1.
         12    1    4    4    0    0  0.41920253345E+02 -0.77801905149E+02 -0.19075650742E+02  0.90411971202E+02  0.00000000000E+00 0. -1.
        -11    1    3    3    0    0  0.10885454461E+02  0.38466236467E+02 -0.23385600367E+03  0.23724834018E+03  0.00000000000E+00 0.  1.
         11    1    3    3    0    0 -0.60269738314E+02 -0.13158160932E+02 -0.18778245691E+03  0.19765583644E+03  0.00000000000E+00 0. -1.
          1    1    1    2  501    0 -0.24012404404E+01  0.31587653194E+02  0.29704893050E+02  0.43427254818E+02  0.00000000000E+00 0. -1.
<scales pt_clust_5="13000.00000" pt_clust_6="13000.00000" pt_clust_7="13000.00000" pt_clust_8="13000.00000" pt_clust_9="31.67879"></scales>
<clustering>
<clus scale="   31.679">  1  9  2 -1</clus>
<clus scale="   80.896">  5  6 -1 -1</clus>
<clus scale="   91.013">  7  8 -1 -1</clus>
<clus scale="   99.345">  1  5  2 -1</clus>
<clus scale="   31.679">  1  5  2 -1</clus>
</clustering>
</event>
<event>
 9    2  0.5615294E-005  0.1185029E+03  0.7546771E-02  0.1248586E+00
         21   -1    0    0  501  502  0.00000000000E+00  0.00000000000E+00  0.28992305119E+02  0.28992305119E+02  0.00000000000E+00 0. -1.
          2   -1    0    0  502    0 -0.00000000000E+00 -0.00000000000E+00 -0.10011437638E+04  0.10011437638E+04  0.00000000000E+00 0. -1.
         23    2    1    2    0    0  0.20939602525E+02 -0.88560671007E+02 -0.65587916599E+03  0.66843828230E+03  0.91382697839E+02 0.  0.
         24    2    1    2    0    0 -0.29186678792E+02  0.23886455324E+02 -0.95637208943E+02  0.13163125576E+03  0.82206367095E+02 0.  0.
        -11    1    4    4    0    0  0.43181007185E+01  0.45993843522E+02 -0.31308720539E+02  0.55806053593E+02  0.00000000000E+00 0.  1.
         12    1    4    4    0    0 -0.33504779510E+02 -0.22107388198E+02 -0.64328488404E+02  0.75825202165E+02  0.00000000000E+00 0. -1.
        -11    1    3    3    0    0  0.16009443902E+02  0.13122330681E+02 -0.50811392507E+02  0.54866159562E+02  0.00000000000E+00 0. -1.
         11    1    3    3    0    0  0.49301586223E+01 -0.10168300169E+03 -0.60506777348E+03  0.61357212274E+03  0.00000000000E+00 0.  1.
          1    1    1    2  501    0  0.82470762673E+01  0.64674215683E+02 -0.22063508375E+03  0.23006653086E+03  0.00000000000E+00 0. -1.
<scales pt_clust_5="13000.00000" pt_clust_6="13000.00000" pt_clust_7="13000.00000" pt_clust_8="13000.00000" pt_clust_9="65.19795"></scales>
<clustering>
<clus scale="   65.198">  1  9  2 -1</clus>
<clus scale="   82.206">  5  6 -1 -1</clus>
<clus scale="   91.383">  7  8 -1 -1</clus>
<clus scale="  111.580">  1  5  2 -1</clus>
<clus scale="   65.198">  1  5  2 -1</clus>
</clustering>
</event>
<event>
 9    2  0.5615294E-005  0.8346667E+02  0.7546771E-02  0.1321427E+00
         21   -1    0    0  501  502  0.00000000000E+00  0.00000000000E+00  0.56956457540E+02  0.56956457540E+02  0.00000000000E+00 0.  1.
          2   -1    0    0  502    0 -0.00000000000E+00 -0.00000000000E+00 -0.43678054751E+03  0.43678054751E+03  0.00000000000E+00 0. -1.
         24    2    1    2    0    0 -0.78532315360E+01  0.20459686042E+02 -0.33412542136E+03  0.34427684945E+03  0.80040488941E+02 0.  0.
         23    2    1    2    0    0 -0.32176823631E+01 -0.43948884257E+02  0.86694312674E+01  0.89209032360E+02  0.77079403921E+02 0.  0.
        -11    1    3    3    0    0  0.12273003990E+02 -0.26681242077E+02 -0.84931362360E+02  0.89865742182E+02  0.00000000000E+00 0.  1.
         12    1    3    3    0    0 -0.20126235526E+02  0.47140928119E+02 -0.24919405900E+03  0.25441110727E+03  0.00000000000E+00 0. -1.
        -13    1    4    4    0    0 -0.13875574219E+02 -0.63616015993E+02  0.13071211439E+02  0.66410734217E+02  0.00000000000E+00 0.  1.
         13    1    4    4    0    0  0.10657891856E+02  0.19667131736E+02 -0.44017801717E+01  0.22798298143E+02  0.00000000000E+00 0. -1.
          1    1    1    2  501    0  0.11070913899E+02  0.23489198215E+02 -0.54368099878E+02  0.60251123240E+02  0.00000000000E+00 0. -1.
<scales pt_clust_5="13000.00000" pt_clust_6="13000.00000" pt_clust_7="13000.00000" pt_clust_8="13000.00000" pt_clust_9="25.96745"></scales>
<clustering>
<clus scale="   25.967">  1  9  2 -1</clus>
<clus scale="   77.079">  7  8 -1 -1</clus>
<clus scale="   80.040">  5  6 -1 -1</clus>
<clus scale="   80.632">  1  7  2 -1</clus>
<clus scale="   25.967">  1  5  2 -1</clus>
</clustering>
</event>
<event>
 9    2  0.5615294E-005  0.8100987E+02  0.7546771E-02  0.1330562E+00
         21   -1    0    0  501  502  0.00000000000E+00  0.00000000000E+00  0.93872323651E+02  0.93872323651E+02  0.00000000000E+00 0.  1.
          2   -1    0    0  502    0 -0.00000000000E+00 -0.00000000000E+00 -0.15932090563E+03  0.15932090563E+03  0.00000000000E+00 0. -1.
         23    2    1    2    0    0 -0.15991086655E+02 -0.96958698939E+01 -0.81215985880E+02  0.11189539446E+03  0.74664705142E+02 0.  0.
         24    2    1    2    0    0 -0.13480523508E+02 -0.25712439510E+02 -0.13385477220E+02  0.86779813406E+02  0.80676582443E+02 0.  0.
        -11    1    4    4    0    0 -0.31145217563E+02 -0.46325391699E+02  0.14567223766E+01  0.55840742591E+02  0.00000000000E+00 0.  1.
         12    1    4    4    0    0  0.17664694054E+02  0.20612952189E+02 -0.14842199597E+02  0.30939070814E+02  0.00000000000E+00 0. -1.
        -11    1    3    3    0    0 -0.38868043443E+02  0.12593148669E+02 -0.63108575769E+02  0.75179814645E+02  0.00000000000E+00 0. -1.
         11    1    3    3    0    0  0.22876956788E+02 -0.22289018563E+02 -0.18107410111E+02  0.36715579817E+02  0.00000000000E+00 0.  1.
          1    1    1    2  501    0  0.29471610164E+02  0.35408309403E+02  0.29152881126E+02  0.54518021409E+02  0.00000000000E+00 0. -1.
<scales pt_clust_5="13000.00000" pt_clust_6="13000.00000" pt_clust_7="13000.00000" pt_clust_8="13000.00000" pt_clust_9="46.06869"></scales>
<clustering>
<clus scale="   46.069">  1  9  2 -1</clus>
<clus scale="   74.665">  7  8 -1 -1</clus>
<clus scale="   75.025">  2  7  1 -1</clus>
<clus scale="   80.677">  5  6 -1 -1</clus>
<clus scale="   46.069">  1  5  2 -1</clus>
</clustering>
</event>
<event>
 9    2  0.5615294E-005  0.1053373E+03  0.7546771E-02  0.1273809E+00
          2   -1    0    0  502    0 -0.00000000000E+00  0.00000000000E+00  0.20216966999E+03  0.20216966999E+03  0.00000000000E+00 0. -1.
         21   -1    0    0  501  502  0.00000000000E+00 -0.00000000000E+00 -0.63545202444E+02  0.63545202444E+02  0.00000000000E+00 0.  1.
         24    2    1    2    0    0  0.34480651042E+02  0.43958632078E+02  0.58764573146E+02  0.11422495594E+03  0.80453644241E+02 0.  0.
         23    2    1    2    0    0 -0.13469093171E+02 -0.52554928281E+02  0.60279653221E+02  0.12151046158E+03  0.90486013964E+02 0.  0.
        -11    1    3    3    0    0  0.16915345423E+02 -0.15082518189E+02  0.46054551431E+02  0.51328675934E+02  0.00000000000E+00 0.  1.
         12    1    3    3    0    0  0.17565305619E+02  0.59041150267E+02  0.12710021715E+02  0.62896280004E+02  0.00000000000E+00 0. -1.
        -11    1    4    4    0    0 -0.18516909680E+02 -0.24312985156E+02 -0.19821499802E+02  0.36426488243E+02  0.00000000000E+00 0.  1.
         11    1    4    4    0    0  0.50478165086E+01 -0.28241943126E+02  0.80101153023E+02  0.85083973336E+02  0.00000000000E+00 0. -1.
          1    1    1    2  501    0 -0.21011557870E+02  0.85962962032E+01  0.19580241181E+02  0.29979454919E+02  0.00000000000E+00 0. -1.
<scales pt_clust_5="13000.00000" pt_clust_6="13000.00000" pt_clust_7="13000.00000" pt_clust_8="13000.00000" pt_clust_9="22.70203"></scales>
<clustering>
<clus scale="   22.702">  2  9  1 -1</clus>
<clus scale="   80.454">  5  6 -1 -1</clus>
<clus scale="   90.486">  7  8 -1 -1</clus>
<clus scale="   96.856">  1  5  2 -1</clus>
<clus scale="   22.702">  2  5  1 -1</clus>
</clustering>
</event>
<event>
 9    2  0.5615294E-005  0.1820095E+03  0.7546771E-02  0.1178902E+00
          2   -1    0    0  502    0 -0.00000000000E+00  0.00000000000E+00  0.16581203475E+04  0.16581203475E+04  0.00000000000E+00 0. -1.
         21   -1    0    0  501  502  0.00000000000E+00 -0.00000000000E+00 -0.49450588916E+02  0.49450588916E+02  0.00000000000E+00 0. -1.
         23    2    1    2    0    0  0.95488782104E+02  0.26633028063E+02  0.28476304613E+03  0.31525721015E+03  0.92030920993E+02 0.  0.
         24    2    1    2    0    0 -0.20382495914E+03 -0.12512109250E+03  0.10704309067E+04  0.10995909731E+04  0.77962044879E+02 0.  0.
        -13    1    4    4    0    0 -0.43490516527E+00 -0.20568395424E+02  0.54877559505E+02  0.58607120472E+02  0.00000000000E+00 0.  1.
         14    1    4    4    0    0 -0.20339005398E+03 -0.10455269708E+03  0.10155533472E+04  0.10409838527E+04  0.00000000000E+00 0. -1.
        -13    1    3    3    0    0  0.51524979183E+02  0.53205675858E+02  0.10637482194E+03  0.12961971365E+03  0.00000000000E+00 0. -1.
         13    1    3    3    0    0  0.43963802921E+02 -0.26572647795E+02  0.17838822419E+03  0.18563749650E+03  0.00000000000E+00 0.  1.
          1    1    1    2  501    0  0.10833617704E+03  0.98488064440E+02  0.25347580574E+03  0.29272275311E+03  0.00000000000E+00 0. -1.
<scales pt_clust_5="13000.00000" pt_clust_6="13000.00000" pt_clust_7="13000.00000" pt_clust_8="13000.00000" pt_clust_9="164.46699"></scales>
<clustering>
<clus scale="   77.962">  5  6 -1 -1</clus>
<clus scale="   92.031">  7  8 -1 -1</clus>
<clus scale="  135.267">  1  7  2 -1</clus>
<clus scale="  164.467">  2  9  1 -1</clus>
<clus scale="  164.467">  2  5  1 -1</clus>
</clustering>
</event>
<event>
 9    2  0.5615294E-005  0.1894445E+03  0.7546771E-02  0.1159652E+00
          2   -1    0    0  502    0 -0.00000000000E+00  0.00000000000E+00  0.20008698186E+04  0.20008698186E+04  0.00000000000E+00 0. -1.
         21   -1    0    0  501  502  0.00000000000E+00 -0.00000000000E+00 -0.24819578489E+02  0.24819578489E+02  0.00000000000E+00 0.  1.
         24    2    1    2    0    0 -0.72353483412E+02  0.16562292585E+03  0.13839261876E+04  0.13980889800E+04  0.82067796940E+02 0.  0.
         23    2    1    2    0    0  0.47819995399E+02 -0.13177704380E+03  0.45841344113E+03  0.48750772143E+03  0.88707126063E+02 0.  0.
        -13    1    3    3    0    0 -0.57351716593E+02  0.46013810037E+02  0.38915598236E+03  0.39604149873E+03  0.00000000000E+00 0.  1.
         14    1    3    3    0    0 -0.15001766819E+02  0.11960911581E+03  0.99477020523E+03  0.10020474813E+04  0.00000000000E+00 0. -1.
        -13    1    4    4    0    0 -0.13740493477E+02 -0.47923518870E+02  0.24586805708E+03  0.25087161321E+03  0.00000000000E+00 0. -1.
         13    1    4    4    0    0  0.61560488877E+02 -0.83853524928E+02  0.21254538405E+03  0.23663610822E+03  0.00000000000E+00 0.  1.
          1    1    1    2  501    0  0.24533488012E+02 -0.33845882048E+02  0.13371061139E+03  0.14009269562E+03  0.00000000000E+00 0. -1.
<scales pt_clust_5="13000.00000" pt_clust_6="13000.00000" pt_clust_7="13000.00000" pt_clust_8="13000.00000" pt_clust_9="41.80234"></scales>
<clustering>
<clus scale="   41.802">  2  9  1 -1</clus>
<clus scale="   82.068">  5  6 -1 -1</clus>
<clus scale="   88.707">  7  8 -1 -1</clus>
<clus scale="  186.428">  1  5  2 -1</clus>
<clus scale="   41.802">  2  5  1 -1</clus>
</clustering>
</event>
<event>
 9    2  0.5615294E-005  0.9408290E+02  0.7546771E-02  0.1299667E+00
         21   -1    0    0  501  502  0.00000000000E+00  0.00000000000E+00  0.65210395803E+02  0.65210395803E+02  0.00000000000E+00 0.  1.
         -1   -1    0    0    0  501 -0.00000000000E+00 -0.00000000000E+00 -0.35688282129E+03  0.35688282129E+03  0.00000000000E+00 0.  1.
         23    2    1    2    0    0 -0.14511354266E+02 -0.29044516587E+02 -0.24115881276E+03  0.25982166339E+03  0.91079967334E+02 0.  0.
         24    2    1    2    0    0  0.81909982835E+01  0.51352458619E+01 -0.86687805792E+02  0.11845178224E+03  0.80141037184E+02 0.  0.
        -11    1    4    4    0    0 -0.32352793870E+02 -0.14609084621E+02 -0.34889767100E+02  0.49773732762E+02  0.00000000000E+00 0.  1.
         12    1    4    4    0    0  0.40543792154E+02  0.19744330483E+02 -0.51798038692E+02  0.68678049483E+02  0.00000000000E+00 0. -1.
        -11    1    3    3    0    0 -0.51603504822E+02 -0.48031248623E+01 -0.11602399773E+03  0.12707304895E+03  0.00000000000E+00 0. -1.
         11    1    3    3    0    0  0.37092150556E+02 -0.24241391724E+02 -0.12513481503E+03  0.13274861445E+03  0.00000000000E+00 0.  1.
         -2    1    1    2    0  502  0.63203559827E+01  0.23909270725E+02  0.36174193067E+02  0.43819771455E+02  0.00000000000E+00 0.  1.
<scales pt_clust_5="13000.00000" pt_clust_6="13000.00000" pt_clust_7="13000.00000" pt_clust_8="13000.00000" pt_clust_9="24.73055"></scales>
<clustering>
<clus scale="   24.731">  1  9  2 -1</clus>
<clus scale="   80.141">  5  6 -1 -1</clus>
<clus scale="   83.538">  1  5  2 -1</clus>
<clus scale="   91.080">  7  8 -1 -1</clus>
<clus scale="   24.731">  1  5  2 -1</clus>
</clustering>
</event>
<event>
 9    2  0.7892479E-005  0.1064761E+03  0.7546771E-02  0.1272244E+00
         21   -1    0    0  501  502  0.00000000000E+00  0.00000000000E+00  0.92390926226E+02  0.92390926226E+02  0.00000000000E+00 0.  1.
          2   -1    0    0  502    0 -0.00000000000E+00 -0.00000000000E+00 -0.65970099798E+03  0.65970099798E+03  0.00000000000E+00 0. -1.
         24    2    1    2    0    0 -0.34494724183E+02 -0.49995308081E+02 -0.53131481296E+03  0.54059831098E+03  0.79130819105E+02 0.  0.
         23    2    1    2    0    0  0.31060495891E+02  0.18135773236E+02 -0.10005435705E+03  0.13986685877E+03  0.90874656213E+02 0.  0.
        -11    1    3    3    0    0 -0.20549356296E+02 -0.49333598952E+02 -0.15371011383E+03  0.16273561111E+03  0.00000000000E+00 0.  1.
         12    1    3    3    0    0 -0.13945367887E+02 -0.66170912899E+00 -0.37760469913E+03  0.37786269987E+03  0.00000000000E+00 0. -1.
        -13    1    4    4    0    0  0.50109019786E+02  0.34676554940E+02 -0.35420383738E+02  0.70483905330E+02  0.00000000000E+00 0.  1.
         13    1    4    4    0    0 -0.19048523895E+02 -0.16540781704E+02 -0.64633973316E+02  0.69382953444E+02  0.00000000000E+00 0. -1.
          1    1    1    2  501    0  0.34342282924E+01  0.31859534844E+02  0.64059098259E+02  0.71626754458E+02  0.00000000000E+00 0. -1.
<scales pt_clust_5="13000.00000" pt_clust_6="13000.00000" pt_clust_7="13000.00000" pt_clust_8="13000.00000" pt_clust_9="32.04409"></scales>
<clustering>
<clus scale="   32.044">  1  9  2 -1</clus>
<clus scale="   79.131">  5  6 -1 -1</clus>
<clus scale="   90.875">  7  8 -1 -1</clus>
<clus scale="   96.647">  2  5  1 -1</clus>
<clus scale="   32.044">  1  5  2 -1</clus>
</clustering>
</event>
<event>
 9    2  0.5615294E-005  0.1679259E+03  0.7546771E-02  0.1180748E+00
         -1   -1    0    0    0  501 -0.00000000000E+00  0.00000000000E+00  0.24827672538E+03  0.24827672538E+03  0.00000000000E+00 0.  1.
         21   -1    0    0  501  502  0.00000000000E+00 -0.00000000000E+00 -0.28754500610E+03  0.28754500610E+03  0.00000000000E+00 0.  1.
         23    2    1    2    0    0 -0.47791935651E+02  0.13119295187E+03  0.23675024890E+01  0.16524840333E+03  0.88350268833E+02 0.  0.
         24    2    1    2    0    0 -0.12132419384E+03 -0.97169997827E+02 -0.82051355114E+02  0.19339758175E+03  0.80676088547E+02 0.  0.
        -13    1    4    4    0    0 -0.11096707353E+03 -0.41500495437E+02 -0.53815660800E+02  0.13012343323E+03  0.00000000000E+00 0.  1.
         14    1    4    4    0    0 -0.10357120311E+02 -0.55669502391E+02 -0.28235694314E+02  0.63274148520E+02  0.00000000000E+00 0. -1.
        -13    1    3    3    0    0 -0.65924442546E+02  0.11346209044E+03  0.22155653958E+02  0.13308099449E+03  0.00000000000E+00 0.  1.
         13    1    3    3    0    0  0.18132506895E+02  0.17730861435E+02 -0.19788151469E+02  0.32167408849E+02  0.00000000000E+00 0. -1.
         -2    1    1    2    0  502  0.16911612949E+03 -0.34022954043E+02  0.40415571906E+02  0.17717574639E+03  0.00000000000E+00 0.  1.
<scales pt_clust_5="13000.00000" pt_clust_6="13000.00000" pt_clust_7="13000.00000" pt_clust_8="13000.00000" pt_clust_9="147.27694"></scales>
<clustering>
<clus scale="   80.676">  5  6 -1 -1</clus>
<clus scale="   88.350">  7  8 -1 -1</clus>
<clus scale="  165.231">  1  7  2 -1</clus>
<clus scale="  147.277">  2  9  1 -1</clus>
<clus scale="  147.277">  2  5  1 -1</clus>
</clustering>
</event>
<event>
 9    2  0.5615294E-005  0.1019925E+03  0.7546771E-02  0.1282860E+00
         21   -1    0    0  501  502  0.00000000000E+00  0.00000000000E+00  0.15441568084E+03  0.15441568084E+03  0.00000000000E+00 0. -1.
          2   -1    0    0  502    0 -0.00000000000E+00 -0.00000000000E+00 -0.12178010550E+03  0.12178010550E+03  0.00000000000E+00 0. -1.
         24    2    1    2    0    0  0.45140563712E+02 -0.10753107081E+02 -0.58686786283E+02  0.10896406672E+03  0.79219499796E+02 0.  0.
         23    2    1    2    0    0 -0.33035355879E+02 -0.94887869637E+01  0.33048095694E+02  0.10436550928E+03  0.92836474960E+02 0.  0.
        -11    1    3    3    0    0 -0.18610014775E+02  0.91721388415E+01 -0.11035527522E+01  0.20776876799E+02  0.00000000000E+00 0.  1.
         12    1    3    3    0    0  0.63750578486E+02 -0.19925245923E+02 -0.57583233531E+02  0.88187189922E+02  0.00000000000E+00 0. -1.
        -13    1    4    4    0    0  0.20291489146E+02 -0.25504734263E+02 -0.98820659400E+01  0.34057175879E+02  0.00000000000E+00 0. -1.
         13    1    4    4    0    0 -0.53326845026E+02  0.16015947299E+02  0.42930161634E+02  0.70308333405E+02  0.00000000000E+00 0.  1.
          1    1    1    2  501    0 -0.12105207832E+02  0.20241894045E+02  0.58274265933E+02  0.62866210330E+02  0.00000000000E+00 0. -1.
<scales pt_clust_5="13000.00000" pt_clust_6="13000.00000" pt_clust_7="13000.00000" pt_clust_8="13000.00000" pt_clust_9="23.58538"></scales>
<clustering>
<clus scale="   23.585">  1  9  2 -1</clus>
<clus scale="   79.219">  5  6 -1 -1</clus>
<clus scale="   89.775">  2  5  1 -1</clus>
<clus scale="   92.836">  7  8 -1 -1</clus>
<clus scale="   23.585">  1  5  2 -1</clus>
</clustering>
</event>
<event>
 9    2  0.5615294E-005  0.9193307E+02  0.7546771E-02  0.1305231E+00
         21   -1    0    0  501  502  0.00000000000E+00  0.00000000000E+00  0.11786429482E+03  0.11786429482E+03  0.00000000000E+00 0.  1.
          2   -1    0    0  502    0 -0.00000000000E+00 -0.00000000000E+00 -0.58742638037E+03  0.58742638037E+03  0.00000000000E+00 0. -1.
         24    2    1    2    0    0  0.66141762619E+01 -0.11783634086E+02 -0.55447808184E+03  0.56035701534E+03  0.79821300665E+02 0.  0.
         23    2    1    2    0    0  0.13944986376E+02 -0.12921887432E+01  0.59119194926E+02  0.10944942010E+03  0.91038255442E+02 0.  0.
        -11    1    3    3    0    0  0.20570205582E+02  0.17144940722E+02 -0.72123898338E+02  0.76934641492E+02  0.00000000000E+00 0.  1.
         12    1    3    3    0    0 -0.13956029320E+02 -0.28928574808E+02 -0.48235418350E+03  0.48342237384E+03  0.00000000000E+00 0. -1.
        -11    1    4    4    0    0  0.37032993602E+02 -0.98314201740E+01  0.72078741383E+02  0.81629923418E+02  0.00000000000E+00 0.  1.
         11    1    4    4    0    0 -0.23088007226E+02  0.85392314308E+01 -0.12959546457E+02  0.27819496679E+02  0.00000000000E+00 0. -1.
          1    1    1    2  501    0 -0.20559162638E+02  0.13075822829E+02  0.25796801354E+02  0.35484239757E+02  0.00000000000E+00 0. -1.
<scales pt_clust_5="13000.00000" pt_clust_6="13000.00000" pt_clust_7="13000.00000" pt_clust_8="13000.00000" pt_clust_9="24.36506"></scales>
<clustering>
<clus scale="   24.365">  1  9  2 -1</clus>
<clus scale="   79.821">  5  6 -1 -1</clus>
<clus scale="   80.840">  2  5  1 -1</clus>
<clus scale="   91.038">  7  8 -1 -1</clus>
<clus scale="   24.365">  1  5  2 -1</clus>
</clustering>
</event>
<event>
 9    2  0.5615294E-005  0.1830949E+03  0.7546771E-02  0.1189569E+00
          2   -1    0    0  502    0 -0.00000000000E+00  0.00000000000E+00  0.19900945382E+04  0.19900945382E+04  0.00000000000E+00 0. -1.
         21   -1    0    0  501  502  0.00000000000E+00 -0.00000000000E+00 -0.26875442579E+02  0.26875442579E+02  0.00000000000E+00 0. -1.
         23    2    1    2    0    0  0.48987111286E+02 -0.13207586783E+02  0.32753590104E+03  0.34387203243E+03  0.91618943444E+02 0.  0.
         24    2    1    2    0    0  0.11820930496E+03  0.86420879796E+02  0.88481987164E+03  0.90036865705E+03  0.79470152363E+02 0.  0.
        -11    1    4    4    0    0  0.19047321917E+02  0.57529162132E+02  0.25259896785E+03  0.25976651733E+03  0.00000000000E+00 0.  1.
         12    1    4    4    0    0  0.99161983047E+02  0.28891717664E+02  0.63222090378E+03  0.64060213972E+03  0.00000000000E+00 0. -1.
        -13    1    3    3    0    0  0.73690088631E+02 -0.99140204793E+01  0.18876537060E+03  0.20288144839E+03  0.00000000000E+00 0. -1.
         13    1    3    3    0    0 -0.24702977345E+02 -0.32935663041E+01  0.13877053045E+03  0.14099058404E+03  0.00000000000E+00 0.  1.
          1    1    1    2  501    0 -0.16719641625E+03 -0.73213293012E+02  0.75086332297E+03  0.77272929132E+03  0.00000000000E+00 0. -1.
<scales pt_clust_5="13000.00000" pt_clust_6="13000.00000" pt_clust_7="13000.00000" pt_clust_8="13000.00000" pt_clust_9="164.94919"></scales>
<clustering>
<clus scale="   79.470">  5  6 -1 -1</clus>
<clus scale="   91.619">  7  8 -1 -1</clus>
<clus scale="  104.729">  1  7  2 -1</clus>
<clus scale="  164.949">  2  9  1 -1</clus>
<clus scale="  164.949">  2  5  1 -1</clus>
</clustering>
</event>
<event>
 9    2  0.5615294E-005  0.1164068E+03  0.7546771E-02  0.1258432E+00
          2   -1    0    0  502    0 -0.00000000000E+00  0.00000000000E+00  0.22495409735E+03  0.22495409735E+03  0.00000000000E+00 0. -1.
         21   -1    0    0  501  502  0.00000000000E+00 -0.00000000000E+00 -0.15150597297E+03  0.15150597297E+03  0.00000000000E+00 0.  1.
         24    2    1    2    0    0  0.68890463329E+02 -0.52752603408E+00  0.13957569274E+03  0.17300872183E+03  0.75527939240E+02 0.  0.
         23    2    1    2    0    0 -0.37135084496E+02 -0.20834149311E+02  0.19284242228E+02  0.10985699691E+03  0.99416303966E+02 0.  0.
        -11    1    3    3    0    0  0.86246633777E+01  0.31268761096E+02  0.60324717261E+02  0.68492275123E+02  0.00000000000E+00 0.  1.
         12    1    3    3    0    0  0.60265799951E+02 -0.31796287130E+02  0.79250975476E+02  0.10451644671E+03  0.00000000000E+00 0. -1.
        -13    1    4    4    0    0 -0.26663246205E+02 -0.54167856641E+02 -0.13587529582E+02  0.61884621284E+02  0.00000000000E+00 0.  1.
         13    1    4    4    0    0 -0.10471838291E+02  0.33333707330E+02  0.32871771810E+02  0.47972375629E+02  0.00000000000E+00 0. -1.
          1    1    1    2  501    0 -0.31755378834E+02  0.21361675345E+02 -0.85411810592E+02  0.93594351576E+02  0.00000000000E+00 0. -1.
<scales pt_clust_5="13000.00000" pt_clust_6="13000.00000" pt_clust_7="13000.00000" pt_clust_8="13000.00000" pt_clust_9="38.27173"></scales>
<clustering>
<clus scale="   38.272">  2  9  1 -1</clus>
<clus scale="   75.528">  5  6 -1 -1</clus>
<clus scale="   96.806">  1  5  2 -1</clus>
<clus scale="   99.416">  7  8 -1 -1</clus>
<clus scale="   38.272">  2  5  1 -1</clus>
</clustering>
</event>
<event>
 9    2  0.5615294E-005  0.1148348E+03  0.7546771E-02  0.1263904E+00
         21   -1    0    0  501  502  0.00000000000E+00  0.00000000000E+00  0.11118635416E+03  0.11118635416E+03  0.00000000000E+00 0. -1.
          2   -1    0    0  502    0 -0.00000000000E+00 -0.00000000000E+00 -0.72582468703E+03  0.72582468703E+03  0.00000000000E+00 0. -1.
         24    2    1    2    0    0 -0.25584041619E+02 -0.26584855686E+02 -0.67626178243E+03  0.68233244782E+03  0.82983572108E+02 0.  0.
         23    2    1    2    0    0  0.68307135766E+01  0.15822653620E+02  0.70927038570E+02  0.13113992148E+03  0.10894961767E+03 0.  0.
        -13    1    3    3    0    0 -0.42963575828E+02  0.37386850214E+01 -0.19075282111E+03  0.19556708663E+03  0.00000000000E+00 0.  1.
         14    1    3    3    0    0  0.17379534209E+02 -0.30323540708E+02 -0.48550896132E+03  0.48676536119E+03  0.00000000000E+00 0. -1.
        -13    1    4    4    0    0  0.56339920536E+02  0.15471656674E+02  0.24798439148E+02  0.63470634080E+02  0.00000000000E+00 0.  1.
         13    1    4    4    0    0 -0.49509206960E+02  0.35099694658E+00  0.46128599422E+02  0.67669287401E+02  0.00000000000E+00 0. -1.
          1    1    1    2  501    0  0.18753328043E+02  0.10762202066E+02 -0.93035890073E+01  0.23538671891E+02  0.00000000000E+00 0. -1.
<scales pt_clust_5="13000.00000" pt_clust_6="13000.00000" pt_clust_7="13000.00000" pt_clust_8="13000.00000" pt_clust_9="21.62203"></scales>
<clustering>
<clus scale="   21.622">  1  9  2 -1</clus>
<clus scale="   82.984">  5  6 -1 -1</clus>
<clus scale="   90.572">  2  5  1 -1</clus>
<clus scale="  108.950">  7  8 -1 -1</clus>
<clus scale="   21.622">  1  5  2 -1</clus>
</clustering>
</event>
<event>
 9    2  0.5615294E-005  0.1095576E+03  0.7546771E-02  0.1265668E+00
         21   -1    0    0  501  502  0.00000000000E+00  0.00000000000E+00  0.16655902537E+03  0.16655902537E+03  0.00000000000E+00 0. -1.
          2   -1    0    0  502    0 -0.00000000000E+00 -0.00000000000E+00 -0.29979120987E+03  0.29979120987E+03  0.00000000000E+00 0. -1.
         24    2    1    2    0    0 -0.56988804111E+02 -0.45195022081E+02 -0.23098638962E+03  0.25478555497E+03  0.79187454911E+02 0.  0.
         23    2    1    2    0    0  0.21502511493E+02  0.13719738547E+02 -0.96642541489E+01  0.94139402626E+02  0.90101276862E+02 0.  0.
        -13    1    3    3    0    0 -0.28242668709E+02  0.12580358761E+02 -0.27731716057E+02  0.41532659893E+02  0.00000000000E+00 0.  1.
         14    1    3    3    0    0 -0.28746135402E+02 -0.57775380842E+02 -0.20325467356E+03  0.21325289507E+03  0.00000000000E+00 0. -1.
        -13    1    4    4    0    0  0.34644872417E+02 -0.28682556720E+02 -0.18916218105E+02  0.48793232648E+02  0.00000000000E+00 0.  1.
         13    1    4    4    0    0 -0.13142360924E+02  0.42402295267E+02  0.92519639566E+01  0.45346169978E+02  0.00000000000E+00 0. -1.
          1    1    1    2  501    0  0.35486292618E+02  0.31475283534E+02  0.10741845927E+03  0.11742527764E+03  0.00000000000E+00 0. -1.
<scales pt_clust_5="13000.00000" pt_clust_6="13000.00000" pt_clust_7="13000.00000" pt_clust_8="13000.00000" pt_clust_9="47.43385"></scales>
<clustering>
<clus scale="   47.434">  1  9  2 -1</clus>
<clus scale="   79.187">  5  6 -1 -1</clus>
<clus scale="   90.101">  7  8 -1 -1</clus>
<clus scale="  100.773">  2  5  1 -1</clus>
<clus scale="   47.434">  1  5  2 -1</clus>
</clustering>
</event>
<event>
 9    2  0.5615294E-005  0.1258446E+03  0.7546771E-02  0.1236419E+00
          4   -1    0    0  502    0 -0.00000000000E+00  0.00000000000E+00  0.93015243369E+03  0.93015243369E+03  0.00000000000E+00 0. -1.
         21   -1    0    0  501  502  0.00000000000E+00 -0.00000000000E+00 -0.33267354308E+02  0.33267354308E+02  0.00000000000E+00 0. -1.
         24    2    1    2    0    0  0.45568988889E+02  0.77422135537E+02  0.74028083624E+03  0.75017580900E+03  0.81714797230E+02 0.  0.
         23    2    1    2    0    0 -0.42866496578E+02 -0.56158720965E+02  0.99796788972E+02  0.15252723408E+03  0.91180149034E+02 0.  0.
        -11    1    3    3    0    0 -0.18297247192E+02  0.38085767371E+02  0.17979363488E+03  0.18469181377E+03  0.00000000000E+00 0.  1.
         12    1    3    3    0    0  0.63866236081E+02  0.39336368167E+02  0.56048720136E+03  0.56548399523E+03  0.00000000000E+00 0. -1.
        -11    1    4    4    0    0  0.50102194106E+01 -0.40485000431E+02  0.93178769669E+02  0.10171735681E+03  0.00000000000E+00 0.  1.
         11    1    4    4    0    0 -0.47876715989E+02 -0.15673720534E+02  0.66180193029E+01  0.50809877276E+02  0.00000000000E+00 0. -1.
          3    1    1    2  501    0 -0.27024923103E+01 -0.21263414573E+02  0.56807454169E+02  0.60716744916E+02  0.00000000000E+00 0. -1.
<scales pt_clust_5="13000.00000" pt_clust_6="13000.00000" pt_clust_7="13000.00000" pt_clust_8="13000.00000" pt_clust_9="21.43448"></scales>
<clustering>
<clus scale="   21.434">  2  9  1 -1</clus>
<clus scale="   81.715">  5  6 -1 -1</clus>
<clus scale="   91.180">  7  8 -1 -1</clus>
<clus scale="  119.165">  1  5  2 -1</clus>
<clus scale="   21.434">  2  5  1 -1</clus>
</clustering>
</event>
<event>
 9    2  0.5615294E-005  0.1306225E+03  0.7546771E-02  0.1246881E+00
          2   -1    0    0  502    0 -0.00000000000E+00  0.00000000000E+00  0.11951613237E+03  0.11951613237E+03  0.00000000000E+00 0. -1.
         21   -1    0    0  501  502  0.00000000000E+00 -0.00000000000E+00 -0.23616614532E+03  0.23616614532E+03  0.00000000000E+00 0. -1.
         24    2    1    2    0    0 -0.17855033818E+02 -0.22122466306E+02  0.21654046984E+02  0.88889734797E+02  0.81389688864E+02 0.  0.
         23    2    1    2    0    0  0.61049821575E+02 -0.62394455824E+02 -0.49828504143E+02  0.13703575584E+03  0.93143812035E+02 0.  0.
        -11    1    3    3    0    0 -0.43908636482E+02 -0.35852280373E+02  0.12480229589E+02  0.58044039283E+02  0.00000000000E+00 0.  1.
         12    1    3    3    0    0  0.26053602665E+02  0.13729814067E+02  0.91738173946E+01  0.30845695514E+02  0.00000000000E+00 0. -1.
        -11    1    4    4    0    0  0.52197469851E+02 -0.85216689366E+02 -0.51646868040E+02  0.11248937276E+03  0.00000000000E+00 0. -1.
         11    1    4    4    0    0  0.88523517237E+01  0.22822233542E+02  0.18183638972E+01  0.24546383077E+02  0.00000000000E+00 0.  1.
          1    1    1    2  501    0 -0.43194787757E+02  0.84516922130E+02 -0.88475555785E+02  0.12975678706E+03  0.00000000000E+00 0. -1.
<scales pt_clust_5="13000.00000" pt_clust_6="13000.00000" pt_clust_7="13000.00000" pt_clust_8="13000.00000" pt_clust_9="91.57772"></scales>
<clustering>
<clus scale="   81.390">  5  6 -1 -1</clus>
<clus scale="   86.212">  1  5  2 -1</clus>
<clus scale="   91.578">  2  9  1 -1</clus>
<clus scale="   93.144">  7  8 -1 -1</clus>
<clus scale="   91.578">  2  5  1 -1</clus>
</clustering>
</event>
<event>
 9    2  0.5615294E-005  0.1037421E+03  0.7546771E-02  0.1279383E+00
         21   -1    0    0  501  502  0.00000000000E+00  0.00000000000E+00  0.53566170116E+02  0.53566170116E+02  0.00000000000E+00 0. -1.
         -1   -1    0    0    0  501 -0.00000000000E+00 -0.00000000000E+00 -0.36710360994E+03  0.36710360994E+03  0.00000000000E+00 0.  1.
         24    2    1    2    0    0  0.41437683155E+02 -0.35480909304E+02 -0.26498069851E+03  0.28139466748E+03  0.77409377929E+02 0.  0.
         23    2    1    2    0    0 -0.11494442265E+02  0.17291254321E+02 -0.26555803958E+02  0.97904803566E+02  0.91918606160E+02 0.  0.
        -11    1    3    3    0    0  0.36759076784E+01 -0.52680745469E+02 -0.16103511163E+03  0.16947294893E+03  0.00000000000E+00 0.  1.
         12    1    3    3    0    0  0.37761775477E+02  0.17199836165E+02 -0.10394558688E+03  0.11192171855E+03  0.00000000000E+00 0. -1.
        -11    1    4    4    0    0 -0.45530266156E+02 -0.92540459388E+01 -0.28833856295E+02  0.54681201260E+02  0.00000000000E+00 0.  1.
         11    1    4    4    0    0  0.34035823891E+02  0.26545300260E+02  0.22780523373E+01  0.43223602305E+02  0.00000000000E+00 0. -1.
         -2    1    1    2    0  502 -0.29943240891E+02  0.18189654982E+02 -0.22000937359E+02  0.41370309016E+02  0.00000000000E+00 0.  1.
<scales pt_clust_5="13000.00000" pt_clust_6="13000.00000" pt_clust_7="13000.00000" pt_clust_8="13000.00000" pt_clust_9="35.03514"></scales>
<clustering>
<clus scale="   35.035">  1  9  2 -1</clus>
<clus scale="   77.409">  5  6 -1 -1</clus>
<clus scale="   91.135">  2  5  1 -1</clus>
<clus scale="   91.919">  7  8 -1 -1</clus>
<clus scale="   35.035">  1  5  2 -1</clus>
</clustering>
</event>
<event>
 9    2  0.5615294E-005  0.1991591E+03  0.7546771E-02  0.1187908E+00
         21   -1    0    0  501  502  0.00000000000E+00  0.00000000000E+00  0.69853401127E+02  0.69853401127E+02  0.00000000000E+00 0.  1.
          4   -1    0    0  502    0 -0.00000000000E+00 -0.00000000000E+00 -0.80321778080E+03  0.80321778080E+03  0.00000000000E+00 0. -1.
         24    2    1    2    0    0  0.61209017368E+01 -0.24893666826E+02 -0.18556732555E+03  0.20386983429E+03  0.80439523460E+02 0.  0.
         23    2    1    2    0    0  0.12420209846E+03 -0.11551694368E+03 -0.23680839408E+03  0.30394367065E+03  0.86794088995E+02 0.  0.
        -11    1    3    3    0    0  0.26017913555E+02  0.21616729916E+02 -0.76028550553E+02  0.83213913123E+02  0.00000000000E+00 0.  1.
         12    1    3    3    0    0 -0.19897011818E+02 -0.46510396742E+02 -0.10953877499E+03  0.12065592116E+03  0.00000000000E+00 0. -1.
        -11    1    4    4    0    0  0.22911212766E+02  0.72307434979E+01 -0.67187025962E+02  0.71353372588E+02  0.00000000000E+00 0. -1.
         11    1    4    4    0    0  0.10129088569E+03 -0.12274768718E+03 -0.16962136811E+03  0.23259029806E+03  0.00000000000E+00 0.  1.
          3    1    1    2  501    0 -0.13032300020E+03  0.14041061051E+03 -0.31098866005E+03  0.36525767699E+03  0.00000000000E+00 0. -1.
<scales pt_clust_5="13000.00000" pt_clust_6="13000.00000" pt_clust_7="13000.00000" pt_clust_8="13000.00000" pt_clust_9="179.25170"></scales>
<clustering>
<clus scale="   80.440">  5  6 -1 -1</clus>
<clus scale="   84.426">  2  5  1 -1</clus>
<clus scale="   86.794">  7  8 -1 -1</clus>
<clus scale="  179.252">  1  9  2 -1</clus>
<clus scale="  179.252">  1  5  2 -1</clus>
</clustering>
</event>
<event>
 9    2  0.5615294E-005  0.9476071E+02  0.7546771E-02  0.1293684E+00
         21   -1    0    0  501  502  0.00000000000E+00  0.00000000000E+00  0.40721042657E+02  0.40721042657E+02  0.00000000000E+00 0.  1.
         -3   -1    0    0    0  501 -0.00000000000E+00 -0.00000000000E+00 -0.46209475420E+03  0.46209475420E+03  0.00000000000E+00 0.  1.
         23    2    1    2    0    0  0.42855395494E+01  0.27597283658E+02 -0.24698689608E+03  0.26463949037E+03  0.90838081836E+02 0.  0.
         24    2    1    2    0    0 -0.37371478504E+02 -0.92974541534E+01 -0.17615674402E+03  0.20032533869E+03  0.87269541049E+02 0.  0.
        -13    1    4    4    0    0 -0.17069138000E+02  0.38920004600E+02 -0.68162294357E+02  0.80325715697E+02  0.00000000000E+00 0.  1.
         14    1    4    4    0    0 -0.20302340504E+02 -0.48217458753E+02 -0.10799444967E+03  0.11999962299E+03  0.00000000000E+00 0. -1.
        -13    1    3    3    0    0  0.37827803318E+02  0.38059490934E+02 -0.19222923441E+03  0.19957842097E+03  0.00000000000E+00 0.  1.
         13    1    3    3    0    0 -0.33542263768E+02 -0.10462207276E+02 -0.54757661672E+02  0.65061069401E+02  0.00000000000E+00 0. -1.
         -4    1    1    2    0  502  0.33085938955E+02 -0.18299829505E+02  0.17699285650E+01  0.37850967802E+02  0.00000000000E+00 0.  1.
<scales pt_clust_5="13000.00000" pt_clust_6="13000.00000" pt_clust_7="13000.00000" pt_clust_8="13000.00000" pt_clust_9="37.80956"></scales>
<clustering>
<clus scale="   37.810">  1  9  2 -1</clus>
<clus scale="   87.270">  5  6 -1 -1</clus>
<clus scale="   90.838">  7  8 -1 -1</clus>
<clus scale="   91.346">  1  5  2 -1</clus>
<clus scale="   37.810">  1  5  2 -1</clus>
</clustering>
</event>
<event>
 9    2  0.5615294E-005  0.2083017E+03  0.7546771E-02  0.1143967E+00
         21   -1    0    0  501  502  0.00000000000E+00  0.00000000000E+00  0.10535286046E+03  0.10535286046E+03  0.00000000000E+00 0. -1.
          2   -1    0    0  502    0 -0.00000000000E+00 -0.00000000000E+00 -0.95501935245E+03  0.95501935245E+03  0.00000000000E+00 0. -1.
         24    2    1    2    0    0  0.12766257120E+03  0.14345080247E+03 -0.71468578529E+03  0.74442346003E+03  0.80713390050E+02 0.  0.
         23    2    1    2    0    0 -0.12827725131E+03 -0.11322274605E+03 -0.17769639815E+03  0.26361574684E+03  0.92966707138E+02 0.  0.
        -11    1    3    3    0    0  0.50160686040E+02  0.55922800732E+02 -0.14997054694E+03  0.16773377422E+03  0.00000000000E+00 0.  1.
         12    1    3    3    0    0  0.77501885159E+02  0.87528001738E+02 -0.56471523835E+03  0.57668968580E+03  0.00000000000E+00 0. -1.
        -13    1    4    4    0    0 -0.10162442761E+01 -0.25559398990E+02  0.31109308737E+01  0.25768071718E+02  0.00000000000E+00 0.  1.
         13    1    4    4    0    0 -0.12726100704E+03 -0.87663347063E+02 -0.18080732902E+03  0.23784767512E+03  0.00000000000E+00 0. -1.
          1    1    1    2  501    0  0.61468011463E+00 -0.30228056417E+02  0.42715691450E+02  0.52333006052E+02  0.00000000000E+00 0. -1.
<scales pt_clust_5="13000.00000" pt_clust_6="13000.00000" pt_clust_7="13000.00000" pt_clust_8="13000.00000" pt_clust_9="30.23431"></scales>
<clustering>
<clus scale="   30.234">  1  9  2 -1</clus>
<clus scale="   80.713">  5  6 -1 -1</clus>
<clus scale="   92.967">  7  8 -1 -1</clus>
<clus scale="  203.129">  2  5  1 -1</clus>
<clus scale="   30.234">  1  5  2 -1</clus>
</clustering>
</event>
<event>
 9    2  0.5615294E-005  0.1882377E+03  0.7546771E-02  0.1161301E+00
          2   -1    0    0  502    0 -0.00000000000E+00  0.00000000000E+00  0.10103102542E+04  0.10103102542E+04  0.00000000000E+00 0. -1.
         21   -1    0    0  501  502  0.00000000000E+00 -0.00000000000E+00 -0.71301324062E+02  0.71301324062E+02  0.00000000000E+00 0. -1.
         23    2    1    2    0    0  0.19801640329E+03  0.35399870241E+02  0.73543606778E+03  0.76795115237E+03  0.91755740138E+02 0.  0.
         24    2    1    2    0    0 -0.10621219026E+03 -0.26675333638E+02  0.16510047935E+03  0.21373918027E+03  0.80210137227E+02 0.  0.
        -13    1    4    4    0    0 -0.68759170652E+02 -0.38618348271E+02  0.15379369944E+03  0.17283432055E+03  0.00000000000E+00 0.  1.
         14    1    4    4    0    0 -0.37453019611E+02  0.11943014633E+02  0.11306779908E+02  0.40904859716E+02  0.00000000000E+00 0. -1.
        -11    1    3    3    0    0  0.79922781996E+02  0.57054562773E+02  0.27084103607E+03  0.28809328530E+03  0.00000000000E+00 0.  1.
         11    1    3    3    0    0  0.11809362130E+03 -0.21654692533E+02  0.46459503170E+03  0.47985786706E+03  0.00000000000E+00 0. -1.
          1    1    1    2  501    0 -0.91804213031E+02 -0.87245366026E+01  0.38472382976E+02  0.99921245594E+02  0.00000000000E+00 0. -1.
<scales pt_clust_5="13000.00000" pt_clust_6="13000.00000" pt_clust_7="13000.00000" pt_clust_8="13000.00000" pt_clust_9="92.21785"></scales>
<clustering>
<clus scale="   80.210">  5  6 -1 -1</clus>
<clus scale="   91.756">  7  8 -1 -1</clus>
<clus scale="   92.218">  2  9  1 -1</clus>
<clus scale="  182.888">  2  5  1 -1</clus>
<clus scale="   92.218">  2  5  1 -1</clus>
</clustering>
</event>
<event>
 9    2  0.5615294E-005  0.1266811E+03  0.7546771E-02  0.1245318E+00
         21   -1    0    0  501  502  0.00000000000E+00  0.00000000000E+00  0.46016375423E+02  0.46016375423E+02  0.00000000000E+00 0.  1.
          2   -1    0    0  502    0 -0.00000000000E+00 -0.00000000000E+00 -0.86629804550E+03  0.86629804550E+03  0.00000000000E+00 0. -1.
         24    2    1    2    0    0 -0.32383829241E+02 -0.58181348696E+02 -0.68426157507E+03  0.69173935346E+03  0.76522207729E+02 0.  0.
         23    2    1    2    0    0  0.32529266739E+02  0.45493460507E+01 -0.11372453829E+03  0.16249318811E+03  0.11131898234E+03 0.  0.
        -11    1    3    3    0    0  0.51372586069E+01 -0.31871411480E+02 -0.88262688061E+02  0.93981276856E+02  0.00000000000E+00 0.  1.
         12    1    3    3    0    0 -0.37521087848E+02 -0.26309937216E+02 -0.59599888701E+03  0.59775807660E+03  0.00000000000E+00 0. -1.
        -13    1    4    4    0    0  0.50093287629E+02  0.41803094707E+02 -0.35967280200E+02  0.74501553256E+02  0.00000000000E+00 0.  1.
         13    1    4    4    0    0 -0.17564020889E+02 -0.37253748656E+02 -0.77757258090E+02  0.87991634855E+02  0.00000000000E+00 0. -1.
          1    1    1    2  501    0 -0.14543749848E+00  0.53632002645E+02 -0.22295556717E+02  0.58081879353E+02  0.00000000000E+00 0. -1.
<scales pt_clust_5="13000.00000" pt_clust_6="13000.00000" pt_clust_7="13000.00000" pt_clust_8="13000.00000" pt_clust_9="53.63220"></scales>
<clustering>
<clus scale="   53.632">  1  9  2 -1</clus>
<clus scale="   76.522">  5  6 -1 -1</clus>
<clus scale="   97.529">  2  5  1 -1</clus>
<clus scale="  111.319">  7  8 -1 -1</clus>
<clus scale="   53.632">  1  5  2 -1</clus>
</clustering>
</event>
<event>
 9    2  0.5615294E-005  0.9209690E+02  0.7546771E-02  0.1303963E+00
          2   -1    0    0  502    0 -0.00000000000E+00  0.00000000000E+00  0.69212041815E+02  0.69212041815E+02  0.00000000000E+00 0. -1.
         21   -1    0    0  501  502  0.00000000000E+00 -0.00000000000E+00 -0.22069501832E+03  0.22069501832E+03  0.00000000000E+00 0. -1.
         24    2    1    2    0    0 -0.44952105307E+01 -0.11459399889E+02  0.58196118188E+01  0.81101061612E+02  0.79949919008E+02 0.  0.
         23    2    1    2    0    0  0.14639460165E+02  0.36247905780E+02 -0.78775166961E+02  0.12583653588E+03  0.90006012943E+02 0.  0.
        -11    1    3    3    0    0  0.53078035111E+01  0.28834232573E+02  0.21929631426E+02  0.36612763903E+02  0.00000000000E+00 0.  1.
         12    1    3    3    0    0 -0.98030140418E+01 -0.40293632462E+02 -0.16110019607E+02  0.44488297709E+02  0.00000000000E+00 0. -1.
        -13    1    4    4    0    0 -0.35268967222E+02  0.32655190628E+02 -0.37140391168E+02  0.60742655359E+02  0.00000000000E+00 0.  1.
         13    1    4    4    0    0  0.49908427387E+02  0.35927151517E+01 -0.41634775793E+02  0.65093880524E+02  0.00000000000E+00 0. -1.
          1    1    1    2  501    0 -0.10144249634E+02 -0.24788505890E+02 -0.78527421363E+02  0.82969462641E+02  0.00000000000E+00 0. -1.
<scales pt_clust_5="13000.00000" pt_clust_6="13000.00000" pt_clust_7="13000.00000" pt_clust_8="13000.00000" pt_clust_9="26.78387"></scales>
<clustering>
<clus scale="   26.784">  2  9  1 -1</clus>
<clus scale="   79.950">  5  6 -1 -1</clus>
<clus scale="   82.297">  1  5  2 -1</clus>
<clus scale="   90.006">  7  8 -1 -1</clus>
<clus scale="   26.784">  2  5  1 -1</clus>
</clustering>
</event>
<event>
 9    2  0.5615294E-005  0.1071195E+03  0.7546771E-02  0.1270361E+00
         21   -1    0    0  501  502  0.00000000000E+00  0.00000000000E+00  0.36500237044E+03  0.36500237044E+03  0.00000000000E+00 0. -1.
          2   -1    0    0  502    0 -0.00000000000E+00 -0.00000000000E+00 -0.87385632368E+02  0.87385632368E+02  0.00000000000E+00 0. -1.
         24    2    1    2    0    0 -0.47295226127E+02 -0.17765075595E+02 -0.10164613096E+02  0.96073987175E+02  0.81083015034E+02 0.  0.
         23    2    1    2    0    0  0.76841650389E+02 -0.19557180995E+02  0.84685134537E+02  0.14771388324E+03  0.91436845571E+02 0.  0.
        -11    1    3    3    0    0 -0.45248204366E+02 -0.55094635122E+01  0.29642251800E+02  0.54372946199E+02  0.00000000000E+00 0.  1.
         12    1    3    3    0    0 -0.20470217611E+01 -0.12255612082E+02 -0.39806864896E+02  0.41701040976E+02  0.00000000000E+00 0. -1.
        -11    1    4    4    0    0  0.49216571284E+02  0.32676393102E+01  0.97816465788E+02  0.10954911837E+03  0.00000000000E+00 0. -1.
         11    1    4    4    0    0  0.27625079105E+02 -0.22824820305E+02 -0.13131331251E+02  0.38164764875E+02  0.00000000000E+00 0.  1.
          1    1    1    2  501    0 -0.29546424262E+02  0.37322256590E+02  0.20309621663E+03  0.20860013239E+03  0.00000000000E+00 0. -1.
<scales pt_clust_5="13000.00000" pt_clust_6="13000.00000" pt_clust_7="13000.00000" pt_clust_8="13000.00000" pt_clust_9="47.60191"></scales>
<clustering>
<clus scale="   47.602">  1  9  2 -1</clus>
<clus scale="   81.083">  5  6 -1 -1</clus>
<clus scale="   91.437">  7  8 -1 -1</clus>
<clus scale="   98.429">  2  5  1 -1</clus>
<clus scale="   47.602">  1  5  2 -1</clus>
</clustering>
</event>
<event>
 9    2  0.5615294E-005  0.1330503E+03  0.7546771E-02  0.1225530E+00
         21   -1    0    0  501  502  0.00000000000E+00  0.00000000000E+00  0.30304530169E+02  0.30304530169E+02  0.00000000000E+00 0. -1.
          2   -1    0    0  502    0 -0.00000000000E+00 -0.00000000000E+00 -0.80959541067E+03  0.80959541067E+03  0.00000000000E+00 0. -1.
         23    2    1    2    0    0  0.38549249820E+02  0.92481468095E+02 -0.38436462331E+03  0.40758503638E+03  0.91381243300E+02 0.  0.
         24    2    1    2    0    0 -0.10596146444E+02 -0.93081767979E+02 -0.19914372663E+03  0.23454600999E+03  0.81099402553E+02 0.  0.
        -13    1    4    4    0    0 -0.32111511546E+02 -0.10044711081E+02 -0.30831551697E+02  0.45635840899E+02  0.00000000000E+00 0.  1.
         14    1    4    4    0    0  0.21515365102E+02 -0.83037056899E+02 -0.16831217493E+03  0.18891016909E+03  0.00000000000E+00 0. -1.
        -13    1    3    3    0    0  0.25093356044E+02 -0.10136826179E+02 -0.13339237357E+03  0.13611009180E+03  0.00000000000E+00 0.  1.
         13    1    3    3    0    0  0.13455893775E+02  0.10261829427E+03 -0.25097224974E+03  0.27147494458E+03  0.00000000000E+00 0. -1.
          1    1    1    2  501    0 -0.27953103376E+02  0.60029988459E+00 -0.19578253056E+03  0.19776889447E+03  0.00000000000E+00 0. -1.
<scales pt_clust_5="13000.00000" pt_clust_6="13000.00000" pt_clust_7="13000.00000" pt_clust_8="13000.00000" pt_clust_9="27.95956"></scales>
<clustering>
<clus scale="   27.960">  1  9  2 -1</clus>
<clus scale="   81.099">  5  6 -1 -1</clus>
<clus scale="   91.381">  7  8 -1 -1</clus>
<clus scale="  126.210">  1  5  2 -1</clus>
<clus scale="   27.960">  1  5  2 -1</clus>
</clustering>
</event>
<event>
 9    2  0.5615294E-005  0.1116473E+03  0.7546771E-02  0.1263919E+00
          2   -1    0    0  502    0 -0.00000000000E+00  0.00000000000E+00  0.64564435030E+03  0.64564435030E+03  0.00000000000E+00 0. -1.
         21   -1    0    0  501  502  0.00000000000E+00 -0.00000000000E+00 -0.36251763815E+03  0.36251763815E+03  0.00000000000E+00 0. -1.
         24    2    1    2    0    0 -0.60504896711E+02  0.20928166737E+02  0.59695677956E+03  0.60523210176E+03  0.76483133062E+02 0.  0.
         23    2    1    2    0    0  0.41924256440E+02  0.49176094004E+02 -0.40433225404E+02  0.12007713208E+03  0.92777909178E+02 0.  0.
        -11    1    3    3    0    0 -0.15525947726E+02  0.15657265574E+02  0.34431484963E+02  0.40886821529E+02  0.00000000000E+00 0.  1.
         12    1    3    3    0    0 -0.44978948986E+02  0.52709011627E+01  0.56252529460E+03  0.56434528023E+03  0.00000000000E+00 0. -1.
        -13    1    4    4    0    0 -0.25161282069E+02  0.32237824465E+01 -0.28059796122E+02  0.37826380306E+02  0.00000000000E+00 0.  1.
         13    1    4    4    0    0  0.67085538509E+02  0.45952311558E+02 -0.12373429283E+02  0.82250751770E+02  0.00000000000E+00 0. -1.
          1    1    1    2  501    0  0.18580640272E+02 -0.70104260741E+02 -0.27339684201E+03  0.28285275461E+03  0.00000000000E+00 0. -1.
<scales pt_clust_5="13000.00000" pt_clust_6="13000.00000" pt_clust_7="13000.00000" pt_clust_8="13000.00000" pt_clust_9="72.52481"></scales>
<clustering>
<clus scale="   72.525">  2  9  1 -1</clus>
<clus scale="   76.483">  5  6 -1 -1</clus>
<clus scale="   92.778">  7  8 -1 -1</clus>
<clus scale="   98.524">  1  5  2 -1</clus>
<clus scale="   72.525">  2  5  1 -1</clus>
</clustering>
</event>
<event>
 9    2  0.5615294E-005  0.1123394E+03  0.7546771E-02  0.1260190E+00
          2   -1    0    0  502    0 -0.00000000000E+00  0.00000000000E+00  0.20947793257E+04  0.20947793257E+04  0.00000000000E+00 0. -1.
         21   -1    0    0  501  502  0.00000000000E+00 -0.00000000000E+00 -0.12688828283E+02  0.12688828283E+02  0.00000000000E+00 0.  1.
         24    2    1    2    0    0 -0.49548919908E+02  0.33144829293E+02  0.13277741378E+04  0.13315535739E+04  0.80604491967E+02 0.  0.
         23    2    1    2    0    0  0.95499156813E+02 -0.21680629329E+02  0.52540064500E+03  0.54215133110E+03  0.91060910411E+02 0.  0.
        -13    1    3    3    0    0 -0.20050794077E+02  0.25668639757E+02  0.15503013734E+03  0.15841482536E+03  0.00000000000E+00 0.  1.
         14    1    3    3    0    0 -0.29498125831E+02  0.74761895363E+01  0.11727440005E+04  0.11731387486E+04  0.00000000000E+00 0. -1.
        -11    1    4    4    0    0 -0.84756741495E+01 -0.28258631302E+02  0.11057528150E+03  0.11444334920E+03  0.00000000000E+00 0. -1.
         11    1    4    4    0    0  0.10397483096E+03  0.65780019736E+01  0.41482536350E+03  0.42770798191E+03  0.00000000000E+00 0.  1.
          1    1    1    2  501    0 -0.45950236905E+02 -0.11464199964E+02  0.22891571465E+03  0.23376324896E+03  0.00000000000E+00 0. -1.
<scales pt_clust_5="13000.00000" pt_clust_6="13000.00000" pt_clust_7="13000.00000" pt_clust_8="13000.00000" pt_clust_9="47.35876"></scales>
<clustering>
<clus scale="   47.359">  2  9  1 -1</clus>
<clus scale="   80.604">  5  6 -1 -1</clus>
<clus scale="   91.061">  7  8 -1 -1</clus>
<clus scale="  104.044">  1  5  2 -1</clus>
<clus scale="   47.359">  2  5  1 -1</clus>
</clustering>
</event>
<event>
 9    2  0.5615294E-005  0.9303852E+02  0.7546771E-02  0.1298222E+00
         21   -1    0    0  501  502  0.00000000000E+00  0.00000000000E+00  0.44574217776E+03  0.44574217776E+03  0.00000000000E+00 0. -1.
          4   -1    0    0  502    0 -0.00000000000E+00 -0.00000000000E+00 -0.67913369546E+02  0.67913369546E+02  0.00000000000E+00 0. -1.
         23    2    1    2    0    0 -0.24343647567E+02  0.19721880568E+01 -0.12330413315E+02  0.95152185546E+02  0.91133948774E+02 0.  0.
         24    2    1    2    0    0 -0.25084836401E+02  0.88026217789E+01  0.31579506181E+03  0.32856282693E+03  0.86719519203E+02 0.  0.
        -13    1    4    4    0    0  0.25479004157E+02  0.16259792945E+02  0.54540404371E+02  0.62355562930E+02  0.00000000000E+00 0.  1.
         14    1    4    4    0    0 -0.50563840557E+02 -0.74571711666E+01  0.26125465744E+03  0.26620726400E+03  0.00000000000E+00 0. -1.
        -13    1    3    3    0    0 -0.56499026189E+02  0.13611421612E+02  0.18177942263E+01  0.58143917433E+02  0.00000000000E+00 0. -1.
         13    1    3    3    0    0  0.32155378622E+02 -0.11639233555E+02 -0.14148207542E+02  0.37008268113E+02  0.00000000000E+00 0.  1.
          3    1    1    2  501    0  0.49428483967E+02 -0.10774809836E+02  0.74364159722E+02  0.89940534829E+02  0.00000000000E+00 0. -1.
<scales pt_clust_5="13000.00000" pt_clust_6="13000.00000" pt_clust_7="13000.00000" pt_clust_8="13000.00000" pt_clust_9="50.58924"></scales>
<clustering>
<clus scale="   50.589">  1  9  2 -1</clus>
<clus scale="   86.720">  5  6 -1 -1</clus>
<clus scale="   88.719">  1  5  2 -1</clus>
<clus scale="   91.134">  7  8 -1 -1</clus>
<clus scale="   50.589">  1  5  2 -1</clus>
</clustering>
</event>
<event>
 9    2  0.5615294E-005  0.1155882E+03  0.7546771E-02  0.1262787E+00
         21   -1    0    0  501  502  0.00000000000E+00  0.00000000000E+00  0.14019441328E+03  0.14019441328E+03  0.00000000000E+00 0.  1.
         -1   -1    0    0    0  501 -0.00000000000E+00 -0.00000000000E+00 -0.31927449227E+03  0.31927449227E+03  0.00000000000E+00 0.  1.
         24    2    1    2    0    0 -0.42618293407E+02 -0.12407764150E+02 -0.20559502480E+03  0.22581805184E+03  0.82183981219E+02 0.  0.
         23    2    1    2    0    0  0.14921857682E+02  0.20219011650E+02 -0.70672515973E+02  0.13229252466E+03  0.10897356238E+03 0.  0.
        -13    1    3    3    0    0 -0.49089692011E+02 -0.27797530353E+02 -0.20061519136E+03  0.20839615054E+03  0.00000000000E+00 0.  1.
         14    1    3    3    0    0  0.64713986043E+01  0.15389766203E+02 -0.49798334383E+01  0.17421901296E+02  0.00000000000E+00 0. -1.
        -13    1    4    4    0    0  0.53204484168E+02  0.11668662129E+02 -0.75148019326E+02  0.92812173879E+02  0.00000000000E+00 0. -1.
         13    1    4    4    0    0 -0.38282626486E+02  0.85503495204E+01  0.44755033525E+01  0.39480350781E+02  0.00000000000E+00 0.  1.
         -2    1    1    2    0  502  0.27696435725E+02 -0.78112474997E+01  0.97187461790E+02  0.10135832905E+03  0.00000000000E+00 0.  1.
<scales pt_clust_5="13000.00000" pt_clust_6="13000.00000" pt_clust_7="13000.00000" pt_clust_8="13000.00000" pt_clust_9="28.77687"></scales>
<clustering>
<clus scale="   28.777">  1  9  2 -1</clus>
<clus scale="   82.184">  5  6 -1 -1</clus>
<clus scale="   90.772">  2  5  1 -1</clus>
<clus scale="  108.974">  7  8 -1 -1</clus>
<clus scale="   28.777">  1  5  2 -1</clus>
</clustering>
</event>
<event>
 9    2  0.5615294E-005  0.9046732E+02  0.7546771E-02  0.1309310E+00
          2   -1    0    0  502    0 -0.00000000000E+00  0.00000000000E+00  0.13750776963E+03  0.13750776963E+03  0.00000000000E+00 0. -1.
         21   -1    0    0  501  502  0.00000000000E+00 -0.00000000000E+00 -0.97519064684E+02  0.97519064684E+02  0.00000000000E+00 0.  1.
         23    2    1    2    0    0  0.18185789196E+02  0.93900593258E+01  0.16354178824E+02  0.94046227353E+02  0.90323516159E+02 0.  0.
         24    2    1    2    0    0  0.21731305414E+02  0.55582823852E+00 -0.16850120214E+02  0.83263177095E+02  0.78589258354E+02 0.  0.
        -13    1    4    4    0    0  0.45916052412E+02 -0.18898933659E+02 -0.44963179587E+01  0.49856498451E+02  0.00000000000E+00 0.  1.
         14    1    4    4    0    0 -0.24184746999E+02  0.19454761897E+02 -0.12353802255E+02  0.33406678644E+02  0.00000000000E+00 0. -1.
        -11    1    3    3    0    0 -0.32188521399E+02 -0.15466977633E+02  0.64461483289E+00  0.35717556400E+02  0.00000000000E+00 0.  1.
         11    1    3    3    0    0  0.50374310595E+02  0.24857036959E+02  0.15709563991E+02  0.58328670952E+02  0.00000000000E+00 0. -1.
          1    1    1    2  501    0 -0.39917094610E+02 -0.99458875643E+01  0.40484646337E+02  0.57717429868E+02  0.00000000000E+00 0. -1.
<scales pt_clust_5="13000.00000" pt_clust_6="13000.00000" pt_clust_7="13000.00000" pt_clust_8="13000.00000" pt_clust_9="41.13754"></scales>
<clustering>
<clus scale="   41.138">  2  9  1 -1</clus>
<clus scale="   78.589">  5  6 -1 -1</clus>
<clus scale="   78.754">  2  5  1 -1</clus>
<clus scale="   90.324">  7  8 -1 -1</clus>
<clus scale="   41.138">  2  5  1 -1</clus>
</clustering>
</event>
<event>
 9    2  0.5615294E-005  0.2536343E+03  0.7546771E-02  0.1111627E+00
         21   -1    0    0  501  502  0.00000000000E+00  0.00000000000E+00  0.10313564369E+03  0.10313564369E+03  0.00000000000E+00 0. -1.
          2   -1    0    0  502    0 -0.00000000000E+00 -0.00000000000E+00 -0.18447357252E+04  0.18447357252E+04  0.00000000000E+00 0. -1.
         24    2    1    2    0    0 -0.20789742166E+03 -0.10478013433E+03 -0.15276083044E+04  0.15473012003E+04  0.79709837570E+02 0.  0.
         23    2    1    2    0    0  0.25513853910E+03  0.84332928943E+02 -0.20036290767E+03  0.34732021586E+03  0.90985276480E+02 0.  0.
        -11    1    3    3    0    0 -0.83964346354E+02 -0.11921379342E+02 -0.38386469728E+03  0.39312114744E+03  0.00000000000E+00 0.  1.
         12    1    3    3    0    0 -0.12393307531E+03 -0.92858754983E+02 -0.11437436072E+04  0.11541800529E+04  0.00000000000E+00 0. -1.
        -11    1    4    4    0    0  0.77371748446E+01  0.29158128263E+02 -0.23433879654E+02  0.38199568506E+02  0.00000000000E+00 0.  1.
         11    1    4    4    0    0  0.24740136426E+03  0.55174800680E+02 -0.17692902802E+03  0.30912064735E+03  0.00000000000E+00 0. -1.
          1    1    1    2  501    0 -0.47241117440E+02  0.20447205382E+02 -0.13628869417E+02  0.53249952737E+02  0.00000000000E+00 0. -1.
<scales pt_clust_5="13000.00000" pt_clust_6="13000.00000" pt_clust_7="13000.00000" pt_clust_8="13000.00000" pt_clust_9="51.47632"></scales>
<clustering>
<clus scale="   51.476">  1  9  2 -1</clus>
<clus scale="   79.710">  5  6 -1 -1</clus>
<clus scale="   90.985">  7  8 -1 -1</clus>
<clus scale="  249.811">  2  5  1 -1</clus>
<clus scale="   51.476">  1  5  2 -1</clus>
</clustering>
</event>
<event>
 9    2  0.8258892E-005  0.1050196E+03  0.7546771E-02  0.1277393E+00
         21   -1    0    0  501  502  0.00000000000E+00  0.00000000000E+00  0.97241963831E+02  0.97241963831E+02  0.00000000000E+00 0.  1.
          2   -1    0    0  502    0 -0.00000000000E+00 -0.00000000000E+00 -0.39263051181E+03  0.39263051181E+03  0.00000000000E+00 0. -1.
         23    2    1    2    0    0 -0.43229001867E+02 -0.10865691979E+01 -0.20459090535E+03  0.23006905706E+03  0.95939591583E+02 0.  0.
         24    2    1    2    0    0  0.35809407714E+02  0.40781405670E+02  0.52816638212E+02  0.11061966583E+03  0.80632973827E+02 0.  0.
        -11    1    4    4    0    0  0.39503455091E+02 -0.48941419097E+01 -0.11499859631E+01  0.39822080017E+02  0.00000000000E+00 0.  1.
         12    1    4    4    0    0 -0.36940473774E+01  0.45675547580E+02  0.53966624175E+02  0.70797585817E+02  0.00000000000E+00 0. -1.
        -13    1    3    3    0    0 -0.94254740377E+01 -0.35447954877E+02 -0.25672094641E+02  0.44771123607E+02  0.00000000000E+00 0. -1.
         13    1    3    3    0    0 -0.33803527829E+02  0.34361385679E+02 -0.17891881070E+03  0.18529793346E+03  0.00000000000E+00 0.  1.
          1    1    1    2  501    0  0.74195941530E+01 -0.39694836472E+02 -0.14361428085E+03  0.14918375275E+03  0.00000000000E+00 0. -1.
<scales pt_clust_5="13000.00000" pt_clust_6="13000.00000" pt_clust_7="13000.00000" pt_clust_8="13000.00000" pt_clust_9="40.38232"></scales>
<clustering>
<clus scale="   40.382">  1  9  2 -1</clus>
<clus scale="   80.633">  5  6 -1 -1</clus>
<clus scale="   91.249">  1  5  2 -1</clus>
<clus scale="   95.940">  7  8 -1 -1</clus>
<clus scale="   40.382">  1  5  2 -1</clus>
</clustering>
</event>
<event>
 9    2  0.5615294E-005  0.2352014E+03  0.7546771E-02  0.1150058E+00
          2   -1    0    0  502    0 -0.00000000000E+00  0.00000000000E+00  0.87799600759E+03  0.87799600759E+03  0.00000000000E+00 0. -1.
         21   -1    0    0  501  502  0.00000000000E+00 -0.00000000000E+00 -0.10009275250E+03  0.10009275250E+03  0.00000000000E+00 0. -1.
         24    2    1    2    0    0  0.86671119643E+02  0.28786539576E+02  0.10059902085E+03  0.15816175212E+03  0.80959428094E+02 0.  0.
         23    2    1    2    0    0 -0.26241958711E+03 -0.48994679468E+02  0.37206750106E+03  0.46713052837E+03  0.92261513504E+02 0.  0.
        -11    1    3    3    0    0  0.74123717613E+02  0.46050840165E+02  0.44116911808E+02  0.97781937495E+02  0.00000000000E+00 0.  1.
         12    1    3    3    0    0  0.12547402030E+02 -0.17264300589E+02  0.56482109044E+02  0.60379814629E+02  0.00000000000E+00 0. -1.
        -11    1    4    4    0    0 -0.22818201222E+02 -0.93429055891E+01  0.97491579226E+02  0.10056126596E+03  0.00000000000E+00 0.  1.
         11    1    4    4    0    0 -0.23960138588E+03 -0.39651773879E+02  0.27457592183E+03  0.36656926241E+03  0.00000000000E+00 0. -1.
          1    1    1    2  501    0  0.17574846746E+03  0.20208139893E+02  0.30523673318E+03  0.35279647960E+03  0.00000000000E+00 0. -1.
<scales pt_clust_5="13000.00000" pt_clust_6="13000.00000" pt_clust_7="13000.00000" pt_clust_8="13000.00000" pt_clust_9="216.35040"></scales>
<clustering>
<clus scale="   80.959">  5  6 -1 -1</clus>
<clus scale="   92.262">  7  8 -1 -1</clus>
<clus scale="  122.045">  1  5  2 -1</clus>
<clus scale="  216.350">  2  9  1 -1</clus>
<clus scale="  216.350">  2  5  1 -1</clus>
</clustering>
</event>
<event>
 9    2  0.5615294E-005  0.1074476E+03  0.7546771E-02  0.1270203E+00
          2   -1    0    0  502    0 -0.00000000000E+00  0.00000000000E+00  0.11355987672E+04  0.11355987672E+04  0.00000000000E+00 0. -1.
         21   -1    0    0  501  502  0.00000000000E+00 -0.00000000000E+00 -0.60395055379E+02  0.60395055379E+02  0.00000000000E+00 0.  1.
         24    2    1    2    0    0  0.11811114582E+02  0.54502895231E+02  0.10200648755E+04  0.10247381110E+04  0.80285602147E+02 0.  0.
         23    2    1    2    0    0  0.21689005840E+02 -0.62966773317E+02  0.70424435788E+02  0.13347284702E+03  0.91761496393E+02 0.  0.
        -11    1    3    3    0    0  0.30079593602E+02 -0.11713166952E+01  0.16911190805E+03  0.17177017022E+03  0.00000000000E+00 0.  1.
         12    1    3    3    0    0 -0.18268479020E+02  0.55674211926E+02  0.85095296748E+03  0.85296794081E+03  0.00000000000E+00 0. -1.
        -13    1    4    4    0    0 -0.16965485140E+02 -0.70676591009E+02  0.54992342043E+02  0.91143655215E+02  0.00000000000E+00 0.  1.
         13    1    4    4    0    0  0.38654490980E+02  0.77098176919E+01  0.15432093745E+02  0.42329191808E+02  0.00000000000E+00 0. -1.
          1    1    1    2  501    0 -0.33500120422E+02  0.84638780863E+01 -0.15285599482E+02  0.37782864530E+02  0.00000000000E+00 0. -1.
<scales pt_clust_5="13000.00000" pt_clust_6="13000.00000" pt_clust_7="13000.00000" pt_clust_8="13000.00000" pt_clust_9="34.55279"></scales>
<clustering>
<clus scale="   34.553">  2  9  1 -1</clus>
<clus scale="   80.286">  5  6 -1 -1</clus>
<clus scale="   91.761">  7  8 -1 -1</clus>
<clus scale="   97.829">  1  5  2 -1</clus>
<clus scale="   34.553">  2  5  1 -1</clus>
</clustering>
</event>
<event>
 9    2  0.5615294E-005  0.1145673E+03  0.7546771E-02  0.1257247E+00
          2   -1    0    0  502    0 -0.00000000000E+00  0.00000000000E+00  0.57172239606E+03  0.57172239606E+03  0.00000000000E+00 0. -1.
         21   -1    0    0  501  502  0.00000000000E+00 -0.00000000000E+00 -0.11339672814E+03  0.11339672814E+03  0.00000000000E+00 0. -1.
         24    2    1    2    0    0 -0.12977453787E+02 -0.67709957332E+02  0.50428347726E+03  0.51507241903E+03  0.79023533082E+02 0.  0.
         23    2    1    2    0    0 -0.32707882550E+02  0.56513964221E+02 -0.16283460677E+02  0.11443135489E+03  0.92551337955E+02 0.  0.
        -13    1    3    3    0    0  0.80834636954E+01 -0.46879272726E+02  0.11215586289E+03  0.12182752635E+03  0.00000000000E+00 0.  1.
         14    1    3    3    0    0 -0.21060917482E+02 -0.20830684606E+02  0.39212761437E+03  0.39324489268E+03  0.00000000000E+00 0. -1.
        -11    1    4    4    0    0  0.20023307468E+02 -0.14558976771E+02 -0.42449532821E+01  0.25118046798E+02  0.00000000000E+00 0.  1.
         11    1    4    4    0    0 -0.52731190018E+02  0.71072940992E+02 -0.12038507395E+02  0.89313308091E+02  0.00000000000E+00 0. -1.
          1    1    1    2  501    0  0.45685336337E+02  0.11195993111E+02 -0.29674348670E+02  0.55615350281E+02  0.00000000000E+00 0. -1.
<scales pt_clust_5="13000.00000" pt_clust_6="13000.00000" pt_clust_7="13000.00000" pt_clust_8="13000.00000" pt_clust_9="47.03722"></scales>
<clustering>
<clus scale="   47.037">  2  9  1 -1</clus>
<clus scale="   79.024">  5  6 -1 -1</clus>
<clus scale="   92.551">  7  8 -1 -1</clus>
<clus scale="  103.945">  1  5  2 -1</clus>
<clus scale="   47.037">  2  5  1 -1</clus>
</clustering>
</event>
<event>
 9    2  0.5615294E-005  0.1342872E+03  0.7546771E-02  0.1223150E+00
         21   -1    0    0  501  502  0.00000000000E+00  0.00000000000E+00  0.49915134687E+02  0.49915134687E+02  0.00000000000E+00 0.  1.
          2   -1    0    0  502    0 -0.00000000000E+00 -0.00000000000E+00 -0.43574869370E+03  0.43574869370E+03  0.00000000000E+00 0. -1.
         23    2    1    2    0    0  0.73335606337E+02 -0.76689001807E+02 -0.22900727331E+03  0.26784611926E+03  0.89654326263E+02 0.  0.
         24    2    1    2    0    0 -0.51331822122E+02  0.76214702398E+02 -0.10532490714E+03  0.16181071427E+03  0.81521373659E+02 0.  0.
        -11    1    4    4    0    0 -0.17754015455E+02 -0.11129211166E+02 -0.43325738701E-01  0.20953908539E+02  0.00000000000E+00 0.  1.
         12    1    4    4    0    0 -0.33577806667E+02  0.87343913564E+02 -0.10528158140E+03  0.14085680573E+03  0.00000000000E+00 0. -1.
        -11    1    3    3    0    0  0.47653918942E+02 -0.93983703091E+02 -0.19638573622E+03  0.22287034309E+03  0.00000000000E+00 0. -1.
         11    1    3    3    0    0  0.25681687395E+02  0.17294701284E+02 -0.32621537084E+02  0.44975776165E+02  0.00000000000E+00 0.  1.
          1    1    1    2  501    0 -0.22003784215E+02  0.47429940912E+00 -0.51501378561E+02  0.56006994862E+02  0.00000000000E+00 0. -1.
<scales pt_clust_5="13000.00000" pt_clust_6="13000.00000" pt_clust_7="13000.00000" pt_clust_8="13000.00000" pt_clust_9="22.00891"></scales>
<clustering>
<clus scale="   22.009">  1  9  2 -1</clus>
<clus scale="   81.521">  5  6 -1 -1</clus>
<clus scale="   89.654">  7  8 -1 -1</clus>
<clus scale="  129.000">  1  5  2 -1</clus>
<clus scale="   22.009">  1  5  2 -1</clus>
</clustering>
</event>
<event>
 9    2  0.5615294E-005  0.1314444E+03  0.7546771E-02  0.1226401E+00
          2   -1    0    0  502    0 -0.00000000000E+00  0.00000000000E+00  0.24927918099E+03  0.24927918099E+03  0.00000000000E+00 0. -1.
         21   -1    0    0  501  502  0.00000000000E+00 -0.00000000000E+00 -0.86196995912E+02  0.86196995912E+02  0.00000000000E+00 0.  1.
         23    2    1    2    0    0  0.49455672046E+02 -0.76870180559E+02  0.86141461049E+02  0.15561117105E+03  0.91867279747E+02 0.  0.
         24    2    1    2    0    0 -0.33057875725E+02  0.92199644122E+02  0.84397260588E+02  0.15621167385E+03  0.87667507832E+02 0.  0.
        -11    1    4    4    0    0  0.24229592308E+02  0.39557551075E+02  0.78138279079E+01  0.47041778208E+02  0.00000000000E+00 0.  1.
         12    1    4    4    0    0 -0.57287468032E+02  0.52642093047E+02  0.76583432680E+02  0.10916989564E+03  0.00000000000E+00 0. -1.
        -13    1    3    3    0    0  0.34242006244E+02  0.88538565352E+01  0.50228938364E+02  0.61431685768E+02  0.00000000000E+00 0. -1.
         13    1    3    3    0    0  0.15213665802E+02 -0.85724037094E+02  0.35912522685E+02  0.94179485285E+02  0.00000000000E+00 0.  1.
          1    1    1    2  501    0 -0.16397796321E+02 -0.15329463563E+02 -0.74565365546E+01  0.23653332000E+02  0.00000000000E+00 0. -1.
<scales pt_clust_5="13000.00000" pt_clust_6="13000.00000" pt_clust_7="13000.00000" pt_clust_8="13000.00000" pt_clust_9="22.44728"></scales>
<clustering>
<clus scale="   22.447">  2  9  1 -1</clus>
<clus scale="   87.668">  5  6 -1 -1</clus>
<clus scale="   91.867">  7  8 -1 -1</clus>
<clus scale="  128.544">  2  5  1 -1</clus>
<clus scale="   22.447">  2  5  1 -1</clus>
</clustering>
</event>
<event>
 9    2  0.5615294E-005  0.1349337E+03  0.7546771E-02  0.1241557E+00
         21   -1    0    0  501  502  0.00000000000E+00  0.00000000000E+00  0.71881502378E+02  0.71881502378E+02  0.00000000000E+00 0. -1.
          2   -1    0    0  502    0 -0.00000000000E+00 -0.00000000000E+00 -0.39393915832E+03  0.39393915832E+03  0.00000000000E+00 0. -1.
         24    2    1    2    0    0  0.21179096888E+02  0.29746401022E+02 -0.12566400534E+03  0.15288386409E+03  0.79048283607E+02 0.  0.
         23    2    1    2    0    0  0.26178719074E+01  0.82707393361E+02 -0.14133512736E+03  0.18548644323E+03  0.87076037039E+02 0.  0.
        -11    1    3    3    0    0 -0.25234808713E+02  0.27832274645E+02 -0.36687991500E+02  0.52511330235E+02  0.00000000000E+00 0.  1.
         12    1    3    3    0    0  0.46413905601E+02  0.19141263770E+01 -0.88976013842E+02  0.10037253385E+03  0.00000000000E+00 0. -1.
        -11    1    4    4    0    0  0.21112087518E+02  0.50234733143E+02 -0.19219765862E+02  0.57781035410E+02  0.00000000000E+00 0. -1.
         11    1    4    4    0    0 -0.18494215611E+02  0.32472660218E+02 -0.12211536150E+03  0.12770540782E+03  0.00000000000E+00 0.  1.
          1    1    1    2  501    0 -0.23796968795E+02 -0.11245379438E+03 -0.55058523240E+02  0.12745035338E+03  0.00000000000E+00 0. -1.
<scales pt_clust_5="13000.00000" pt_clust_6="13000.00000" pt_clust_7="13000.00000" pt_clust_8="13000.00000" pt_clust_9="103.07697"></scales>
<clustering>
<clus scale="   79.048">  5  6 -1 -1</clus>
<clus scale="   87.075">  2  5  1 -1</clus>
<clus scale="   87.076">  7  8 -1 -1</clus>
<clus scale="  103.077">  1  9  2 -1</clus>
<clus scale="  103.077">  1  5  2 -1</clus>
</clustering>
</event>
<event>
 9    2  0.5615294E-005  0.4132030E+03  0.7546771E-02  0.1085604E+00
         21   -1    0    0  501  502  0.00000000000E+00  0.00000000000E+00  0.28084804115E+03  0.28084804115E+03  0.00000000000E+00 0. -1.
          2   -1    0    0  502    0 -0.00000000000E+00 -0.00000000000E+00 -0.19018328907E+04  0.19018328907E+04  0.00000000000E+00 0. -1.
         24    2    1    2    0    0 -0.12676774538E+02  0.79219535137E+02 -0.12297555656E+04  0.12350012048E+04  0.80577846443E+02 0.  0.
         23    2    1    2    0    0  0.26301274961E+03  0.28123561561E+03 -0.65798128574E+02  0.40132686213E+03  0.92003687951E+02 0.  0.
        -13    1    3    3    0    0 -0.52521441361E+01  0.40783172387E+02 -0.18509950971E+03  0.18961192120E+03  0.00000000000E+00 0.  1.
         14    1    3    3    0    0 -0.74246304019E+01  0.38436362750E+02 -0.10446560559E+04  0.10453892836E+04  0.00000000000E+00 0. -1.
        -11    1    4    4    0    0  0.78369453829E+02  0.12911274204E+03  0.71790739441E+01  0.15120651624E+03  0.00000000000E+00 0.  1.
         11    1    4    4    0    0  0.18464329578E+03  0.15212287357E+03 -0.72977202518E+02  0.25012034589E+03  0.00000000000E+00 0. -1.
          1    1    1    2  501    0 -0.25033597507E+03 -0.36045515075E+03 -0.32543115536E+03  0.54635286491E+03  0.00000000000E+00 0. -1.
<scales pt_clust_5="13000.00000" pt_clust_6="13000.00000" pt_clust_7="13000.00000" pt_clust_8="13000.00000" pt_clust_9="402.83020"></scales>
<clustering>
<clus scale="   80.578">  5  6 -1 -1</clus>
<clus scale="   92.004">  7  8 -1 -1</clus>
<clus scale="  113.707">  2  5  1 -1</clus>
<clus scale="  402.830">  1  9  2 -1</clus>
<clus scale="  402.830">  1  5  2 -1</clus>
</clustering>
</event>
<event>
 9    2  0.5615294E-005  0.1157342E+03  0.7546771E-02  0.1253766E+00
         21   -1    0    0  501  502  0.00000000000E+00  0.00000000000E+00  0.17912363524E+03  0.17912363524E+03  0.00000000000E+00 0. -1.
         -1   -1    0    0    0  501 -0.00000000000E+00 -0.00000000000E+00 -0.10221603525E+03  0.10221603525E+03  0.00000000000E+00 0.  1.
         23    2    1    2    0    0 -0.49109286013E+02 -0.56029531828E+02  0.11101701473E+02  0.11759848810E+03  0.90305737459E+02 0.  0.
         24    2    1    2    0    0  0.60037077927E+02  0.37386763903E+02  0.83617303724E+02  0.13573733287E+03  0.80190705271E+02 0.  0.
        -11    1    4    4    0    0  0.29026740132E+02 -0.13489060303E+02 -0.12628284972E+01  0.32032813276E+02  0.00000000000E+00 0.  1.
         12    1    4    4    0    0  0.31010337796E+02  0.50875824206E+02  0.84880132221E+02  0.10370451960E+03  0.00000000000E+00 0. -1.
        -13    1    3    3    0    0 -0.74930751355E+02 -0.41272213654E+02 -0.84025413410E+00  0.85549512830E+02  0.00000000000E+00 0.  1.
         13    1    3    3    0    0  0.25821465341E+02 -0.14757318174E+02  0.11941955607E+02  0.32048975269E+02  0.00000000000E+00 0. -1.
         -2    1    1    2    0  502 -0.10927791914E+02  0.18642767926E+02 -0.17811405211E+02  0.28003849515E+02  0.00000000000E+00 0.  1.
<scales pt_clust_5="13000.00000" pt_clust_6="13000.00000" pt_clust_7="13000.00000" pt_clust_8="13000.00000" pt_clust_9="21.60949"></scales>
<clustering>
<clus scale="   21.609">  1  9  2 -1</clus>
<clus scale="   80.191">  5  6 -1 -1</clus>
<clus scale="   90.306">  7  8 -1 -1</clus>
<clus scale="  108.027">  1  5  2 -1</clus>
<clus scale="   21.609">  1  5  2 -1</clus>
</clustering>
</event>
<event>
 9    2  0.5615294E-005  0.1102509E+03  0.7546771E-02  0.1263382E+00
         21   -1    0    0  501  502  0.00000000000E+00  0.00000000000E+00  0.30893172214E+02  0.30893172214E+02  0.00000000000E+00 0. -1.
          2   -1    0    0  502    0 -0.00000000000E+00 -0.00000000000E+00 -0.56933955097E+03  0.56933955097E+03  0.00000000000E+00 0. -1.
         23    2    1    2    0    0  0.36930017085E+02  0.49010605128E+02 -0.34960541923E+03  0.36593399974E+03  0.88982455725E+02 0.  0.
         24    2    1    2    0    0 -0.29236300001E+02 -0.70337125990E+02 -0.12723547777E+03  0.16865385193E+03  0.80331702572E+02 0.  0.
        -13    1    4    4    0    0 -0.44461056320E+02 -0.44547338098E+02 -0.12331758572E+03  0.13845027197E+03  0.00000000000E+00 0.  1.
         14    1    4    4    0    0  0.15224756319E+02 -0.25789787892E+02 -0.39178920504E+01  0.30203579963E+02  0.00000000000E+00 0. -1.
        -13    1    3    3    0    0  0.30936337794E+02  0.75135562899E+02 -0.26670736278E+03  0.27881037852E+03  0.00000000000E+00 0. -1.
         13    1    3    3    0    0  0.59936792914E+01 -0.26124957771E+02 -0.82898056451E+02  0.87123621213E+02  0.00000000000E+00 0.  1.
          1    1    1    2  501    0 -0.76937170835E+01  0.21326520862E+02 -0.61605481745E+02  0.65644871511E+02  0.00000000000E+00 0. -1.
<scales pt_clust_5="13000.00000" pt_clust_6="13000.00000" pt_clust_7="13000.00000" pt_clust_8="13000.00000" pt_clust_9="22.67188"></scales>
<clustering>
<clus scale="   22.672">  1  9  2 -1</clus>
<clus scale="   80.332">  5  6 -1 -1</clus>
<clus scale="   88.982">  7  8 -1 -1</clus>
<clus scale="  103.395">  1  5  2 -1</clus>
<clus scale="   22.672">  1  5  2 -1</clus>
</clustering>
</event>
<event>
 9    2  0.5615294E-005  0.1001372E+03  0.7546771E-02  0.1280207E+00
         21   -1    0    0  501  502  0.00000000000E+00  0.00000000000E+00  0.33387933589E+03  0.33387933589E+03  0.00000000000E+00 0. -1.
          2   -1    0    0  502    0 -0.00000000000E+00 -0.00000000000E+00 -0.12805831076E+03  0.12805831076E+03  0.00000000000E+00 0. -1.
         24    2    1    2    0    0  0.22879391974E+02 -0.19533789787E+02 -0.52337128344E+02  0.10997485103E+03  0.91925281265E+02 0.  0.
         23    2    1    2    0    0 -0.88541682932E+02 -0.18045958840E+02  0.65223556060E+02  0.14472493025E+03  0.92335837707E+02 0.  0.
        -11    1    3    3    0    0  0.24399047572E+02 -0.54844480942E+02 -0.23893429173E+02  0.64607480758E+02  0.00000000000E+00 0.  1.
         12    1    3    3    0    0 -0.15196555975E+01  0.35310691155E+02 -0.28443699171E+02  0.45367370274E+02  0.00000000000E+00 0. -1.
        -11    1    4    4    0    0 -0.36848799319E+01 -0.31184420495E+02 -0.74027378531E+01  0.32262159714E+02  0.00000000000E+00 0.  1.
         11    1    4    4    0    0 -0.84856803000E+02  0.13138461655E+02  0.72626293913E+02  0.11246277054E+03  0.00000000000E+00 0. -1.
          1    1    1    2  501    0  0.65662290958E+02  0.37579748627E+02  0.19293459741E+03  0.20723786536E+03  0.00000000000E+00 0. -1.
<scales pt_clust_5="13000.00000" pt_clust_6="13000.00000" pt_clust_7="13000.00000" pt_clust_8="13000.00000" pt_clust_9="75.65563"></scales>
<clustering>
<clus scale="   75.656">  1  9  2 -1</clus>
<clus scale="   91.925">  5  6 -1 -1</clus>
<clus scale="   92.336">  7  8 -1 -1</clus>
<clus scale="   99.759">  2  5  1 -1</clus>
<clus scale="   75.656">  1  5  2 -1</clus>
</clustering>
</event>
<event>
 9    2  0.5615294E-005  0.1118544E+03  0.7546771E-02  0.1261725E+00
         21   -1    0    0  501  502  0.00000000000E+00  0.00000000000E+00  0.17907076788E+03  0.17907076788E+03  0.00000000000E+00 0.  1.
          2   -1    0    0  502    0 -0.00000000000E+00 -0.00000000000E+00 -0.19467377974E+03  0.19467377974E+03  0.00000000000E+00 0. -1.
         23    2    1    2    0    0  0.43525606038E+02  0.60096262627E+02  0.24070648355E+02  0.12049902701E+03  0.91839970800E+02 0.  0.
         24    2    1    2    0    0 -0.29750683989E+02 -0.38627122510E+02  0.84730483980E+02  0.12625314466E+03  0.79896456924E+02 0.  0.
        -11    1    4    4    0    0 -0.56509980001E+02 -0.16801214912E+02  0.56384127277E+02  0.81577132034E+02  0.00000000000E+00 0.  1.
         12    1    4    4    0    0  0.26759296011E+02 -0.21825907598E+02  0.28346356703E+02  0.44676012623E+02  0.00000000000E+00 0. -1.
        -11    1    3    3    0    0  0.93390241744E+01  0.78579842645E+02  0.18144170545E+02  0.81186328698E+02  0.00000000000E+00 0.  1.
         11    1    3    3    0    0  0.34186581863E+02 -0.18483580018E+02  0.59264778091E+01  0.39312698317E+02  0.00000000000E+00 0. -1.
          1    1    1    2  501    0 -0.13774922049E+02 -0.21469140117E+02 -0.12440414420E+03  0.12699237595E+03  0.00000000000E+00 0. -1.
<scales pt_clust_5="13000.00000" pt_clust_6="13000.00000" pt_clust_7="13000.00000" pt_clust_8="13000.00000" pt_clust_9="25.50829"></scales>
<clustering>
<clus scale="   25.508">  1  9  2 -1</clus>
<clus scale="   79.896">  5  6 -1 -1</clus>
<clus scale="   91.840">  7  8 -1 -1</clus>
<clus scale="  102.275">  1  5  2 -1</clus>
<clus scale="   25.508">  1  5  2 -1</clus>
</clustering>
</event>
<event>
 9    2  0.5615294E-005  0.9706230E+02  0.7546771E-02  0.1293323E+00
         21   -1    0    0  501  502  0.00000000000E+00  0.00000000000E+00  0.31050680938E+02  0.31050680938E+02  0.00000000000E+00 0.  1.
          2   -1    0    0  502    0 -0.00000000000E+00 -0.00000000000E+00 -0.74768057856E+03  0.74768057856E+03  0.00000000000E+00 0. -1.
         23    2    1    2    0    0  0.14288348528E+02  0.17396786733E+02 -0.34364467145E+03  0.35628950670E+03  0.91344114625E+02 0.  0.
         24    2    1    2    0    0 -0.98602975379E+01 -0.73368343041E+02 -0.11317488743E+03  0.15663386189E+03  0.79028300740E+02 0.  0.
        -13    1    4    4    0    0  0.60593759414E+00 -0.50281066536E+02 -0.11148672714E+02  0.51505783322E+02  0.00000000000E+00 0.  1.
         14    1    4    4    0    0 -0.10466235132E+02 -0.23087276505E+02 -0.10202621471E+03  0.10512807857E+03  0.00000000000E+00 0. -1.
        -13    1    3    3    0    0 -0.38820518038E+02  0.94070933703E+01 -0.13003229913E+03  0.13602913233E+03  0.00000000000E+00 0. -1.
         13    1    3    3    0    0  0.53108866566E+02  0.79896933624E+01 -0.21361237233E+03  0.22026037437E+03  0.00000000000E+00 0.  1.
          1    1    1    2  501    0 -0.44280509898E+01  0.55971556308E+02 -0.25981033874E+03  0.26580789090E+03  0.00000000000E+00 0. -1.
<scales pt_clust_5="13000.00000" pt_clust_6="13000.00000" pt_clust_7="13000.00000" pt_clust_8="13000.00000" pt_clust_9="56.14647"></scales>
<clustering>
<clus scale="   56.146">  1  9  2 -1</clus>
<clus scale="   79.028">  5  6 -1 -1</clus>
<clus scale="   85.573">  1  5  2 -1</clus>
<clus scale="   91.344">  7  8 -1 -1</clus>
<clus scale="   56.146">  1  5  2 -1</clus>
</clustering>
</event>
<event>
 9    2  0.5615294E-005  0.1422528E+03  0.7546771E-02  0.1211970E+00
         21   -1    0    0  501  502  0.00000000000E+00  0.00000000000E+00  0.76312096341E+02  0.76312096341E+02  0.00000000000E+00 0. -1.
          2   -1    0    0  502    0 -0.00000000000E+00 -0.00000000000E+00 -0.72546735840E+03  0.72546735840E+03  0.00000000000E+00 0. -1.
         23    2    1    2    0    0 -0.71890361432E+02 -0.16984142017E+02 -0.11240050769E+03  0.16256865849E+03  0.91312701448E+02 0.  0.
         24    2    1    2    0    0  0.17160618965E+03 -0.38428226248E+02 -0.18174802909E+03  0.26632535547E+03  0.83495125551E+02 0.  0.
        -11    1    4    4    0    0  0.83082408049E+02 -0.54885533198E+02 -0.12532433036E+03  0.16006653636E+03  0.00000000000E+00 0.  1.
         12    1    4    4    0    0  0.88523781601E+02  0.16457306950E+02 -0.56423698725E+02  0.10625881911E+03  0.00000000000E+00 0. -1.
        -11    1    3    3    0    0 -0.67425519269E+02  0.27445078838E+02 -0.69412368076E+02  0.10058583321E+03  0.00000000000E+00 0.  1.
         11    1    3    3    0    0 -0.44648421632E+01 -0.44429220855E+02 -0.42988139617E+02  0.61982825275E+02  0.00000000000E+00 0. -1.
          1    1    1    2  501    0 -0.99715828218E+02  0.55412368265E+02 -0.35500672528E+03  0.37288544078E+03  0.00000000000E+00 0. -1.
<scales pt_clust_5="13000.00000" pt_clust_6="13000.00000" pt_clust_7="13000.00000" pt_clust_8="13000.00000" pt_clust_9="114.07800"></scales>
<clustering>
<clus scale="   83.495">  5  6 -1 -1</clus>
<clus scale="   91.313">  7  8 -1 -1</clus>
<clus scale="  114.078">  1  9  2 -1</clus>
<clus scale="  137.366">  1  5  2 -1</clus>
<clus scale="  114.078">  1  5  2 -1</clus>
</clustering>
</event>
<event>
 9    2  0.5615294E-005  0.1142115E+03  0.7546771E-02  0.1256055E+00
         21   -1    0    0  501  502  0.00000000000E+00  0.00000000000E+00  0.13123920873E+03  0.13123920873E+03  0.00000000000E+00 0.  1.
          2   -1    0    0  502    0 -0.00000000000E+00 -0.00000000000E+00 -0.43996030724E+03  0.43996030724E+03  0.00000000000E+00 0. -1.
         24    2    1    2    0    0 -0.46899637652E+02  0.33389723924E+02 -0.10488347995E+03  0.14541408586E+03  0.82645401112E+02 0.  0.
         23    2    1    2    0    0  0.97206968465E+02 -0.81488708216E+02  0.48807102347E+02  0.16372876672E+03  0.91298255875E+02 0.  0.
        -13    1    3    3    0    0 -0.17934384920E+02  0.59236622128E+02 -0.65358722249E+02  0.90013233126E+02  0.00000000000E+00 0.  1.
         14    1    3    3    0    0 -0.28965252731E+02 -0.25846898205E+02 -0.39524757703E+02  0.55400852738E+02  0.00000000000E+00 0. -1.
        -13    1    4    4    0    0  0.60304179072E+02 -0.84871768085E+01  0.54510507499E+02  0.81731399178E+02  0.00000000000E+00 0.  1.
         13    1    4    4    0    0  0.36902789393E+02 -0.73001531407E+02 -0.57034051520E+01  0.81997367538E+02  0.00000000000E+00 0. -1.
          1    1    1    2  501    0 -0.50307330813E+02  0.48098984292E+02 -0.25264472091E+03  0.26205666339E+03  0.00000000000E+00 0. -1.
<scales pt_clust_5="13000.00000" pt_clust_6="13000.00000" pt_clust_7="13000.00000" pt_clust_8="13000.00000" pt_clust_9="69.60133"></scales>
<clustering>
<clus scale="   69.601">  1  9  2 -1</clus>
<clus scale="   82.645">  5  6 -1 -1</clus>
<clus scale="   91.298">  7  8 -1 -1</clus>
<clus scale="  107.420">  2  5  1 -1</clus>
<clus scale="   69.601">  1  5  2 -1</clus>
</clustering>
</event>
<event>
 9    2  0.5615294E-005  0.1653097E+03  0.7546771E-02  0.1184784E+00
         21   -1    0    0  501  502  0.00000000000E+00  0.00000000000E+00  0.13615483946E+03  0.13615483946E+03  0.00000000000E+00 0. -1.
          2   -1    0    0  502    0 -0.00000000000E+00 -0.00000000000E+00 -0.33211609029E+03  0.33211609029E+03  0.00000000000E+00 0. -1.
         24    2    1    2    0    0  0.12659826827E+03 -0.13838799920E+01 -0.10709436863E+03  0.18411897659E+03  0.80009731259E+02 0.  0.
         23    2    1    2    0    0 -0.16089386325E+03 -0.46174967492E+01  0.28831595207E+01  0.18601799109E+03  0.93199913579E+02 0.  0.
        -11    1    3    3    0    0  0.79589900414E+02  0.27045226517E+02 -0.29581941047E+02  0.89112781134E+02  0.00000000000E+00 0.  1.
         12    1    3    3    0    0  0.47008367853E+02 -0.28429106509E+02 -0.77512427585E+02  0.95006195457E+02  0.00000000000E+00 0. -1.
        -13    1    4    4    0    0  0.15669382320E+01  0.20038546008E+02 -0.72933728690E+01  0.21382046426E+02  0.00000000000E+00 0.  1.
         13    1    4    4    0    0 -0.16246080148E+03 -0.24656042757E+02  0.10176532390E+02  0.16463594466E+03  0.00000000000E+00 0. -1.
          1    1    1    2  501    0  0.34295594986E+02  0.60013767412E+01 -0.91750041712E+02  0.98133962074E+02  0.00000000000E+00 0. -1.
<scales pt_clust_5="13000.00000" pt_clust_6="13000.00000" pt_clust_7="13000.00000" pt_clust_8="13000.00000" pt_clust_9="34.81674"></scales>
<clustering>
<clus scale="   34.817">  1  9  2 -1</clus>
<clus scale="   80.010">  5  6 -1 -1</clus>
<clus scale="   93.200">  7  8 -1 -1</clus>
<clus scale="  158.249">  2  5  1 -1</clus>
<clus scale="   34.817">  1  5  2 -1</clus>
</clustering>
</event>
<event>
 9    2  0.5615294E-005  0.9882699E+02  0.7546771E-02  0.1288799E+00
         21   -1    0    0  501  502  0.00000000000E+00  0.00000000000E+00  0.91100217577E+02  0.91100217577E+02  0.00000000000E+00 0. -1.
         -1   -1    0    0    0  501 -0.00000000000E+00 -0.00000000000E+00 -0.19865672066E+03  0.19865672066E+03  0.00000000000E+00 0.  1.
         23    2    1    2    0    0  0.17722743933E+02 -0.35138406892E+02 -0.11477011137E+03  0.15253812924E+03  0.92449440863E+02 0.  0.
         24    2    1    2    0    0 -0.25722838049E+02  0.72639514930E+01  0.39333152141E+02  0.93944661210E+02  0.81018967680E+02 0.  0.
        -11    1    4    4    0    0  0.12216365757E+02  0.18413361371E+02 -0.15027405007E+02  0.26722918451E+02  0.00000000000E+00 0.  1.
         12    1    4    4    0    0 -0.37939203807E+02 -0.11149409878E+02  0.54360557148E+02  0.67221742759E+02  0.00000000000E+00 0. -1.
        -13    1    3    3    0    0 -0.24252435691E+02  0.19682252289E+02 -0.40268748630E+02  0.50962180176E+02  0.00000000000E+00 0. -1.
         13    1    3    3    0    0  0.41975179624E+02 -0.54820659181E+02 -0.74501362737E+02  0.10157594906E+03  0.00000000000E+00 0.  1.
         -2    1    1    2    0  502  0.80000941166E+01  0.27874455399E+02 -0.32119543860E+02  0.43274147795E+02  0.00000000000E+00 0.  1.
<scales pt_clust_5="13000.00000" pt_clust_6="13000.00000" pt_clust_7="13000.00000" pt_clust_8="13000.00000" pt_clust_9="28.99979"></scales>
<clustering>
<clus scale="   29.000">  1  9  2 -1</clus>
<clus scale="   81.019">  5  6 -1 -1</clus>
<clus scale="   88.227">  1  5  2 -1</clus>
<clus scale="   92.449">  7  8 -1 -1</clus>
<clus scale="   29.000">  1  5  2 -1</clus>
</clustering>
</event>
<event>
 9    2  0.5615294E-005  0.9581035E+02  0.7546771E-02  0.1295043E+00
         21   -1    0    0  501  502  0.00000000000E+00  0.00000000000E+00  0.36116249353E+03  0.36116249353E+03  0.00000000000E+00 0.  1.
         -3   -1    0    0    0  501 -0.00000000000E+00 -0.00000000000E+00 -0.35205986962E+02  0.35205986962E+02  0.00000000000E+00 0.  1.
         23    2    1    2    0    0  0.13842626450E+02 -0.37927444759E+02  0.10577015877E+03  0.14521732526E+03  0.90943035442E+02 0.  0.
         24    2    1    2    0    0 -0.18522467565E+02  0.65242941858E+01  0.18987827036E+03  0.20725766669E+03  0.80723816980E+02 0.  0.
        -11    1    4    4    0    0  0.21025973607E+02  0.25916151911E+02  0.12085132534E+03  0.12537456414E+03  0.00000000000E+00 0.  1.
         12    1    4    4    0    0 -0.39548441172E+02 -0.19391857725E+02  0.69026945022E+02  0.81883102556E+02  0.00000000000E+00 0. -1.
        -11    1    3    3    0    0  0.48472555298E+02 -0.36372248717E+01  0.37775846828E+02  0.61561616495E+02  0.00000000000E+00 0.  1.
         11    1    3    3    0    0 -0.34629928848E+02 -0.34290219887E+02  0.67994311943E+02  0.83655708762E+02  0.00000000000E+00 0. -1.
         -4    1    1    2    0  502  0.46798411149E+01  0.31403150573E+02  0.30308077439E+02  0.43893488547E+02  0.00000000000E+00 0.  1.
<scales pt_clust_5="13000.00000" pt_clust_6="13000.00000" pt_clust_7="13000.00000" pt_clust_8="13000.00000" pt_clust_9="31.74996"></scales>
<clustering>
<clus scale="   31.750">  1  9  2 -1</clus>
<clus scale="   80.724">  5  6 -1 -1</clus>
<clus scale="   86.170">  1  5  2 -1</clus>
<clus scale="   90.943">  7  8 -1 -1</clus>
<clus scale="   31.750">  1  5  2 -1</clus>
</clustering>
</event>
<event>
 9    2  0.7251073E-005  0.1136679E+03  0.7546771E-02  0.1258352E+00
         21   -1    0    0  501  502  0.00000000000E+00  0.00000000000E+00  0.23852439013E+03  0.23852439013E+03  0.00000000000E+00 0. -1.
          2   -1    0    0  502    0 -0.00000000000E+00 -0.00000000000E+00 -0.30923847755E+03  0.30923847755E+03  0.00000000000E+00 0. -1.
         23    2    1    2    0    0 -0.56213856581E+02  0.36831453414E+02 -0.24749220878E+03  0.27277994273E+03  0.92951331964E+02 0.  0.
         24    2    1    2    0    0  0.44132622897E+02  0.36572144809E+01  0.20454773229E+03  0.22442167769E+03  0.81020065480E+02 0.  0.
        -13    1    4    4    0    0 -0.12571261518E+02 -0.17280402771E+02  0.16797241236E+02  0.27180806634E+02  0.00000000000E+00 0.  1.
         14    1    4    4    0    0  0.56703884416E+02  0.20937617252E+02  0.18775049105E+03  0.19724087105E+03  0.00000000000E+00 0. -1.
        -13    1    3    3    0    0 -0.74966815725E+02  0.51254789439E+02 -0.18904836329E+03  0.20972925538E+03  0.00000000000E+00 0. -1.
         13    1    3    3    0    0  0.18752959144E+02 -0.14423336025E+02 -0.58443845492E+02  0.63050687345E+02  0.00000000000E+00 0.  1.
          1    1    1    2  501    0  0.12081233684E+02 -0.40488667895E+02 -0.27769610924E+02  0.50561247276E+02  0.00000000000E+00 0. -1.
<scales pt_clust_5="13000.00000" pt_clust_6="13000.00000" pt_clust_7="13000.00000" pt_clust_8="13000.00000" pt_clust_9="42.25269"></scales>
<clustering>
<clus scale="   42.253">  1  9  2 -1</clus>
<clus scale="   81.020">  5  6 -1 -1</clus>
<clus scale="   92.951">  7  8 -1 -1</clus>
<clus scale="  104.138">  1  5  2 -1</clus>
<clus scale="   42.253">  1  5  2 -1</clus>
</clustering>
</event>
<event>
 9    2  0.5615294E-005  0.2336446E+03  0.7546771E-02  0.1125059E+00
          2   -1    0    0  502    0 -0.00000000000E+00  0.00000000000E+00  0.48310657265E+03  0.48310657265E+03  0.00000000000E+00 0. -1.
         21   -1    0    0  501  502  0.00000000000E+00 -0.00000000000E+00 -0.16971451960E+03  0.16971451960E+03  0.00000000000E+00 0. -1.
         24    2    1    2    0    0  0.17490350528E+03 -0.10470579784E+03  0.22223152969E+03  0.31223407543E+03  0.80924191760E+02 0.  0.
         23    2    1    2    0    0 -0.22282333465E+03  0.88725428057E+02  0.27826728690E+02  0.25957558667E+03  0.95303296483E+02 0.  0.
        -13    1    3    3    0    0  0.35651178909E+02  0.11908052921E+02  0.34519256339E+02  0.51033198412E+02  0.00000000000E+00 0.  1.
         14    1    3    3    0    0  0.13925232638E+03 -0.11661385077E+03  0.18771227335E+03  0.26120087702E+03  0.00000000000E+00 0. -1.
        -13    1    4    4    0    0 -0.93666895308E+02  0.83559083727E+02 -0.69681604157E+01  0.12571460937E+03  0.00000000000E+00 0.  1.
         13    1    4    4    0    0 -0.12915643934E+03  0.51663443304E+01  0.34794889105E+02  0.13386097730E+03  0.00000000000E+00 0. -1.
          1    1    1    2  501    0  0.47919829363E+02  0.15980369788E+02  0.63333794673E+02  0.81011430135E+02  0.00000000000E+00 0. -1.
<scales pt_clust_5="13000.00000" pt_clust_6="13000.00000" pt_clust_7="13000.00000" pt_clust_8="13000.00000" pt_clust_9="50.51420"></scales>
<clustering>
<clus scale="   50.514">  2  9  1 -1</clus>
<clus scale="   80.924">  5  6 -1 -1</clus>
<clus scale="   95.303">  7  8 -1 -1</clus>
<clus scale="  228.157">  1  5  2 -1</clus>
<clus scale="   50.514">  2  5  1 -1</clus>
</clustering>
</event>
<event>
 9    2  0.5615294E-005  0.9382591E+02  0.7546771E-02  0.1299213E+00
         21   -1    0    0  501  502  0.00000000000E+00  0.00000000000E+00  0.20807174521E+02  0.20807174521E+02  0.00000000000E+00 0. -1.
          2   -1    0    0  502    0 -0.00000000000E+00 -0.00000000000E+00 -0.96400596009E+03  0.96400596009E+03  0.00000000000E+00 0. -1.
         24    2    1    2    0    0  0.16123292035E+02 -0.44956860769E+01 -0.64767622494E+03  0.65304520603E+03  0.81874153610E+02 0.  0.
         23    2    1    2    0    0 -0.56160756539E+02 -0.43484496889E+01 -0.18323263613E+03  0.21222611813E+03  0.91064738973E+02 0.  0.
        -13    1    3    3    0    0 -0.26030229159E+02  0.71948108526E+01 -0.98674357255E+02  0.10230330842E+03  0.00000000000E+00 0.  1.
         14    1    3    3    0    0  0.42153521194E+02 -0.11690496930E+02 -0.54900186768E+03  0.55074189762E+03  0.00000000000E+00 0. -1.
        -11    1    4    4    0    0 -0.23963886091E+02  0.29816443480E+02 -0.21634359790E+02  0.43946941440E+02  0.00000000000E+00 0.  1.
         11    1    4    4    0    0 -0.32196870448E+02 -0.34164893169E+02 -0.16159827634E+03  0.16827917669E+03  0.00000000000E+00 0. -1.
          1    1    1    2  501    0  0.40037464503E+02  0.88441357658E+01 -0.11228992450E+03  0.11954181045E+03  0.00000000000E+00 0. -1.
<scales pt_clust_5="13000.00000" pt_clust_6="13000.00000" pt_clust_7="13000.00000" pt_clust_8="13000.00000" pt_clust_9="41.00265"></scales>
<clustering>
<clus scale="   41.003">  1  9  2 -1</clus>
<clus scale="   81.874">  5  6 -1 -1</clus>
<clus scale="   84.935">  2  5  1 -1</clus>
<clus scale="   91.065">  7  8 -1 -1</clus>
<clus scale="   41.003">  1  5  2 -1</clus>
</clustering>
</event>
<event>
 9    2  0.5615294E-005  0.1300635E+03  0.7546771E-02  0.1229753E+00
         21   -1    0    0  501  502  0.00000000000E+00  0.00000000000E+00  0.10008618913E+03  0.10008618913E+03  0.00000000000E+00 0.  1.
         -1   -1    0    0    0  501 -0.00000000000E+00 -0.00000000000E+00 -0.74246480279E+03  0.74246480279E+03  0.00000000000E+00 0.  1.
         23    2    1    2    0    0  0.72500031242E+02  0.55312027687E+02 -0.58335047229E+03  0.59722133838E+03  0.89776826353E+02 0.  0.
         24    2    1    2    0    0 -0.96638421070E+02 -0.48947428137E+02 -0.11930096914E+03  0.18009175230E+03  0.80408226318E+02 0.  0.
        -13    1    4    4    0    0 -0.82095287876E+02 -0.16651544120E+02 -0.11792131717E+03  0.14464559190E+03  0.00000000000E+00 0.  1.
         14    1    4    4    0    0 -0.14543133194E+02 -0.32295884018E+02 -0.13796519750E+01  0.35446160401E+02  0.00000000000E+00 0. -1.
        -13    1    3    3    0    0  0.26024504162E+02  0.72610079964E+02 -0.39440095837E+03  0.40187263466E+03  0.00000000000E+00 0.  1.
         13    1    3    3    0    0  0.46475527080E+02 -0.17298052276E+02 -0.18894951393E+03  0.19534870372E+03  0.00000000000E+00 0. -1.
         -2    1    1    2    0  502  0.24138389828E+02 -0.63645995501E+01  0.60272827779E+02  0.65237901249E+02  0.00000000000E+00 0.  1.
<scales pt_clust_5="13000.00000" pt_clust_6="13000.00000" pt_clust_7="13000.00000" pt_clust_8="13000.00000" pt_clust_9="24.96337"></scales>
<clustering>
<clus scale="   24.963">  1  9  2 -1</clus>
<clus scale="   80.408">  5  6 -1 -1</clus>
<clus scale="   89.777">  7  8 -1 -1</clus>
<clus scale="  123.783">  1  5  2 -1</clus>
<clus scale="   24.963">  1  5  2 -1</clus>
</clustering>
</event>
<event>
 9    2  0.5615294E-005  0.1051006E+03  0.7546771E-02  0.1274208E+00
          2   -1    0    0  502    0 -0.00000000000E+00  0.00000000000E+00  0.52348973365E+03  0.52348973365E+03  0.00000000000E+00 0. -1.
         21   -1    0    0  501  502  0.00000000000E+00 -0.00000000000E+00 -0.10294796297E+03  0.10294796297E+03  0.00000000000E+00 0. -1.
         24    2    1    2    0    0 -0.11258934853E+01 -0.50349284982E+02  0.42924051741E+03  0.43981059685E+03  0.81545209426E+02 0.  0.
         23    2    1    2    0    0 -0.13636815853E+02  0.63999464762E+02  0.51209071490E+02  0.12343523573E+03  0.91279757782E+02 0.  0.
        -11    1    3    3    0    0 -0.33045980902E+02  0.31428046465E+01  0.13165880362E+03  0.13577906556E+03  0.00000000000E+00 0.  1.
         12    1    3    3    0    0  0.31920087417E+02 -0.53492089629E+02  0.29758171379E+03  0.30403153129E+03  0.00000000000E+00 0. -1.
        -13    1    4    4    0    0  0.27507319218E+02  0.57492538778E+02  0.94121923694E+01  0.64425414170E+02  0.00000000000E+00 0.  1.
         13    1    4    4    0    0 -0.41144135071E+02  0.65069259837E+01  0.41796879121E+02  0.59009821562E+02  0.00000000000E+00 0. -1.
          1    1    1    2  501    0  0.14762709338E+02 -0.13650179780E+02 -0.59907818230E+02  0.63191864034E+02  0.00000000000E+00 0. -1.
<scales pt_clust_5="13000.00000" pt_clust_6="13000.00000" pt_clust_7="13000.00000" pt_clust_8="13000.00000" pt_clust_9="20.10634"></scales>
<clustering>
<clus scale="   20.106">  2  9  1 -1</clus>
<clus scale="   81.545">  5  6 -1 -1</clus>
<clus scale="   91.280">  7  8 -1 -1</clus>
<clus scale="   96.767">  1  5  2 -1</clus>
<clus scale="   20.106">  2  5  1 -1</clus>
</clustering>
</event>
<event>
 9    2  0.5615294E-005  0.1643352E+03  0.7546771E-02  0.1185454E+00
         21   -1    0    0  501  502  0.00000000000E+00  0.00000000000E+00  0.35440849765E+02  0.35440849765E+02  0.00000000000E+00 0. -1.
          2   -1    0    0  502    0 -0.00000000000E+00 -0.00000000000E+00 -0.11226749593E+04  0.11226749593E+04  0.00000000000E+00 0. -1.
         24    2    1    2    0    0 -0.14538333348E+03 -0.39956934484E+02 -0.71721211573E+03  0.73729312495E+03  0.80467775444E+02 0.  0.
         23    2    1    2    0    0  0.10278859501E+03  0.23674926726E+02 -0.19324046105E+03  0.23825454384E+03  0.91089815304E+02 0.  0.
        -11    1    3    3    0    0 -0.40269136324E+02 -0.24591270486E+02 -0.94941074217E+02  0.10601953357E+03  0.00000000000E+00 0.  1.
         12    1    3    3    0    0 -0.10511419715E+03 -0.15365663998E+02 -0.62227104151E+03  0.63127359138E+03  0.00000000000E+00 0. -1.
        -11    1    4    4    0    0  0.15107787484E+02 -0.27579022249E+02 -0.80973235942E+02  0.86864910349E+02  0.00000000000E+00 0.  1.
         11    1    4    4    0    0  0.87680807529E+02  0.51253948976E+02 -0.11226722511E+03  0.15138963349E+03  0.00000000000E+00 0. -1.
          1    1    1    2  501    0  0.42594738463E+02  0.16282007758E+02 -0.17678153279E+03  0.18256814031E+03  0.00000000000E+00 0. -1.
<scales pt_clust_5="13000.00000" pt_clust_6="13000.00000" pt_clust_7="13000.00000" pt_clust_8="13000.00000" pt_clust_9="45.60063"></scales>
<clustering>
<clus scale="   45.601">  1  9  2 -1</clus>
<clus scale="   80.468">  5  6 -1 -1</clus>
<clus scale="   91.090">  7  8 -1 -1</clus>
<clus scale="  158.694">  2  5  1 -1</clus>
<clus scale="   45.601">  1  5  2 -1</clus>
</clustering>
</event>
<event>
 9    2  0.5615294E-005  0.9326943E+02  0.7546771E-02  0.1301999E+00
         21   -1    0    0  501  502  0.00000000000E+00  0.00000000000E+00  0.99592547636E+02  0.99592547636E+02  0.00000000000E+00 0. -1.
          2   -1    0    0  502    0 -0.00000000000E+00 -0.00000000000E+00 -0.18443397198E+03  0.18443397198E+03  0.00000000000E+00 0. -1.
         23    2    1    2    0    0 -0.24732672833E+02  0.28866221747E+01 -0.13547360006E+03  0.16501876792E+03  0.90873867315E+02 0.  0.
         24    2    1    2    0    0  0.77046127421E+01  0.98426399781E+01  0.21995389426E+02  0.83341879008E+02  0.79409275411E+02 0.  0.
        -13    1    4    4    0    0  0.36592350627E+02  0.19667396720E+02 -0.59489391872E+01  0.41966611676E+02  0.00000000000E+00 0.  1.
         14    1    4    4    0    0 -0.28887737885E+02 -0.98247567419E+01  0.27944328613E+02  0.41375267332E+02  0.00000000000E+00 0. -1.
        -11    1    3    3    0    0 -0.30684053434E+01  0.38382469157E+02 -0.22412986439E+02  0.44553013491E+02  0.00000000000E+00 0.  1.
         11    1    3    3    0    0 -0.21664267490E+02 -0.35495846983E+02 -0.11306061362E+03  0.12046575443E+03  0.00000000000E+00 0. -1.
          1    1    1    2  501    0  0.17028060091E+02 -0.12729262153E+02  0.28636786289E+02  0.35665872685E+02  0.00000000000E+00 0. -1.
<scales pt_clust_5="13000.00000" pt_clust_6="13000.00000" pt_clust_7="13000.00000" pt_clust_8="13000.00000" pt_clust_9="21.26003"></scales>
<clustering>
<clus scale="   21.260">  1  9  2 -1</clus>
<clus scale="   79.409">  5  6 -1 -1</clus>
<clus scale="   82.140">  1  5  2 -1</clus>
<clus scale="   90.874">  7  8 -1 -1</clus>
<clus scale="   21.260">  1  5  2 -1</clus>
</clustering>
</event>
<event>
 9    2  0.5615294E-005  0.1121773E+03  0.7546771E-02  0.1260531E+00
          2   -1    0    0  502    0 -0.00000000000E+00  0.00000000000E+00  0.10728416141E+04  0.10728416141E+04  0.00000000000E+00 0. -1.
         21   -1    0    0  501  502  0.00000000000E+00 -0.00000000000E+00 -0.18987289671E+02  0.18987289671E+02  0.00000000000E+00 0.  1.
         24    2    1    2    0    0 -0.56604684021E+02  0.11165927944E+02  0.61805754894E+03  0.62602553603E+03  0.81142280936E+02 0.  0.
         23    2    1    2    0    0  0.78240455805E+02 -0.41042422721E+02  0.32539570365E+03  0.34940273104E+03  0.91617984702E+02 0.  0.
        -11    1    3    3    0    0 -0.69816436197E+02 -0.75428896925E+01  0.34898674762E+03  0.35598171296E+03  0.00000000000E+00 0.  1.
         12    1    3    3    0    0  0.13211752176E+02  0.18708817636E+02  0.26907080132E+03  0.27004382307E+03  0.00000000000E+00 0. -1.
        -13    1    4    4    0    0  0.15161861252E+02 -0.37028123519E+02  0.23916010141E+03  0.24248405736E+03  0.00000000000E+00 0.  1.
         13    1    4    4    0    0  0.63078594552E+02 -0.40142992025E+01  0.86235602242E+02  0.10691867369E+03  0.00000000000E+00 0. -1.
          1    1    1    2  501    0 -0.21635771784E+02  0.29876494778E+02  0.11040107184E+03  0.11640063670E+03  0.00000000000E+00 0. -1.
<scales pt_clust_5="13000.00000" pt_clust_6="13000.00000" pt_clust_7="13000.00000" pt_clust_8="13000.00000" pt_clust_9="36.88782"></scales>
<clustering>
<clus scale="   36.888">  2  9  1 -1</clus>
<clus scale="   81.142">  5  6 -1 -1</clus>
<clus scale="   91.618">  7  8 -1 -1</clus>
<clus scale="  103.798">  1  5  2 -1</clus>
<clus scale="   36.888">  2  5  1 -1</clus>
</clustering>
</event>
<event>
 9    2  0.5615294E-005  0.1011941E+03  0.7546771E-02  0.1282859E+00
          2   -1    0    0  502    0 -0.00000000000E+00  0.00000000000E+00  0.41497643534E+03  0.41497643534E+03  0.00000000000E+00 0. -1.
         21   -1    0    0  501  502  0.00000000000E+00 -0.00000000000E+00 -0.91961904367E+02  0.91961904367E+02  0.00000000000E+00 0. -1.
         24    2    1    2    0    0 -0.20474959686E+02 -0.22016377914E+01  0.16341100919E+03  0.18300218818E+03  0.79765730550E+02 0.  0.
         23    2    1    2    0    0  0.97665288646E+02  0.66901485650E+01  0.19719994255E+03  0.23795950082E+03  0.90297508244E+02 0.  0.
        -11    1    3    3    0    0  0.22521319426E+02 -0.17532872000E+02  0.10533747375E+03  0.10913567155E+03  0.00000000000E+00 0.  1.
         12    1    3    3    0    0 -0.42996279112E+02  0.15331234208E+02  0.58073535441E+02  0.73866516626E+02  0.00000000000E+00 0. -1.
        -11    1    4    4    0    0  0.68393833549E+02  0.57510184969E+01  0.42976680959E+02  0.80980156752E+02  0.00000000000E+00 0.  1.
         11    1    4    4    0    0  0.29271455097E+02  0.93913006818E+00  0.15422326159E+03  0.15697934407E+03  0.00000000000E+00 0. -1.
          1    1    1    2  501    0 -0.77190328961E+02 -0.44885107737E+01 -0.37596420761E+02  0.85976650714E+02  0.00000000000E+00 0. -1.
<scales pt_clust_5="13000.00000" pt_clust_6="13000.00000" pt_clust_7="13000.00000" pt_clust_8="13000.00000" pt_clust_9="77.32072"></scales>
<clustering>
<clus scale="   77.321">  2  9  1 -1</clus>
<clus scale="   79.766">  5  6 -1 -1</clus>
<clus scale="   90.298">  7  8 -1 -1</clus>
<clus scale="   91.919">  1  5  2 -1</clus>
<clus scale="   77.321">  2  5  1 -1</clus>
</clustering>
</event>
<event>
 9    2  0.5615294E-005  0.9050024E+02  0.7546771E-02  0.1307124E+00
          2   -1    0    0  502    0 -0.00000000000E+00  0.00000000000E+00  0.91577740741E+03  0.91577740741E+03  0.00000000000E+00 0. -1.
         21   -1    0    0  501  502  0.00000000000E+00 -0.00000000000E+00 -0.18117313960E+02  0.18117313960E+02  0.00000000000E+00 0.  1.
         24    2    1    2    0    0  0.33281340935E+02 -0.78885975274E+01  0.32498811926E+03  0.33681054456E+03  0.81573204194E+02 0.  0.
         23    2    1    2    0    0  0.37239114080E+02  0.45080843864E+01  0.30611198514E+03  0.32133285730E+03  0.90239588299E+02 0.  0.
        -13    1    3    3    0    0  0.52968903603E+02 -0.51150597618E+01  0.30093571692E+03  0.30560460452E+03  0.00000000000E+00 0.  1.
         14    1    3    3    0    0 -0.19687562668E+02 -0.27735377656E+01  0.24052402335E+02  0.31205940038E+02  0.00000000000E+00 0. -1.
        -11    1    4    4    0    0  0.28174648321E+02 -0.41864459090E+02  0.16070154428E+03  0.16843820848E+03  0.00000000000E+00 0. -1.
         11    1    4    4    0    0  0.90644657595E+01  0.46372543477E+02  0.14541044086E+03  0.15289464882E+03  0.00000000000E+00 0.  1.
          1    1    1    2  501    0 -0.70520455015E+02  0.33805131410E+01  0.26655998905E+03  0.27575131950E+03  0.00000000000E+00 0. -1.
<scales pt_clust_5="13000.00000" pt_clust_6="13000.00000" pt_clust_7="13000.00000" pt_clust_8="13000.00000" pt_clust_9="70.60147"></scales>
<clustering>
<clus scale="   70.601">  2  9  1 -1</clus>
<clus scale="   81.573">  5  6 -1 -1</clus>
<clus scale="   81.861">  1  5  2 -1</clus>
<clus scale="   90.240">  7  8 -1 -1</clus>
<clus scale="   70.601">  2  5  1 -1</clus>
</clustering>
</event>
<event>
 9    2  0.5615294E-005  0.9616854E+02  0.7546771E-02  0.1294156E+00
          4   -1    0    0  502    0 -0.00000000000E+00  0.00000000000E+00  0.11328118478E+03  0.11328118478E+03  0.00000000000E+00 0. -1.
         21   -1    0    0  501  502  0.00000000000E+00 -0.00000000000E+00 -0.29783192278E+03  0.29783192278E+03  0.00000000000E+00 0. -1.
         24    2    1    2    0    0 -0.16464007423E+02  0.19534794522E+02  0.75790010205E+02  0.11467610476E+03  0.82181577128E+02 0.  0.
         23    2    1    2    0    0  0.39383014061E+02 -0.21142294922E+02 -0.13752215327E+03  0.17148792443E+03  0.92183225992E+02 0.  0.
        -11    1    3    3    0    0 -0.17108280571E+02  0.26566396582E+02 -0.63524328482E+01  0.32230732144E+02  0.00000000000E+00 0.  1.
         12    1    3    3    0    0  0.64427314803E+00 -0.70316020598E+01  0.82142443053E+02  0.82445372618E+02  0.00000000000E+00 0. -1.
        -13    1    4    4    0    0  0.67755586934E+02 -0.23287322409E+02 -0.11364169393E+03  0.13434118335E+03  0.00000000000E+00 0. -1.
         13    1    4    4    0    0 -0.28372572873E+02  0.21450274872E+01 -0.23880459347E+02  0.37146741082E+02  0.00000000000E+00 0.  1.
          3    1    1    2  501    0 -0.22919006638E+02  0.16075003992E+01 -0.12281859494E+03  0.12494907837E+03  0.00000000000E+00 0. -1.
<scales pt_clust_5="13000.00000" pt_clust_6="13000.00000" pt_clust_7="13000.00000" pt_clust_8="13000.00000" pt_clust_9="22.97531"></scales>
<clustering>
<clus scale="   22.975">  2  9  1 -1</clus>
<clus scale="   82.182">  5  6 -1 -1</clus>
<clus scale="   86.628">  1  5  2 -1</clus>
<clus scale="   92.183">  7  8 -1 -1</clus>
<clus scale="   22.975">  2  5  1 -1</clus>
</clustering>
</event>
<event>
 9    2  0.5615294E-005  0.9635088E+02  0.7546771E-02  0.1293683E+00
         21   -1    0    0  501  502  0.00000000000E+00  0.00000000000E+00  0.14677053715E+03  0.14677053715E+03  0.00000000000E+00 0. -1.
          2   -1    0    0  502    0 -0.00000000000E+00 -0.00000000000E+00 -0.69970147941E+03  0.69970147941E+03  0.00000000000E+00 0. -1.
         24    2    1    2    0    0 -0.25257759722E+02 -0.54203501434E+01 -0.33956705391E+03  0.35000701696E+03  0.80819509987E+02 0.  0.
         23    2    1    2    0    0  0.40906213924E+02 -0.11690014609E+02 -0.34679860620E+03  0.36103065156E+03  0.90905903682E+02 0.  0.
        -13    1    3    3    0    0 -0.22158355969E+02  0.10316496955E+02 -0.24761124193E+02  0.34792759592E+02  0.00000000000E+00 0.  1.
         14    1    3    3    0    0 -0.30994037529E+01 -0.15736847098E+02 -0.31480592972E+03  0.31521425736E+03  0.00000000000E+00 0. -1.
        -11    1    4    4    0    0  0.36890446668E+02 -0.47767549430E+02 -0.26065116372E+03  0.26754751538E+03  0.00000000000E+00 0.  1.
         11    1    4    4    0    0  0.40157672559E+01  0.36077534821E+02 -0.86147442482E+02  0.93483136189E+02  0.00000000000E+00 0. -1.
          1    1    1    2  501    0 -0.15648454202E+02  0.17110364753E+02  0.13343471785E+03  0.13543434804E+03  0.00000000000E+00 0. -1.
<scales pt_clust_5="13000.00000" pt_clust_6="13000.00000" pt_clust_7="13000.00000" pt_clust_8="13000.00000" pt_clust_9="23.18704"></scales>
<clustering>
<clus scale="   23.187">  1  9  2 -1</clus>
<clus scale="   80.820">  5  6 -1 -1</clus>
<clus scale="   86.899">  2  5  1 -1</clus>
<clus scale="   90.906">  7  8 -1 -1</clus>
<clus scale="   23.187">  1  5  2 -1</clus>
</clustering>
</event>
<event>
 9    2  0.5615294E-005  0.1056881E+03  0.7546771E-02  0.1270884E+00
         -1   -1    0    0    0  501 -0.00000000000E+00  0.00000000000E+00  0.32054468365E+03  0.32054468365E+03  0.00000000000E+00 0.  1.
         21   -1    0    0  501  502  0.00000000000E+00 -0.00000000000E+00 -0.10315444329E+03  0.10315444329E+03  0.00000000000E+00 0.  1.
         23    2    1    2    0    0 -0.10843336757E+02  0.22930225571E+02  0.37899737017E+02  0.10293642492E+03  0.92282957870E+02 0.  0.
         24    2    1    2    0    0  0.51951801820E+02 -0.87583674942E+02  0.97713222279E+01  0.13455159909E+03  0.87400024314E+02 0.  0.
        -11    1    4    4    0    0  0.49924023599E+02 -0.78862395228E+02  0.41088064299E+02  0.10197997128E+03  0.00000000000E+00 0.  1.
         12    1    4    4    0    0  0.20277782206E+01 -0.87212797138E+01 -0.31316742071E+02  0.32571627812E+02  0.00000000000E+00 0. -1.
        -11    1    3    3    0    0  0.12540299447E+02  0.33677719788E+02 -0.18881696599E+02  0.40595152257E+02  0.00000000000E+00 0.  1.
         11    1    3    3    0    0 -0.23383636204E+02 -0.10747494217E+02  0.56781433617E+02  0.62341272666E+02  0.00000000000E+00 0. -1.
         -2    1    1    2    0  502 -0.41108465063E+02  0.64653449371E+02  0.16971918112E+03  0.18621110293E+03  0.00000000000E+00 0.  1.
<scales pt_clust_5="13000.00000" pt_clust_6="13000.00000" pt_clust_7="13000.00000" pt_clust_8="13000.00000" pt_clust_9="76.61580"></scales>
<clustering>
<clus scale="   76.616">  2  9  1 -1</clus>
<clus scale="   87.400">  5  6 -1 -1</clus>
<clus scale="   92.283">  7  8 -1 -1</clus>
<clus scale="  101.452">  2  5  1 -1</clus>
<clus scale="   76.616">  2  5  1 -1</clus>
</clustering>
</event>
<event>
 9    2  0.8384339E-005  0.1345195E+03  0.7546771E-02  0.1222893E+00
         21   -1    0    0  501  502  0.00000000000E+00  0.00000000000E+00  0.54435340815E+03  0.54435340815E+03  0.00000000000E+00 0.  1.
          2   -1    0    0  502    0 -0.00000000000E+00 -0.00000000000E+00 -0.22618958966E+03  0.22618958966E+03  0.00000000000E+00 0. -1.
         23    2    1    2    0    0 -0.43024208197E+02 -0.89740728255E+02 -0.18739705028E+03  0.23008336165E+03  0.88973131091E+02 0.  0.
         24    2    1    2    0    0  0.31597479016E+02  0.12181008069E+03  0.33873799395E+03  0.37019841017E+03  0.80419760719E+02 0.  0.
        -13    1    4    4    0    0  0.48293467087E+02  0.11892222320E+03  0.26379951372E+03  0.29336826272E+03  0.00000000000E+00 0.  1.
         14    1    4    4    0    0 -0.16695988071E+02  0.28878574886E+01  0.74938480227E+02  0.76830147450E+02  0.00000000000E+00 0. -1.
        -11    1    3    3    0    0  0.11127498966E+02 -0.26936607266E+02 -0.47988557981E+01  0.29536944006E+02  0.00000000000E+00 0.  1.
         11    1    3    3    0    0 -0.54151707163E+02 -0.62804120989E+02 -0.18259819449E+03  0.20054641765E+03  0.00000000000E+00 0. -1.
          1    1    1    2  501    0  0.11426729181E+02 -0.32069352433E+02  0.16682287483E+03  0.17026122598E+03  0.00000000000E+00 0. -1.
<scales pt_clust_5="13000.00000" pt_clust_6="13000.00000" pt_clust_7="13000.00000" pt_clust_8="13000.00000" pt_clust_9="34.04429"></scales>
<clustering>
<clus scale="   34.044">  1  9  2 -1</clus>
<clus scale="   80.420">  5  6 -1 -1</clus>
<clus scale="   88.973">  7  8 -1 -1</clus>
<clus scale="  129.022">  1  5  2 -1</clus>
<clus scale="   34.044">  1  5  2 -1</clus>
</clustering>
</event>
<event>
 9    2  0.5615294E-005  0.1811448E+03  0.7546771E-02  0.1167983E+00
          2   -1    0    0  502    0 -0.00000000000E+00  0.00000000000E+00  0.44875485938E+03  0.44875485938E+03  0.00000000000E+00 0. -1.
         21   -1    0    0  501  502  0.00000000000E+00 -0.00000000000E+00 -0.12061068278E+03  0.12061068278E+03  0.00000000000E+00 0. -1.
         23    2    1    2    0    0  0.69375148458E+02 -0.14987964305E+03  0.23646953669E+03  0.30243699481E+03  0.90958646772E+02 0.  0.
         24    2    1    2    0    0 -0.52695618993E+02  0.12394245994E+03 -0.13611112042E+02  0.15721968839E+03  0.79963781863E+02 0.  0.
        -11    1    4    4    0    0  0.19288090727E+02  0.48477475192E+02 -0.11451943090E+01  0.52186277075E+02  0.00000000000E+00 0.  1.
         12    1    4    4    0    0 -0.71983709720E+02  0.75464984752E+02 -0.12465917733E+02  0.10503341132E+03  0.00000000000E+00 0. -1.
        -11    1    3    3    0    0  0.67451749490E+02 -0.67498637076E+02  0.17607831545E+03  0.20027325755E+03  0.00000000000E+00 0. -1.
         11    1    3    3    0    0  0.19233989676E+01 -0.82381005971E+02  0.60391221240E+02  0.10216373726E+03  0.00000000000E+00 0.  1.
          1    1    1    2  501    0 -0.16679529465E+02  0.25937183103E+02  0.10528575195E+03  0.10970885896E+03  0.00000000000E+00 0. -1.
<scales pt_clust_5="13000.00000" pt_clust_6="13000.00000" pt_clust_7="13000.00000" pt_clust_8="13000.00000" pt_clust_9="30.83740"></scales>
<clustering>
<clus scale="   30.837">  2  9  1 -1</clus>
<clus scale="   79.964">  5  6 -1 -1</clus>
<clus scale="   90.959">  7  8 -1 -1</clus>
<clus scale="  175.881">  2  5  1 -1</clus>
<clus scale="   30.837">  2  5  1 -1</clus>
</clustering>
</event>
<event>
 9    2  0.8618495E-005  0.9069323E+02  0.7546771E-02  0.1307968E+00
          2   -1    0    0  502    0 -0.00000000000E+00  0.00000000000E+00  0.22549690513E+03  0.22549690513E+03  0.00000000000E+00 0. -1.
         21   -1    0    0  501  502  0.00000000000E+00 -0.00000000000E+00 -0.10336359466E+03  0.10336359466E+03  0.00000000000E+00 0.  1.
         23    2    1    2    0    0 -0.10993695810E+02 -0.85077363766E+01  0.17398033488E+03  0.19634651158E+03  0.89941941058E+02 0.  0.
         24    2    1    2    0    0  0.95820329116E+01 -0.24374505422E+02 -0.54199030903E+02  0.99517525487E+02  0.79248161234E+02 0.  0.
        -11    1    4    4    0    0  0.30094310651E+02  0.18862825819E+02 -0.20808929973E+02  0.41164126349E+02  0.00000000000E+00 0.  1.
         12    1    4    4    0    0 -0.20512277739E+02 -0.43237331241E+02 -0.33390100930E+02  0.58353399138E+02  0.00000000000E+00 0. -1.
        -11    1    3    3    0    0  0.32590255856E+02  0.27808970355E+01  0.26345356472E+02  0.41999237763E+02  0.00000000000E+00 0.  1.
         11    1    3    3    0    0 -0.43583951665E+02 -0.11288633412E+02  0.14763497841E+03  0.15434727382E+03  0.00000000000E+00 0. -1.
          1    1    1    2  501    0  0.14116628980E+01  0.32882241798E+02  0.23520064979E+01  0.32996462726E+02  0.00000000000E+00 0. -1.
<scales pt_clust_5="13000.00000" pt_clust_6="13000.00000" pt_clust_7="13000.00000" pt_clust_8="13000.00000" pt_clust_9="32.91253"></scales>
<clustering>
<clus scale="   32.913">  2  9  1 -1</clus>
<clus scale="   79.248">  5  6 -1 -1</clus>
<clus scale="   80.100">  2  5  1 -1</clus>
<clus scale="   89.942">  7  8 -1 -1</clus>
<clus scale="   32.913">  2  5  1 -1</clus>
</clustering>
</event>
<event>
 9    2  0.5615294E-005  0.9036515E+02  0.7546771E-02  0.1307108E+00
          2   -1    0    0  502    0 -0.00000000000E+00  0.00000000000E+00  0.75907615045E+02  0.75907615045E+02  0.00000000000E+00 0. -1.
         21   -1    0    0  501  502  0.00000000000E+00 -0.00000000000E+00 -0.30525067295E+03  0.30525067295E+03  0.00000000000E+00 0. -1.
         23    2    1    2    0    0 -0.59332145911E+01  0.48755231358E+02 -0.11896607167E+03  0.15584927988E+03  0.87885130779E+02 0.  0.
         24    2    1    2    0    0 -0.30173882313E+02  0.14436975252E+02 -0.12420556262E+03  0.15122657465E+03  0.79520850512E+02 0.  0.
        -13    1    4    4    0    0 -0.43052876659E+02 -0.59400194032E+01 -0.27199680831E+02  0.51270426724E+02  0.00000000000E+00 0.  1.
         14    1    4    4    0    0  0.12878994347E+02  0.20376994655E+02 -0.97005881785E+02  0.99956147922E+02  0.00000000000E+00 0. -1.
        -11    1    3    3    0    0 -0.40213184407E+02  0.36955667947E+02 -0.36287359332E+02  0.65571289760E+02  0.00000000000E+00 0. -1.
         11    1    3    3    0    0  0.34279969816E+02  0.11799563411E+02 -0.82678712335E+02  0.90277990122E+02  0.00000000000E+00 0.  1.
          1    1    1    2  501    0  0.36107096904E+02 -0.63192206610E+02  0.13828576381E+02  0.74082433463E+02  0.00000000000E+00 0. -1.
<scales pt_clust_5="13000.00000" pt_clust_6="13000.00000" pt_clust_7="13000.00000" pt_clust_8="13000.00000" pt_clust_9="72.78037"></scales>
<clustering>
<clus scale="   72.780">  2  9  1 -1</clus>
<clus scale="   79.521">  5  6 -1 -1</clus>
<clus scale="   82.253">  2  5  1 -1</clus>
<clus scale="   87.885">  7  8 -1 -1</clus>
<clus scale="   72.780">  2  5  1 -1</clus>
</clustering>
</event>
<event>
 9    2  0.5615294E-005  0.1132121E+03  0.7546771E-02  0.1261571E+00
         21   -1    0    0  501  502  0.00000000000E+00  0.00000000000E+00  0.57532384705E+02  0.57532384705E+02  0.00000000000E+00 0. -1.
          2   -1    0    0  502    0 -0.00000000000E+00 -0.00000000000E+00 -0.74136808194E+03  0.74136808194E+03  0.00000000000E+00 0. -1.
         23    2    1    2    0    0 -0.42013303288E+02 -0.31045377135E+02 -0.40951080191E+03  0.42431459801E+03  0.98055331907E+02 0.  0.
         24    2    1    2    0    0  0.71783569583E+02 -0.95577845710E+01 -0.29925121863E+03  0.31840573790E+03  0.81158425121E+02 0.  0.
        -11    1    4    4    0    0  0.65315319859E+02  0.27056311661E+02 -0.21470504118E+03  0.22604510549E+03  0.00000000000E+00 0.  1.
         12    1    4    4    0    0  0.64682497247E+01 -0.36614096232E+02 -0.84546177451E+02  0.92360632409E+02  0.00000000000E+00 0. -1.
        -13    1    3    3    0    0 -0.13645318389E+02 -0.62077338565E+02 -0.30711455182E+03  0.31362260540E+03  0.00000000000E+00 0. -1.
         13    1    3    3    0    0 -0.28367984900E+02  0.31031961430E+02 -0.10239625008E+03  0.11069199261E+03  0.00000000000E+00 0.  1.
          1    1    1    2  501    0 -0.29770266295E+02  0.40603161706E+02  0.24926323301E+02  0.56180130732E+02  0.00000000000E+00 0. -1.
<scales pt_clust_5="13000.00000" pt_clust_6="13000.00000" pt_clust_7="13000.00000" pt_clust_8="13000.00000" pt_clust_9="50.34765"></scales>
<clustering>
<clus scale="   50.348">  1  9  2 -1</clus>
<clus scale="   81.158">  5  6 -1 -1</clus>
<clus scale="   98.055">  7  8 -1 -1</clus>
<clus scale="   98.938">  1  5  2 -1</clus>
<clus scale="   50.348">  1  5  2 -1</clus>
</clustering>
</event>
<event>
 9    2  0.5615294E-005  0.1102348E+03  0.7546771E-02  0.1266234E+00
         21   -1    0    0  501  502  0.00000000000E+00  0.00000000000E+00  0.12611724369E+03  0.12611724369E+03  0.00000000000E+00 0. -1.
         -3   -1    0    0    0  501 -0.00000000000E+00 -0.00000000000E+00 -0.22199502031E+03  0.22199502031E+03  0.00000000000E+00 0.  1.
         23    2    1    2    0    0 -0.41033848559E+02  0.41664069660E+02 -0.14269851089E+03  0.18152506967E+03  0.95753926705E+02 0.  0.
         24    2    1    2    0    0  0.55409733907E+02  0.67481982384E+01  0.58735326818E+02  0.11469912944E+03  0.81180508053E+02 0.  0.
        -13    1    4    4    0    0  0.21720447682E+02 -0.23506537448E+02 -0.89784185126E+01  0.33240745318E+02  0.00000000000E+00 0.  1.
         14    1    4    4    0    0  0.33689286225E+02  0.30254735686E+02  0.67713745330E+02  0.81458384126E+02  0.00000000000E+00 0. -1.
        -11    1    3    3    0    0 -0.55417666145E+01  0.61727032246E+02 -0.47890974413E+02  0.78322941194E+02  0.00000000000E+00 0.  1.
         11    1    3    3    0    0 -0.35492081945E+02 -0.20062962586E+02 -0.94807536476E+02  0.10320212847E+03  0.00000000000E+00 0. -1.
         -4    1    1    2    0  502 -0.14375885347E+02 -0.48412267899E+02 -0.11914592547E+02  0.51888064891E+02  0.00000000000E+00 0.  1.
<scales pt_clust_5="13000.00000" pt_clust_6="13000.00000" pt_clust_7="13000.00000" pt_clust_8="13000.00000" pt_clust_9="50.50162"></scales>
<clustering>
<clus scale="   50.502">  1  9  2 -1</clus>
<clus scale="   81.181">  5  6 -1 -1</clus>
<clus scale="   95.754">  7  8 -1 -1</clus>
<clus scale="   97.843">  1  5  2 -1</clus>
<clus scale="   50.502">  1  5  2 -1</clus>
</clustering>
</event>
<event>
 9    2  0.5615294E-005  0.1228046E+03  0.7546771E-02  0.1241881E+00
          2   -1    0    0  502    0 -0.00000000000E+00  0.00000000000E+00  0.49150025853E+03  0.49150025853E+03  0.00000000000E+00 0. -1.
         21   -1    0    0  501  502  0.00000000000E+00 -0.00000000000E+00 -0.56166923354E+02  0.56166923354E+02  0.00000000000E+00 0. -1.
         24    2    1    2    0    0  0.25813157787E+02  0.88623846704E+02  0.23780389395E+03  0.26751164054E+03  0.80568483431E+02 0.  0.
         23    2    1    2    0    0  0.34757149637E+02 -0.72791289509E+02  0.17547073983E+03  0.21377769628E+03  0.91674923567E+02 0.  0.
        -11    1    3    3    0    0 -0.15829402546E+02  0.16056592698E+02  0.96957487484E+01  0.24543669201E+02  0.00000000000E+00 0.  1.
         12    1    3    3    0    0  0.41642560334E+02  0.72567254006E+02  0.22810814521E+03  0.24296797134E+03  0.00000000000E+00 0. -1.
        -13    1    4    4    0    0  0.33498952764E+02  0.12882406983E+02  0.42976325874E+02  0.55991971135E+02  0.00000000000E+00 0.  1.
         13    1    4    4    0    0  0.12581968727E+01 -0.85673696492E+02  0.13249441395E+03  0.15778572514E+03  0.00000000000E+00 0. -1.
          1    1    1    2  501    0 -0.60570307424E+02 -0.15832557195E+02  0.22058701391E+02  0.66377845068E+02  0.00000000000E+00 0. -1.
<scales pt_clust_5="13000.00000" pt_clust_6="13000.00000" pt_clust_7="13000.00000" pt_clust_8="13000.00000" pt_clust_9="62.60537"></scales>
<clustering>
<clus scale="   62.605">  2  9  1 -1</clus>
<clus scale="   80.568">  5  6 -1 -1</clus>
<clus scale="   91.675">  7  8 -1 -1</clus>
<clus scale="  114.752">  1  5  2 -1</clus>
<clus scale="   62.605">  2  5  1 -1</clus>
</clustering>
</event>
<event>
 9    2  0.5615294E-005  0.1164070E+03  0.7546771E-02  0.1253897E+00
         21   -1    0    0  501  502  0.00000000000E+00  0.00000000000E+00  0.29061497401E+03  0.29061497401E+03  0.00000000000E+00 0. -1.
          2   -1    0    0  502    0 -0.00000000000E+00 -0.00000000000E+00 -0.23311913452E+03  0.23311913452E+03  0.00000000000E+00 0. -1.
         24    2    1    2    0    0  0.42276982264E+02  0.48764708872E+02 -0.15627230096E+03  0.18689150852E+03  0.79637075840E+02 0.  0.
         23    2    1    2    0    0 -0.33090772520E+02 -0.99984286785E+02  0.27286286581E+02  0.14323652203E+03  0.93168143580E+02 0.  0.
        -13    1    3    3    0    0  0.28008638702E+02 -0.17464705141E+02 -0.35934433538E+02  0.48793270861E+02  0.00000000000E+00 0.  1.
         14    1    3    3    0    0  0.14268343561E+02  0.66229414013E+02 -0.12033786742E+03  0.13809823766E+03  0.00000000000E+00 0. -1.
        -13    1    4    4    0    0 -0.42658439349E+02 -0.80001100609E+02  0.56306615780E+02  0.10672559921E+03  0.00000000000E+00 0.  1.
         13    1    4    4    0    0  0.95676668289E+01 -0.19983186176E+02 -0.29020329200E+02  0.36510922820E+02  0.00000000000E+00 0. -1.
          1    1    1    2  501    0 -0.91862097436E+01  0.51219577913E+02  0.18648185386E+03  0.19360607798E+03  0.00000000000E+00 0. -1.
<scales pt_clust_5="13000.00000" pt_clust_6="13000.00000" pt_clust_7="13000.00000" pt_clust_8="13000.00000" pt_clust_9="52.03683"></scales>
<clustering>
<clus scale="   52.037">  1  9  2 -1</clus>
<clus scale="   79.637">  5  6 -1 -1</clus>
<clus scale="   93.168">  7  8 -1 -1</clus>
<clus scale="  105.888">  2  5  1 -1</clus>
<clus scale="   52.037">  1  5  2 -1</clus>
</clustering>
</event>
<event>
 9    2  0.5615294E-005  0.9668581E+02  0.7546771E-02  0.1296415E+00
          2   -1    0    0  502    0 -0.00000000000E+00  0.00000000000E+00  0.17887107008E+03  0.17887107008E+03  0.00000000000E+00 0. -1.
         21   -1    0    0  501  502  0.00000000000E+00 -0.00000000000E+00 -0.13672823614E+03  0.13672823614E+03  0.00000000000E+00 0.  1.
         24    2    1    2    0    0  0.67105558341E+01 -0.18166118165E+02  0.13035689773E+03  0.15356456562E+03  0.78829662046E+02 0.  0.
         23    2    1    2    0    0  0.89883352979E+01  0.42345662152E+02 -0.52803270292E+02  0.11637261378E+03  0.94236164019E+02 0.  0.
        -11    1    3    3    0    0  0.41348269855E+02 -0.19695571003E+02  0.84021947045E+02  0.95693691131E+02  0.00000000000E+00 0.  1.
         12    1    3    3    0    0 -0.34637714021E+02  0.15294528379E+01  0.46334950685E+02  0.57870874484E+02  0.00000000000E+00 0. -1.
        -11    1    4    4    0    0  0.32901607879E+02  0.58475921544E+02 -0.14881343722E+02  0.68727022287E+02  0.00000000000E+00 0.  1.
         11    1    4    4    0    0 -0.23913272581E+02 -0.16130259392E+02 -0.37921926570E+02  0.47645591489E+02  0.00000000000E+00 0. -1.
          1    1    1    2  501    0 -0.15698891132E+02 -0.24179543987E+02 -0.35410793493E+02  0.45662126823E+02  0.00000000000E+00 0. -1.
<scales pt_clust_5="13000.00000" pt_clust_6="13000.00000" pt_clust_7="13000.00000" pt_clust_8="13000.00000" pt_clust_9="28.82890"></scales>
<clustering>
<clus scale="   28.829">  2  9  1 -1</clus>
<clus scale="   78.830">  5  6 -1 -1</clus>
<clus scale="   81.742">  1  5  2 -1</clus>
<clus scale="   94.236">  7  8 -1 -1</clus>
<clus scale="   28.829">  2  5  1 -1</clus>
</clustering>
</event>
<event>
 9    2  0.5615294E-005  0.1040096E+03  0.7546771E-02  0.1277201E+00
          2   -1    0    0  502    0 -0.00000000000E+00  0.00000000000E+00  0.39364286811E+03  0.39364286811E+03  0.00000000000E+00 0. -1.
         21   -1    0    0  501  502  0.00000000000E+00 -0.00000000000E+00 -0.94859500845E+02  0.94859500845E+02  0.00000000000E+00 0. -1.
         23    2    1    2    0    0  0.10447162560E+02  0.42401949909E+02  0.25946720956E+03  0.27873709662E+03  0.92000367547E+02 0.  0.
         24    2    1    2    0    0 -0.65259974609E+02 -0.40282965942E+02  0.83571639399E+02  0.13928490545E+03  0.80836157398E+02 0.  0.
        -11    1    4    4    0    0 -0.31604551116E+02  0.21725136534E+02  0.15875676051E+02  0.41507424622E+02  0.00000000000E+00 0.  1.
         12    1    4    4    0    0 -0.33655423492E+02 -0.62008102476E+02  0.67695963348E+02  0.97777480826E+02  0.00000000000E+00 0. -1.
        -11    1    3    3    0    0 -0.30254749876E+02  0.27636694345E+02  0.49063522341E+02  0.63924689979E+02  0.00000000000E+00 0.  1.
         11    1    3    3    0    0  0.40701912436E+02  0.14765255563E+02  0.21040368722E+03  0.21481240664E+03  0.00000000000E+00 0. -1.
          1    1    1    2  501    0  0.54812812049E+02 -0.21189839669E+01 -0.44255481694E+02  0.70480366895E+02  0.00000000000E+00 0. -1.
<scales pt_clust_5="13000.00000" pt_clust_6="13000.00000" pt_clust_7="13000.00000" pt_clust_8="13000.00000" pt_clust_9="54.85376"></scales>
<clustering>
<clus scale="   54.854">  2  9  1 -1</clus>
<clus scale="   80.836">  5  6 -1 -1</clus>
<clus scale="   92.000">  7  8 -1 -1</clus>
<clus scale="   94.278">  2  5  1 -1</clus>
<clus scale="   54.854">  2  5  1 -1</clus>
</clustering>
</event>
<event>
 9    2  0.5615294E-005  0.9083004E+02  0.7546771E-02  0.1306590E+00
         21   -1    0    0  501  502  0.00000000000E+00  0.00000000000E+00  0.20207601542E+03  0.20207601542E+03  0.00000000000E+00 0.  1.
         -3   -1    0    0    0  501 -0.00000000000E+00 -0.00000000000E+00 -0.10489798245E+03  0.10489798245E+03  0.00000000000E+00 0.  1.
         24    2    1    2    0    0 -0.12965663145E+02 -0.12365895292E+02 -0.63647963196E+02  0.10320852468E+03  0.79245899333E+02 0.  0.
         23    2    1    2    0    0  0.34993076114E+02  0.10117898260E+02  0.97435807527E+02  0.13661953937E+03  0.88567910150E+02 0.  0.
        -11    1    3    3    0    0 -0.34345298711E+02 -0.59850214594E+01 -0.71507302485E+02  0.79553216994E+02  0.00000000000E+00 0.  1.
         12    1    3    3    0    0  0.21379635566E+02 -0.63808738326E+01  0.78593392894E+01  0.23655307689E+02  0.00000000000E+00 0. -1.
        -13    1    4    4    0    0 -0.17352239760E+02 -0.18715063190E+02  0.41847304097E+01  0.25862439628E+02  0.00000000000E+00 0.  1.
         13    1    4    4    0    0  0.52345315874E+02  0.28832961450E+02  0.93251077118E+02  0.11075709974E+03  0.00000000000E+00 0. -1.
         -4    1    1    2    0  502 -0.22027412970E+02  0.22479970317E+01  0.63390188639E+02  0.67145933819E+02  0.00000000000E+00 0.  1.
<scales pt_clust_5="13000.00000" pt_clust_6="13000.00000" pt_clust_7="13000.00000" pt_clust_8="13000.00000" pt_clust_9="22.14182"></scales>
<clustering>
<clus scale="   22.142">  1  9  2 -1</clus>
<clus scale="   79.246">  5  6 -1 -1</clus>
<clus scale="   81.766">  2  5  1 -1</clus>
<clus scale="   88.568">  7  8 -1 -1</clus>
<clus scale="   22.142">  1  5  2 -1</clus>
</clustering>
</event>
<event>
 9    2  0.5615294E-005  0.9258250E+02  0.7546771E-02  0.1302156E+00
         21   -1    0    0  501  502  0.00000000000E+00  0.00000000000E+00  0.30228137030E+03  0.30228137030E+03  0.00000000000E+00 0. -1.
         -3   -1    0    0    0  501 -0.00000000000E+00 -0.00000000000E+00 -0.40077525158E+02  0.40077525158E+02  0.00000000000E+00 0.  1.
         23    2    1    2    0    0 -0.18397502206E+02 -0.14089447931E+02  0.84175324431E+02  0.12646748572E+03  0.91496224348E+02 0.  0.
         24    2    1    2    0    0  0.79056733022E+01 -0.19423378897E+02  0.14201023940E+03  0.16558728840E+03  0.82537716627E+02 0.  0.
        -13    1    4    4    0    0  0.29422597043E+02 -0.28909235799E+02  0.29666216671E+02  0.50808636498E+02  0.00000000000E+00 0.  1.
         14    1    4    4    0    0 -0.21516923741E+02  0.94858569028E+01  0.11234402273E+03  0.11477865190E+03  0.00000000000E+00 0. -1.
        -13    1    3    3    0    0  0.58457893512E+00  0.38119911213E+02  0.26778419278E+02  0.46589195126E+02  0.00000000000E+00 0.  1.
         13    1    3    3    0    0 -0.18982081141E+02 -0.52209359143E+02  0.57396905152E+02  0.79878290590E+02  0.00000000000E+00 0. -1.
         -4    1    1    2    0  502  0.10491828903E+02  0.33512826827E+02  0.36018281311E+02  0.50304121345E+02  0.00000000000E+00 0.  1.
<scales pt_clust_5="13000.00000" pt_clust_6="13000.00000" pt_clust_7="13000.00000" pt_clust_8="13000.00000" pt_clust_9="35.11679"></scales>
<clustering>
<clus scale="   35.117">  1  9  2 -1</clus>
<clus scale="   82.538">  5  6 -1 -1</clus>
<clus scale="   83.740">  1  5  2 -1</clus>
<clus scale="   91.496">  7  8 -1 -1</clus>
<clus scale="   35.117">  1  5  2 -1</clus>
</clustering>
</event>
<event>
 9    2  0.6484630E-005  0.9721629E+02  0.7546771E-02  0.1290414E+00
         21   -1    0    0  501  502  0.00000000000E+00  0.00000000000E+00  0.20453750979E+03  0.20453750979E+03  0.00000000000E+00 0. -1.
          2   -1    0    0  502    0 -0.00000000000E+00 -0.00000000000E+00 -0.30550856059E+03  0.30550856059E+03  0.00000000000E+00 0. -1.
         23    2    1    2    0    0 -0.23481989048E+01  0.33420878970E+02 -0.27014257481E+03  0.28687053087E+03  0.90527463072E+02 0.  0.
         24    2    1    2    0    0  0.24012226507E+01 -0.70277649468E+02  0.13115740007E+03  0.17022747097E+03  0.82646321123E+02 0.  0.
        -13    1    4    4    0    0  0.35362772090E+02 -0.93544984562E+01  0.28429443343E+02  0.46327805258E+02  0.00000000000E+00 0.  1.
         14    1    4    4    0    0 -0.32961549439E+02 -0.60923151012E+02  0.10272795672E+03  0.12389966571E+03  0.00000000000E+00 0. -1.
        -13    1    3    3    0    0  0.16872475224E+02 -0.27528136781E+02 -0.79732645304E+02  0.86021935935E+02  0.00000000000E+00 0.  1.
         13    1    3    3    0    0 -0.19220674128E+02  0.60949015751E+02 -0.19040992950E+03  0.20084859494E+03  0.00000000000E+00 0. -1.
          1    1    1    2  501    0 -0.53023745926E-01  0.36856770498E+02  0.38014123940E+02  0.52948068539E+02  0.00000000000E+00 0. -1.
<scales pt_clust_5="13000.00000" pt_clust_6="13000.00000" pt_clust_7="13000.00000" pt_clust_8="13000.00000" pt_clust_9="36.85681"></scales>
<clustering>
<clus scale="   36.857">  1  9  2 -1</clus>
<clus scale="   82.646">  5  6 -1 -1</clus>
<clus scale="   89.923">  1  5  2 -1</clus>
<clus scale="   90.527">  7  8 -1 -1</clus>
<clus scale="   36.857">  1  5  2 -1</clus>
</clustering>
</event>
<event>
 9    2  0.5615294E-005  0.9707619E+02  0.7546771E-02  0.1291068E+00
         -3   -1    0    0    0  501 -0.00000000000E+00  0.00000000000E+00  0.24507589897E+03  0.24507589897E+03  0.00000000000E+00 0.  1.
         21   -1    0    0  501  502  0.00000000000E+00 -0.00000000000E+00 -0.15345435254E+03  0.15345435254E+03  0.00000000000E+00 0. -1.
         24    2    1    2    0    0 -0.11429394368E+02  0.29826075182E+02  0.12236661108E+03  0.15103376078E+03  0.82567448628E+02 0.  0.
         23    2    1    2    0    0  0.36874137759E+02 -0.40383837819E+02 -0.11638353811E+03  0.15753622474E+03  0.91005372212E+02 0.  0.
        -11    1    3    3    0    0 -0.43653754735E+02  0.27059803076E+02  0.97630824771E+02  0.11031618735E+03  0.00000000000E+00 0.  1.
         12    1    3    3    0    0  0.32224360366E+02  0.27662721054E+01  0.24735786309E+02  0.40717573438E+02  0.00000000000E+00 0. -1.
        -11    1    4    4    0    0 -0.21130832636E+02 -0.20662707108E+02 -0.43877849186E+01  0.29878289935E+02  0.00000000000E+00 0.  1.
         11    1    4    4    0    0  0.58004970395E+02 -0.19721130711E+02 -0.11199575319E+03  0.12765793481E+03  0.00000000000E+00 0. -1.
         -4    1    1    2    0  502 -0.25444743390E+02  0.10557762637E+02  0.85638473466E+02  0.89960265983E+02  0.00000000000E+00 0.  1.
<scales pt_clust_5="13000.00000" pt_clust_6="13000.00000" pt_clust_7="13000.00000" pt_clust_8="13000.00000" pt_clust_9="27.54818"></scales>
<clustering>
<clus scale="   27.548">  2  9  1 -1</clus>
<clus scale="   82.567">  5  6 -1 -1</clus>
<clus scale="   89.214">  1  5  2 -1</clus>
<clus scale="   91.005">  7  8 -1 -1</clus>
<clus scale="   27.548">  2  5  1 -1</clus>
</clustering>
</event>
<event>
 9    2  0.5615294E-005  0.9269144E+02  0.7546771E-02  0.1301526E+00
          2   -1    0    0  502    0 -0.00000000000E+00  0.00000000000E+00  0.26508937071E+03  0.26508937071E+03  0.00000000000E+00 0. -1.
         21   -1    0    0  501  502  0.00000000000E+00 -0.00000000000E+00 -0.72074013708E+02  0.72074013708E+02  0.00000000000E+00 0.  1.
         24    2    1    2    0    0 -0.30480547237E+02  0.32738267971E+01  0.12477810700E+03  0.15180146418E+03  0.80835183187E+02 0.  0.
         23    2    1    2    0    0  0.11423804738E+02  0.26724516059E+02  0.10030200002E+03  0.13749535360E+03  0.89441477965E+02 0.  0.
        -11    1    3    3    0    0  0.75447307638E+01  0.35651531895E+02  0.55658550431E+02  0.66526903767E+02  0.00000000000E+00 0.  1.
         12    1    3    3    0    0 -0.38025278001E+02 -0.32377705097E+02  0.69119556564E+02  0.85274560416E+02  0.00000000000E+00 0. -1.
        -11    1    4    4    0    0  0.31114575510E+02  0.30516670884E+02  0.96309592580E+01  0.44633388704E+02  0.00000000000E+00 0.  1.
         11    1    4    4    0    0 -0.19690770772E+02 -0.37921548245E+01  0.90671040757E+02  0.92861964893E+02  0.00000000000E+00 0. -1.
          1    1    1    2  501    0  0.19056742499E+02 -0.29998342857E+02 -0.32064750008E+02  0.47866566640E+02  0.00000000000E+00 0. -1.
<scales pt_clust_5="13000.00000" pt_clust_6="13000.00000" pt_clust_7="13000.00000" pt_clust_8="13000.00000" pt_clust_9="35.53956"></scales>
<clustering>
<clus scale="   35.540">  2  9  1 -1</clus>
<clus scale="   80.835">  5  6 -1 -1</clus>
<clus scale="   84.417">  1  5  2 -1</clus>
<clus scale="   89.441">  7  8 -1 -1</clus>
<clus scale="   35.540">  2  5  1 -1</clus>
</clustering>
</event>
<event>
 9    2  0.5615294E-005  0.9656415E+02  0.7546771E-02  0.1293896E+00
         21   -1    0    0  501  502  0.00000000000E+00  0.00000000000E+00  0.57883188469E+02  0.57883188469E+02  0.00000000000E+00 0.  1.
          2   -1    0    0  502    0 -0.00000000000E+00 -0.00000000000E+00 -0.20898531125E+03  0.20898531125E+03  0.00000000000E+00 0. -1.
         23    2    1    2    0    0 -0.16747262394E+02  0.30301312937E+02 -0.10353038613E+03  0.14184332452E+03  0.90566812318E+02 0.  0.
         24    2    1    2    0    0  0.36368049882E+02 -0.11372130050E+02 -0.41046725251E+02  0.96991890697E+02  0.79187327352E+02 0.  0.
        -11    1    4    4    0    0  0.52181969540E+02 -0.97776942333E+01 -0.12325656053E+00  0.53090266921E+02  0.00000000000E+00 0.  1.
         12    1    4    4    0    0 -0.15813919658E+02 -0.15944358168E+01 -0.40923468690E+02  0.43901623776E+02  0.00000000000E+00 0. -1.
        -13    1    3    3    0    0  0.11917190252E+02 -0.19910985920E+02  0.65612959486E-01  0.23204979829E+02  0.00000000000E+00 0.  1.
         13    1    3    3    0    0 -0.28664452646E+02  0.50212298857E+02 -0.10359599909E+03  0.11863834469E+03  0.00000000000E+00 0. -1.
          1    1    1    2  501    0 -0.19620787488E+02 -0.18929182887E+02 -0.65250113954E+01  0.28033284505E+02  0.00000000000E+00 0. -1.
<scales pt_clust_5="13000.00000" pt_clust_6="13000.00000" pt_clust_7="13000.00000" pt_clust_8="13000.00000" pt_clust_9="27.26333"></scales>
<clustering>
<clus scale="   27.263">  1  9  2 -1</clus>
<clus scale="   79.187">  5  6 -1 -1</clus>
<clus scale="   85.982">  1  5  2 -1</clus>
<clus scale="   90.567">  7  8 -1 -1</clus>
<clus scale="   27.263">  1  5  2 -1</clus>
</clustering>
</event>
<event>
 9    2  0.5615294E-005  0.9405531E+02  0.7546771E-02  0.1300170E+00
          2   -1    0    0  502    0 -0.00000000000E+00  0.00000000000E+00  0.59740713978E+03  0.59740713978E+03  0.00000000000E+00 0. -1.
         21   -1    0    0  501  502  0.00000000000E+00 -0.00000000000E+00 -0.33378816499E+02  0.33378816499E+02  0.00000000000E+00 0.  1.
         24    2    1    2    0    0  0.13492442424E+02  0.27125643196E+02  0.40447957673E+03  0.41321623992E+03  0.78905553825E+02 0.  0.
         23    2    1    2    0    0  0.80660122590E+01  0.17008526452E+01  0.53429632114E+02  0.10551169442E+03  0.90609263425E+02 0.  0.
        -13    1    3    3    0    0 -0.27957616176E+02 -0.83947453919E+01  0.11592654677E+03  0.11954523955E+03  0.00000000000E+00 0.  1.
         14    1    3    3    0    0  0.41450058600E+02  0.35520388588E+02  0.28855302996E+03  0.29367100038E+03  0.00000000000E+00 0. -1.
        -11    1    4    4    0    0  0.33213146730E+02  0.22771251022E+02 -0.28471841362E+01  0.40370155392E+02  0.00000000000E+00 0. -1.
         11    1    4    4    0    0 -0.25147134471E+02 -0.21070398377E+02  0.56276816250E+02  0.65141539030E+02  0.00000000000E+00 0.  1.
          1    1    1    2  501    0 -0.21558454683E+02 -0.28826495841E+02  0.10611911444E+03  0.11205802194E+03  0.00000000000E+00 0. -1.
<scales pt_clust_5="13000.00000" pt_clust_6="13000.00000" pt_clust_7="13000.00000" pt_clust_8="13000.00000" pt_clust_9="35.99632"></scales>
<clustering>
<clus scale="   35.996">  2  9  1 -1</clus>
<clus scale="   78.906">  5  6 -1 -1</clus>
<clus scale="   82.840">  1  5  2 -1</clus>
<clus scale="   90.609">  7  8 -1 -1</clus>
<clus scale="   35.996">  2  5  1 -1</clus>
</clustering>
</event>
<event>
 9    2  0.5615294E-005  0.9107016E+02  0.7546771E-02  0.1306165E+00
         21   -1    0    0  501  502  0.00000000000E+00  0.00000000000E+00  0.10740099157E+03  0.10740099157E+03  0.00000000000E+00 0.  1.
          2   -1    0    0  502    0 -0.00000000000E+00 -0.00000000000E+00 -0.35049291963E+03  0.35049291963E+03  0.00000000000E+00 0. -1.
         24    2    1    2    0    0 -0.34249423448E+01 -0.19992633389E+02 -0.28632787702E+03  0.29790434910E+03  0.79698886011E+02 0.  0.
         23    2    1    2    0    0  0.40827231725E+02 -0.13099444409E+02  0.89263577042E+01  0.99399423336E+02  0.89230640497E+02 0.  0.
        -13    1    3    3    0    0  0.37250703876E+02 -0.72628461517E+01 -0.16498576298E+03  0.16929461261E+03  0.00000000000E+00 0.  1.
         14    1    3    3    0    0 -0.40675646221E+02 -0.12729787237E+02 -0.12134211404E+03  0.12860973649E+03  0.00000000000E+00 0. -1.
        -11    1    4    4    0    0 -0.27626240945E+02 -0.12995271652E+02  0.19770976028E+01  0.30594038455E+02  0.00000000000E+00 0. -1.
         11    1    4    4    0    0  0.68453472671E+02 -0.10417275648E+00  0.69492601014E+01  0.68805384881E+02  0.00000000000E+00 0.  1.
          1    1    1    2  501    0 -0.37402289381E+02  0.33092077798E+02  0.34309591252E+02  0.60590138766E+02  0.00000000000E+00 0. -1.
<scales pt_clust_5="13000.00000" pt_clust_6="13000.00000" pt_clust_7="13000.00000" pt_clust_8="13000.00000" pt_clust_9="49.94013"></scales>
<clustering>
<clus scale="   49.940">  1  9  2 -1</clus>
<clus scale="   79.699">  5  6 -1 -1</clus>
<clus scale="   81.753">  2  5  1 -1</clus>
<clus scale="   89.231">  7  8 -1 -1</clus>
<clus scale="   49.940">  1  5  2 -1</clus>
</clustering>
</event>
<event>
 9    2  0.5615294E-005  0.9904527E+02  0.7546771E-02  0.1288859E+00
          4   -1    0    0  502    0 -0.00000000000E+00  0.00000000000E+00  0.23422671430E+03  0.23422671430E+03  0.00000000000E+00 0. -1.
         21   -1    0    0  501  502  0.00000000000E+00 -0.00000000000E+00 -0.23758196981E+03  0.23758196981E+03  0.00000000000E+00 0. -1.
         24    2    1    2    0    0  0.13754098283E+02 -0.33005606794E+02  0.20397164626E+03  0.22187971155E+03  0.79672006497E+02 0.  0.
         23    2    1    2    0    0  0.50378853252E+01  0.50042588699E+02 -0.12221870153E+03  0.16112129751E+03  0.92157585342E+02 0.  0.
        -13    1    3    3    0    0 -0.81419901128E+01  0.24139498857E+02  0.48198256416E+02  0.54516780257E+02  0.00000000000E+00 0.  1.
         14    1    3    3    0    0  0.21896088396E+02 -0.57145105651E+02  0.15577338985E+03  0.16736293129E+03  0.00000000000E+00 0. -1.
        -13    1    4    4    0    0  0.31021134305E+02 -0.97854864130E+00 -0.60667322910E+01  0.31623939851E+02  0.00000000000E+00 0. -1.
         13    1    4    4    0    0 -0.25983248980E+02  0.51021137340E+02 -0.11615196924E+03  0.12949735766E+03  0.00000000000E+00 0.  1.
          3    1    1    2  501    0 -0.18791983608E+02 -0.17036981905E+02 -0.85108200235E+02  0.88807675049E+02  0.00000000000E+00 0. -1.
<scales pt_clust_5="13000.00000" pt_clust_6="13000.00000" pt_clust_7="13000.00000" pt_clust_8="13000.00000" pt_clust_9="25.36528"></scales>
<clustering>
<clus scale="   25.365">  2  9  1 -1</clus>
<clus scale="   79.672">  5  6 -1 -1</clus>
<clus scale="   87.548">  1  5  2 -1</clus>
<clus scale="   92.158">  7  8 -1 -1</clus>
<clus scale="   25.365">  2  5  1 -1</clus>
</clustering>
</event>
<event>
 9    2  0.5615294E-005  0.1351586E+03  0.7546771E-02  0.1244756E+00
          2   -1    0    0  502    0 -0.00000000000E+00  0.00000000000E+00  0.10816566315E+04  0.10816566315E+04  0.00000000000E+00 0. -1.
         21   -1    0    0  501  502  0.00000000000E+00 -0.00000000000E+00 -0.36655969529E+02  0.36655969529E+02  0.00000000000E+00 0. -1.
         24    2    1    2    0    0  0.18387490172E+02 -0.70177938250E+01  0.18526421539E+03  0.20228494641E+03  0.78797340164E+02 0.  0.
         23    2    1    2    0    0 -0.10778227195E+03 -0.65203651624E+01  0.16385559074E+03  0.21429773914E+03  0.86112328229E+02 0.  0.
        -13    1    3    3    0    0 -0.24282428251E+02  0.18875993021E+02  0.59513925600E+02  0.66991393288E+02  0.00000000000E+00 0.  1.
         14    1    3    3    0    0  0.42669918423E+02 -0.25893786846E+02  0.12575028979E+03  0.13529355312E+03  0.00000000000E+00 0. -1.
        -11    1    4    4    0    0 -0.11062242519E+02 -0.18518731155E+02 -0.22731811538E+01  0.21690642353E+02  0.00000000000E+00 0.  1.
         11    1    4    4    0    0 -0.96720029426E+02  0.11998365992E+02  0.16612877190E+03  0.19260709678E+03  0.00000000000E+00 0. -1.
          1    1    1    2  501    0  0.89394781773E+02  0.13538158987E+02  0.69588085586E+03  0.70172991550E+03  0.00000000000E+00 0. -1.
<scales pt_clust_5="13000.00000" pt_clust_6="13000.00000" pt_clust_7="13000.00000" pt_clust_8="13000.00000" pt_clust_9="104.17543"></scales>
<clustering>
<clus scale="   78.797">  5  6 -1 -1</clus>
<clus scale="   81.218">  1  5  2 -1</clus>
<clus scale="   86.112">  7  8 -1 -1</clus>
<clus scale="  104.175">  2  9  1 -1</clus>
<clus scale="  104.175">  2  5  1 -1</clus>
</clustering>
</event>
<event>
 9    2  0.5615294E-005  0.1265334E+03  0.7546771E-02  0.1236364E+00
          4   -1    0    0  502    0 -0.00000000000E+00  0.00000000000E+00  0.12752094861E+03  0.12752094861E+03  0.00000000000E+00 0. -1.
         21   -1    0    0  501  502  0.00000000000E+00 -0.00000000000E+00 -0.53749247656E+03  0.53749247656E+03  0.00000000000E+00 0. -1.
         24    2    1    2    0    0  0.85608812031E+02 -0.64496206582E+02  0.57757133426E+02  0.14491342597E+03  0.78583619178E+02 0.  0.
         23    2    1    2    0    0 -0.44159852754E+02 -0.15346277596E+02 -0.10764197178E+03  0.14894603853E+03  0.91719831410E+02 0.  0.
        -13    1    3    3    0    0  0.46899590252E+01 -0.33939380347E+02 -0.92618220540E+01  0.35491669470E+02  0.00000000000E+00 0.  1.
         14    1    3    3    0    0  0.80918853006E+02 -0.30556826235E+02  0.67018955480E+02  0.10942175650E+03  0.00000000000E+00 0. -1.
        -13    1    4    4    0    0 -0.42583754854E+02 -0.48378930592E+02 -0.92085814677E+02  0.11239970804E+03  0.00000000000E+00 0. -1.
         13    1    4    4    0    0 -0.15760978999E+01  0.33032652997E+02 -0.15556157108E+02  0.36546330494E+02  0.00000000000E+00 0.  1.
          3    1    1    2  501    0 -0.41448959276E+02  0.79842484178E+02 -0.36008668959E+03  0.37115396067E+03  0.00000000000E+00 0. -1.
<scales pt_clust_5="13000.00000" pt_clust_6="13000.00000" pt_clust_7="13000.00000" pt_clust_8="13000.00000" pt_clust_9="89.96021"></scales>
<clustering>
<clus scale="   78.584">  5  6 -1 -1</clus>
<clus scale="   89.960">  2  9  1 -1</clus>
<clus scale="   91.720">  7  8 -1 -1</clus>
<clus scale="  117.361">  1  5  2 -1</clus>
<clus scale="   89.960">  2  5  1 -1</clus>
</clustering>
</event>
<event>
 9    2  0.5615294E-005  0.1531047E+03  0.7546771E-02  0.1218153E+00
          2   -1    0    0  502    0 -0.00000000000E+00  0.00000000000E+00  0.20054612413E+03  0.20054612413E+03  0.00000000000E+00 0. -1.
         21   -1    0    0  501  502  0.00000000000E+00 -0.00000000000E+00 -0.20175753678E+03  0.20175753678E+03  0.00000000000E+00 0.  1.
         23    2    1    2    0    0  0.28902450472E+02  0.84154201315E+00  0.26569625432E+02  0.10024486151E+03  0.92233548273E+02 0.  0.
         24    2    1    2    0    0 -0.79514472623E+02 -0.11070253127E+03 -0.70943112199E+02  0.17362991484E+03  0.80850605284E+02 0.  0.
        -13    1    4    4    0    0 -0.88839610041E+02 -0.63067987781E+02 -0.39966308697E+02  0.11604892600E+03  0.00000000000E+00 0.  1.
         14    1    4    4    0    0  0.93251374187E+01 -0.47634543484E+02 -0.30976803502E+02  0.57580988842E+02  0.00000000000E+00 0. -1.
        -11    1    3    3    0    0 -0.18102496673E+02  0.33454458384E+02  0.19050890523E+02  0.42542186137E+02  0.00000000000E+00 0.  1.
         11    1    3    3    0    0  0.47004947146E+02 -0.32612916371E+02  0.75187349086E+01  0.57702675371E+02  0.00000000000E+00 0. -1.
          1    1    1    2  501    0  0.50612022150E+02  0.10986098925E+03  0.43162074124E+02  0.12842888456E+03  0.00000000000E+00 0. -1.
<scales pt_clust_5="13000.00000" pt_clust_6="13000.00000" pt_clust_7="13000.00000" pt_clust_8="13000.00000" pt_clust_9="130.01628"></scales>
<clustering>
<clus scale="   80.851">  5  6 -1 -1</clus>
<clus scale="   92.234">  7  8 -1 -1</clus>
<clus scale="   96.660">  1  7  2 -1</clus>
<clus scale="  130.016">  2  9  1 -1</clus>
<clus scale="  130.016">  2  5  1 -1</clus>
</clustering>
</event>
<event>
 9    2  0.5615294E-005  0.1459060E+03  0.7546771E-02  0.1220558E+00
          4   -1    0    0  502    0 -0.00000000000E+00  0.00000000000E+00  0.46530421548E+03  0.46530421548E+03  0.00000000000E+00 0. -1.
         21   -1    0    0  501  502  0.00000000000E+00 -0.00000000000E+00 -0.11644751814E+03  0.11644751814E+03  0.00000000000E+00 0.  1.
         24    2    1    2    0    0 -0.57016035269E+02  0.37313649941E+02  0.20442340053E+03  0.23035315015E+03  0.81427945749E+02 0.  0.
         23    2    1    2    0    0  0.12762058749E+03  0.49650291445E+02  0.16993749702E+03  0.23651518987E+03  0.91151063380E+02 0.  0.
        -13    1    3    3    0    0 -0.37833176466E+02  0.57261686214E+02  0.18271623360E+03  0.19518061371E+03  0.00000000000E+00 0.  1.
         14    1    3    3    0    0 -0.19182858803E+02 -0.19948036273E+02  0.21707166936E+02  0.35172536437E+02  0.00000000000E+00 0. -1.
        -13    1    4    4    0    0  0.12529155183E+03  0.22055644664E+02  0.10169859118E+03  0.16287120024E+03  0.00000000000E+00 0.  1.
         13    1    4    4    0    0  0.23290356614E+01  0.27594646781E+02  0.68238905843E+02  0.73643989631E+02  0.00000000000E+00 0. -1.
          3    1    1    2  501    0 -0.70604552219E+02 -0.86963941386E+02 -0.25504200221E+02  0.11488339360E+03  0.00000000000E+00 0. -1.
<scales pt_clust_5="13000.00000" pt_clust_6="13000.00000" pt_clust_7="13000.00000" pt_clust_8="13000.00000" pt_clust_9="113.93000"></scales>
<clustering>
<clus scale="   81.428">  5  6 -1 -1</clus>
<clus scale="   91.151">  7  8 -1 -1</clus>
<clus scale="  106.177">  1  5  2 -1</clus>
<clus scale="  113.930">  2  9  1 -1</clus>
<clus scale="  113.930">  2  5  1 -1</clus>
</clustering>
</event>
<event>
 9    2  0.5615294E-005  0.3317327E+03  0.7546771E-02  0.1070617E+00
         21   -1    0    0  501  502  0.00000000000E+00  0.00000000000E+00  0.12242232167E+03  0.12242232167E+03  0.00000000000E+00 0. -1.
          2   -1    0    0  502    0 -0.00000000000E+00 -0.00000000000E+00 -0.36847699933E+04  0.36847699933E+04  0.00000000000E+00 0. -1.
         24    2    1    2    0    0  0.21584442982E+02 -0.30299145321E+03 -0.17863232729E+04  0.18138264141E+04  0.82132308747E+02 0.  0.
         23    2    1    2    0    0  0.28464828241E+03  0.32879118607E+03 -0.15485818632E+04  0.16110385343E+04  0.90615026893E+02 0.  0.
        -13    1    3    3    0    0 -0.10192538642E+02 -0.24397623982E+03 -0.12798019929E+04  0.13028896478E+04  0.00000000000E+00 0.  1.
         14    1    3    3    0    0  0.31776981624E+02 -0.59015213382E+02 -0.50652128005E+03  0.51093676626E+03  0.00000000000E+00 0. -1.
        -13    1    4    4    0    0  0.13447298986E+02  0.59699765818E+02 -0.25338763024E+03  0.26067255906E+03  0.00000000000E+00 0.  1.
         13    1    4    4    0    0  0.27120098342E+03  0.26909142025E+03 -0.12951942330E+04  0.13503659752E+04  0.00000000000E+00 0. -1.
          1    1    1    2  501    0 -0.30623272539E+03 -0.25799732867E+02 -0.22744253548E+03  0.38232736662E+03  0.00000000000E+00 0. -1.
<scales pt_clust_5="13000.00000" pt_clust_6="13000.00000" pt_clust_7="13000.00000" pt_clust_8="13000.00000" pt_clust_9="307.31760"></scales>
<clustering>
<clus scale="   82.132">  5  6 -1 -1</clus>
<clus scale="   90.615">  7  8 -1 -1</clus>
<clus scale="  307.318">  1  9  2 -1</clus>
<clus scale="  329.517">  2  5  1 -1</clus>
<clus scale="  307.318">  1  5  2 -1</clus>
</clustering>
</event>
<event>
 9    2  0.5615294E-005  0.8772276E+02  0.7546771E-02  0.1308625E+00
         -1   -1    0    0    0  501 -0.00000000000E+00  0.00000000000E+00  0.28292859365E+03  0.28292859365E+03  0.00000000000E+00 0.  1.
         21   -1    0    0  501  502  0.00000000000E+00 -0.00000000000E+00 -0.92526927940E+02  0.92526927940E+02  0.00000000000E+00 0.  1.
         24    2    1    2    0    0 -0.89189343650E+01 -0.40610829857E+02  0.22869355601E+03  0.24558308952E+03  0.79256068563E+02 0.  0.
         23    2    1    2    0    0  0.84406788856E+01  0.14034494225E+02  0.24259324721E+01  0.81246601116E+02  0.79541894347E+02 0.  0.
        -13    1    3    3    0    0 -0.41950330989E+02 -0.29229936424E+02  0.10111007954E+03  0.11330254912E+03  0.00000000000E+00 0.  1.
         14    1    3    3    0    0  0.33031396624E+02 -0.11380893433E+02  0.12758347647E+03  0.13228054039E+03  0.00000000000E+00 0. -1.
        -11    1    4    4    0    0 -0.13470697664E+02  0.42033371686E+02  0.91122607476E+01  0.45069915984E+02  0.00000000000E+00 0. -1.
         11    1    4    4    0    0  0.21911376549E+02 -0.27998877461E+02 -0.66863282755E+01  0.36176685132E+02  0.00000000000E+00 0.  1.
         -2    1    1    2    0  502  0.47825547943E+00  0.26576335632E+02 -0.40717822778E+02  0.48625830952E+02  0.00000000000E+00 0.  1.
<scales pt_clust_5="13000.00000" pt_clust_6="13000.00000" pt_clust_7="13000.00000" pt_clust_8="13000.00000" pt_clust_9="26.58064"></scales>
<clustering>
<clus scale="   26.581">  2  9  1 -1</clus>
<clus scale="   79.256">  5  6 -1 -1</clus>
<clus scale="   79.542">  7  8 -1 -1</clus>
<clus scale="   87.464">  1  5  2 -1</clus>
<clus scale="   26.581">  2  5  1 -1</clus>
</clustering>
</event>
<event>
 9    2  0.5615294E-005  0.9150595E+02  0.7546771E-02  0.1306757E+00
          2   -1    0    0  502    0 -0.00000000000E+00  0.00000000000E+00  0.59143699522E+03  0.59143699522E+03  0.00000000000E+00 0. -1.
         21   -1    0    0  501  502  0.00000000000E+00 -0.00000000000E+00 -0.38174439041E+02  0.38174439041E+02  0.00000000000E+00 0.  1.
         24    2    1    2    0    0 -0.29826685651E+02  0.11545993177E+01  0.48534780997E+03  0.49196478592E+03  0.74671879997E+02 0.  0.
         23    2    1    2    0    0  0.15354666602E+02  0.15925814006E+02  0.71634605637E+02  0.11495265775E+03  0.87138966376E+02 0.  0.
        -11    1    3    3    0    0 -0.19958352925E+02 -0.74983184089E+01  0.32150042348E+02  0.38577011981E+02  0.00000000000E+00 0.  1.
         12    1    3    3    0    0 -0.98683327267E+01  0.86529177266E+01  0.45319776763E+03  0.45338777394E+03  0.00000000000E+00 0. -1.
        -13    1    4    4    0    0  0.84484176798E+01  0.48556704801E+02  0.63926116465E+02  0.80719747947E+02  0.00000000000E+00 0. -1.
         13    1    4    4    0    0  0.69062489220E+01 -0.32630890796E+02  0.77084891722E+01  0.34232909803E+02  0.00000000000E+00 0.  1.
          1    1    1    2  501    0  0.14472019049E+02 -0.17080413323E+02 -0.37198594324E+01  0.22693990589E+02  0.00000000000E+00 0. -1.
<scales pt_clust_5="13000.00000" pt_clust_6="13000.00000" pt_clust_7="13000.00000" pt_clust_8="13000.00000" pt_clust_9="22.38705"></scales>
<clustering>
<clus scale="   22.387">  2  9  1 -1</clus>
<clus scale="   74.672">  5  6 -1 -1</clus>
<clus scale="   79.725">  1  5  2 -1</clus>
<clus scale="   87.139">  7  8 -1 -1</clus>
<clus scale="   22.387">  2  5  1 -1</clus>
</clustering>
</event>
<event>
 9    2  0.5615294E-005  0.1640254E+03  0.7546771E-02  0.1186968E+00
          2   -1    0    0  502    0 -0.00000000000E+00  0.00000000000E+00  0.15297750574E+04  0.15297750574E+04  0.00000000000E+00 0. -1.
         21   -1    0    0  501  502  0.00000000000E+00 -0.00000000000E+00 -0.15444708757E+03  0.15444708757E+03  0.00000000000E+00 0. -1.
         24    2    1    2    0    0 -0.83784089927E+02 -0.95607550344E+02  0.87459337321E+03  0.88707478127E+03  0.76338205945E+02 0.  0.
         23    2    1    2    0    0  0.43201208479E+01  0.18102708774E+03  0.60632299865E+03  0.63979447873E+03  0.94445361920E+02 0.  0.
        -11    1    3    3    0    0 -0.45871292655E+02 -0.45830727925E+02  0.21619255029E+03  0.22570744319E+03  0.00000000000E+00 0.  1.
         12    1    3    3    0    0 -0.37912797272E+02 -0.49776822419E+02  0.65840082292E+03  0.66136733808E+03  0.00000000000E+00 0. -1.
        -11    1    4    4    0    0  0.32769574326E+02  0.12524735447E+03  0.29378490482E+03  0.32104565891E+03  0.00000000000E+00 0.  1.
         11    1    4    4    0    0 -0.28449453478E+02  0.55779733272E+02  0.31253809383E+03  0.31874881983E+03  0.00000000000E+00 0. -1.
          1    1    1    2  501    0  0.79463969079E+02 -0.85419537394E+02 -0.10558840205E+03  0.15735288494E+03  0.00000000000E+00 0. -1.
<scales pt_clust_5="13000.00000" pt_clust_6="13000.00000" pt_clust_7="13000.00000" pt_clust_8="13000.00000" pt_clust_9="116.66628"></scales>
<clustering>
<clus scale="   76.338">  5  6 -1 -1</clus>
<clus scale="   94.445">  7  8 -1 -1</clus>
<clus scale="  116.666">  2  9  1 -1</clus>
<clus scale="  154.311">  1  5  2 -1</clus>
<clus scale="  116.666">  2  5  1 -1</clus>
</clustering>
</event>
<event>
 9    2  0.5615294E-005  0.9304966E+02  0.7546771E-02  0.1301971E+00
         -3   -1    0    0    0  501 -0.00000000000E+00  0.00000000000E+00  0.21793528495E+03  0.21793528495E+03  0.00000000000E+00 0.  1.
         21   -1    0    0  501  502  0.00000000000E+00 -0.00000000000E+00 -0.96371445687E+02  0.96371445687E+02  0.00000000000E+00 0.  1.
         24    2    1    2    0    0 -0.10102748732E+02 -0.19074920434E+02  0.14982892623E+03  0.17113427541E+03  0.79826781001E+02 0.  0.
         23    2    1    2    0    0  0.33065252916E+02  0.75583350315E+01 -0.50676428161E+02  0.10908174458E+03  0.90444940439E+02 0.  0.
        -11    1    3    3    0    0 -0.25979564521E+02 -0.29792838278E+02  0.14643952529E+03  0.15168086745E+03  0.00000000000E+00 0.  1.
         12    1    3    3    0    0  0.15876815789E+02  0.10717917845E+02  0.33894009426E+01  0.19453407960E+02  0.00000000000E+00 0. -1.
        -11    1    4    4    0    0 -0.21627200441E+00  0.44692229398E+02 -0.12883499375E+02  0.46512650949E+02  0.00000000000E+00 0.  1.
         11    1    4    4    0    0  0.33281524921E+02 -0.37133894366E+02 -0.37792928786E+02  0.62569093633E+02  0.00000000000E+00 0. -1.
         -4    1    1    2    0  502 -0.22962504184E+02  0.11516585402E+02  0.22411341192E+02  0.34090710638E+02  0.00000000000E+00 0.  1.
<scales pt_clust_5="13000.00000" pt_clust_6="13000.00000" pt_clust_7="13000.00000" pt_clust_8="13000.00000" pt_clust_9="25.68869"></scales>
<clustering>
<clus scale="   25.689">  2  9  1 -1</clus>
<clus scale="   79.827">  5  6 -1 -1</clus>
<clus scale="   82.766">  1  5  2 -1</clus>
<clus scale="   90.445">  7  8 -1 -1</clus>
<clus scale="   25.689">  2  5  1 -1</clus>
</clustering>
</event>
<event>
 9    2  0.5615294E-005  0.1499518E+03  0.7546771E-02  0.1202876E+00
          2   -1    0    0  502    0 -0.00000000000E+00  0.00000000000E+00  0.29486544985E+03  0.29486544985E+03  0.00000000000E+00 0. -1.
         21   -1    0    0  501  502  0.00000000000E+00 -0.00000000000E+00 -0.44038913234E+03  0.44038913234E+03  0.00000000000E+00 0. -1.
         23    2    1    2    0    0 -0.87358249088E+02 -0.10972610261E+03  0.19130904855E+03  0.25488906721E+03  0.93263086202E+02 0.  0.
         24    2    1    2    0    0 -0.81211853801E+01  0.94025944726E+02  0.57611376164E+01  0.12436920010E+03  0.80794030057E+02 0.  0.
        -13    1    4    4    0    0  0.36159314173E+02  0.35876047970E+02 -0.11751286526E+01  0.50950640298E+02  0.00000000000E+00 0.  1.
         14    1    4    4    0    0 -0.44280499553E+02  0.58149896756E+02  0.69362662691E+01  0.73418559800E+02  0.00000000000E+00 0. -1.
        -13    1    3    3    0    0 -0.65451403202E+02 -0.10777515832E+03  0.99898125224E+02  0.16086953209E+03  0.00000000000E+00 0. -1.
         13    1    3    3    0    0 -0.21906845886E+02 -0.19509442878E+01  0.91410923329E+02  0.94019535120E+02  0.00000000000E+00 0.  1.
          1    1    1    2  501    0  0.95479434468E+02  0.15700157879E+02 -0.34259386866E+03  0.35599631488E+03  0.00000000000E+00 0. -1.
<scales pt_clust_5="13000.00000" pt_clust_6="13000.00000" pt_clust_7="13000.00000" pt_clust_8="13000.00000" pt_clust_9="96.76165"></scales>
<clustering>
<clus scale="   80.794">  5  6 -1 -1</clus>
<clus scale="   93.263">  7  8 -1 -1</clus>
<clus scale="   96.762">  2  9  1 -1</clus>
<clus scale="  142.531">  2  5  1 -1</clus>
<clus scale="   96.762">  2  5  1 -1</clus>
</clustering>
</event>
<event>
 9    2  0.5615294E-005  0.1549810E+03  0.7546771E-02  0.1209762E+00
         21   -1    0    0  501  502  0.00000000000E+00  0.00000000000E+00  0.21655369893E+03  0.21655369893E+03  0.00000000000E+00 0. -1.
         -3   -1    0    0    0  501 -0.00000000000E+00 -0.00000000000E+00 -0.35913327011E+03  0.35913327011E+03  0.00000000000E+00 0.  1.
         23    2    1    2    0    0 -0.59026713365E+02  0.22183876377E+02  0.10547076590E+03  0.15336812415E+03  0.91768304892E+02 0.  0.
         24    2    1    2    0    0 -0.76907478677E+02 -0.70015293944E+02 -0.24591848780E+03  0.27819912433E+03  0.78114969596E+02 0.  0.
        -11    1    4    4    0    0 -0.42797894102E+02 -0.39601548848E+02 -0.21562711957E+03  0.22337188074E+03  0.00000000000E+00 0.  1.
         12    1    4    4    0    0 -0.34109584575E+02 -0.30413745096E+02 -0.30291368226E+02  0.54827243590E+02  0.00000000000E+00 0. -1.
        -11    1    3    3    0    0 -0.15159439655E+02  0.47938936757E+02  0.20423101143E+02  0.54268345546E+02  0.00000000000E+00 0.  1.
         11    1    3    3    0    0 -0.43867273710E+02 -0.25755060379E+02  0.85047664760E+02  0.99099778602E+02  0.00000000000E+00 0. -1.
         -4    1    1    2    0  502  0.13593419204E+03  0.47831417567E+02 -0.21318492901E+01  0.14411972056E+03  0.00000000000E+00 0.  1.
<scales pt_clust_5="13000.00000" pt_clust_6="13000.00000" pt_clust_7="13000.00000" pt_clust_8="13000.00000" pt_clust_9="133.85506"></scales>
<clustering>
<clus scale="   78.115">  5  6 -1 -1</clus>
<clus scale="   91.768">  7  8 -1 -1</clus>
<clus scale="  111.345">  2  7  1 -1</clus>
<clus scale="  133.855">  1  9  2 -1</clus>
<clus scale="  133.855">  1  5  2 -1</clus>
</clustering>
</event>
<event>
 9    2  0.5615294E-005  0.9129037E+02  0.7546771E-02  0.1305379E+00
         21   -1    0    0  501  502  0.00000000000E+00  0.00000000000E+00  0.29149885391E+03  0.29149885391E+03  0.00000000000E+00 0. -1.
          2   -1    0    0  502    0 -0.00000000000E+00 -0.00000000000E+00 -0.77653602627E+02  0.77653602627E+02  0.00000000000E+00 0. -1.
         24    2    1    2    0    0 -0.22734091333E+02  0.36547806366E+02  0.80066066823E+01  0.90088402512E+02  0.78735211041E+02 0.  0.
         23    2    1    2    0    0 -0.49054756478E+02  0.20584568185E+01  0.78085870501E+02  0.12752246397E+03  0.88056625342E+02 0.  0.
        -11    1    3    3    0    0 -0.11015725689E+02 -0.19654438020E+02  0.21467355201E+02  0.31120579777E+02  0.00000000000E+00 0.  1.
         12    1    3    3    0    0 -0.11718365643E+02  0.56202244387E+02 -0.13460748518E+02  0.58967822735E+02  0.00000000000E+00 0. -1.
        -13    1    4    4    0    0  0.94681611528E+01  0.26418230540E+02  0.51769183991E+02  0.58886478852E+02  0.00000000000E+00 0.  1.
         13    1    4    4    0    0 -0.58522917631E+02 -0.24359773722E+02  0.26316686511E+02  0.68635985115E+02  0.00000000000E+00 0. -1.
          1    1    1    2  501    0  0.71788847811E+02 -0.38606263185E+02  0.12775277410E+03  0.15154159005E+03  0.00000000000E+00 0. -1.
<scales pt_clust_5="13000.00000" pt_clust_6="13000.00000" pt_clust_7="13000.00000" pt_clust_8="13000.00000" pt_clust_9="81.51124"></scales>
<clustering>
<clus scale="   78.735">  5  6 -1 -1</clus>
<clus scale="   81.511">  1  9  2 -1</clus>
<clus scale="   82.336">  2  5  1 -1</clus>
<clus scale="   88.057">  7  8 -1 -1</clus>
<clus scale="   81.511">  1  5  2 -1</clus>
</clustering>
</event>
<event>
 9    2  0.5615294E-005  0.1130798E+03  0.7546771E-02  0.1259044E+00
          2   -1    0    0  502    0 -0.00000000000E+00  0.00000000000E+00  0.19819594911E+03  0.19819594911E+03  0.00000000000E+00 0. -1.
         21   -1    0    0  501  502  0.00000000000E+00 -0.00000000000E+00 -0.11512012772E+03  0.11512012772E+03  0.00000000000E+00 0.  1.
         24    2    1    2    0    0  0.54750679694E+02 -0.43935458752E+02  0.10052312703E+03  0.14625573808E+03  0.79736317890E+02 0.  0.
         23    2    1    2    0    0 -0.71093978920E+02 -0.16474701584E+01 -0.24948721914E+02  0.11805852160E+03  0.90875232055E+02 0.  0.
        -13    1    3    3    0    0  0.52524211259E+02  0.88656559644E+01  0.46990271716E+02  0.71031530041E+02  0.00000000000E+00 0.  1.
         14    1    3    3    0    0  0.22264684358E+01 -0.52801114716E+02  0.53532855314E+02  0.75224208039E+02  0.00000000000E+00 0. -1.
        -13    1    4    4    0    0 -0.40557343582E+01 -0.20253714036E+02  0.24987770134E+02  0.32419910081E+02  0.00000000000E+00 0. -1.
         13    1    4    4    0    0 -0.67038244562E+02  0.18606243877E+02 -0.49936492048E+02  0.85638611520E+02  0.00000000000E+00 0.  1.
          1    1    1    2  501    0  0.16343299225E+02  0.45582928910E+02  0.75014162685E+01  0.49001817146E+02  0.00000000000E+00 0. -1.
<scales pt_clust_5="13000.00000" pt_clust_6="13000.00000" pt_clust_7="13000.00000" pt_clust_8="13000.00000" pt_clust_9="48.42424"></scales>
<clustering>
<clus scale="   48.424">  2  9  1 -1</clus>
<clus scale="   79.736">  5  6 -1 -1</clus>
<clus scale="   90.875">  7  8 -1 -1</clus>
<clus scale="  104.339">  1  5  2 -1</clus>
<clus scale="   48.424">  2  5  1 -1</clus>
</clustering>
</event>
<event>
 9    2  0.5615294E-005  0.1665380E+03  0.7546771E-02  0.1182804E+00
          2   -1    0    0  502    0 -0.00000000000E+00  0.00000000000E+00  0.42938721923E+03  0.42938721923E+03  0.00000000000E+00 0. -1.
         21   -1    0    0  501  502  0.00000000000E+00 -0.00000000000E+00 -0.91622523572E+02  0.91622523572E+02  0.00000000000E+00 0. -1.
         23    2    1    2    0    0 -0.36601144716E+02  0.14102846901E+03  0.21164243929E+03  0.27262587102E+03  0.91124478468E+02 0.  0.
         24    2    1    2    0    0  0.71953388683E+02 -0.11147629891E+03  0.58655187134E+02  0.16668370445E+03  0.82090017598E+02 0.  0.
        -13    1    4    4    0    0  0.28913269935E+02 -0.78844720112E+02  0.72479016492E+02  0.11093094654E+03  0.00000000000E+00 0.  1.
         14    1    4    4    0    0  0.43040118747E+02 -0.32631578801E+02 -0.13823829358E+02  0.55752757914E+02  0.00000000000E+00 0. -1.
        -13    1    3    3    0    0  0.23477057349E+02  0.45944509001E+02  0.32108427021E+02  0.60770232967E+02  0.00000000000E+00 0.  1.
         13    1    3    3    0    0 -0.60078202065E+02  0.95083960008E+02  0.17953401227E+03  0.21185563805E+03  0.00000000000E+00 0. -1.
          1    1    1    2  501    0 -0.35352243967E+02 -0.29552170096E+02  0.67467069241E+02  0.81700167337E+02  0.00000000000E+00 0. -1.
<scales pt_clust_5="13000.00000" pt_clust_6="13000.00000" pt_clust_7="13000.00000" pt_clust_8="13000.00000" pt_clust_9="46.07726"></scales>
<clustering>
<clus scale="   46.077">  2  9  1 -1</clus>
<clus scale="   82.090">  5  6 -1 -1</clus>
<clus scale="   91.124">  7  8 -1 -1</clus>
<clus scale="  161.771">  2  5  1 -1</clus>
<clus scale="   46.077">  2  5  1 -1</clus>
</clustering>
</event>
<event>
 9    2  0.5615294E-005  0.9524203E+02  0.7546771E-02  0.1294451E+00
          2   -1    0    0  502    0 -0.00000000000E+00  0.00000000000E+00  0.45521443003E+03  0.45521443003E+03  0.00000000000E+00 0. -1.
         21   -1    0    0  501  502  0.00000000000E+00 -0.00000000000E+00 -0.10550261054E+03  0.10550261054E+03  0.00000000000E+00 0. -1.
         24    2    1    2    0    0 -0.24879914898E+02 -0.32824025489E+02  0.31668726734E+03  0.32934527610E+03  0.80505023326E+02 0.  0.
         23    2    1    2    0    0  0.25487188434E+01  0.30536655942E+02  0.11417424358E+03  0.14717445575E+03  0.87667435249E+02 0.  0.
        -13    1    3    3    0    0 -0.42939691281E+02  0.83328000172E+01  0.12409527045E+03  0.13157845109E+03  0.00000000000E+00 0.  1.
         14    1    3    3    0    0  0.18059776384E+02 -0.41156825506E+02  0.19259199689E+03  0.19776682501E+03  0.00000000000E+00 0. -1.
        -13    1    4    4    0    0 -0.66696002250E+01 -0.21286909962E+02  0.96684592399E+00  0.22328253266E+02  0.00000000000E+00 0. -1.
         13    1    4    4    0    0  0.92183190683E+01  0.51823565904E+02  0.11320739766E+03  0.12484620248E+03  0.00000000000E+00 0.  1.
          1    1    1    2  501    0  0.22331196054E+02  0.22873695471E+01 -0.81149691428E+02  0.84197308719E+02  0.00000000000E+00 0. -1.
<scales pt_clust_5="13000.00000" pt_clust_6="13000.00000" pt_clust_7="13000.00000" pt_clust_8="13000.00000" pt_clust_9="22.44804"></scales>
<clustering>
<clus scale="   22.448">  2  9  1 -1</clus>
<clus scale="   80.505">  5  6 -1 -1</clus>
<clus scale="   87.667">  7  8 -1 -1</clus>
<clus scale="   88.693">  1  5  2 -1</clus>
<clus scale="   22.448">  2  5  1 -1</clus>
</clustering>
</event>
<event>
 9    2  0.5615294E-005  0.1060343E+03  0.7546771E-02  0.1272522E+00
          2   -1    0    0  502    0 -0.00000000000E+00  0.00000000000E+00  0.50575944865E+03  0.50575944865E+03  0.00000000000E+00 0. -1.
         21   -1    0    0  501  502  0.00000000000E+00 -0.00000000000E+00 -0.32469767948E+02  0.32469767948E+02  0.00000000000E+00 0.  1.
         24    2    1    2    0    0 -0.35703003649E+02 -0.35272558800E+02  0.25488798314E+03  0.27251761330E+03  0.82335337103E+02 0.  0.
         23    2    1    2    0    0  0.12340834559E+02  0.61725340025E+02  0.13610108554E+03  0.17616311744E+03  0.92453364807E+02 0.  0.
        -13    1    3    3    0    0 -0.28646861996E+02  0.22490203608E+02  0.73588381124E+02  0.82107866839E+02  0.00000000000E+00 0.  1.
         14    1    3    3    0    0 -0.70561416529E+01 -0.57762762408E+02  0.18129960201E+03  0.19040974646E+03  0.00000000000E+00 0. -1.
        -13    1    4    4    0    0 -0.88245188233E+01  0.37548169764E+02  0.23899069610E+01  0.38645165809E+02  0.00000000000E+00 0.  1.
         13    1    4    4    0    0  0.21165353382E+02  0.24177170261E+02  0.13371117858E+03  0.13751795163E+03  0.00000000000E+00 0. -1.
          1    1    1    2  501    0  0.23362169090E+02 -0.26452781225E+02  0.82300612031E+02  0.89548485860E+02  0.00000000000E+00 0. -1.
<scales pt_clust_5="13000.00000" pt_clust_6="13000.00000" pt_clust_7="13000.00000" pt_clust_8="13000.00000" pt_clust_9="35.29223"></scales>
<clustering>
<clus scale="   35.292">  2  9  1 -1</clus>
<clus scale="   82.335">  5  6 -1 -1</clus>
<clus scale="   92.453">  7  8 -1 -1</clus>
<clus scale="   97.338">  1  5  2 -1</clus>
<clus scale="   35.292">  2  5  1 -1</clus>
</clustering>
</event>
<event>
 9    2  0.5615294E-005  0.1069656E+03  0.7546771E-02  0.1270867E+00
         21   -1    0    0  501  502  0.00000000000E+00  0.00000000000E+00  0.28873168696E+02  0.28873168696E+02  0.00000000000E+00 0.  1.
          2   -1    0    0  502    0 -0.00000000000E+00 -0.00000000000E+00 -0.57135413749E+03  0.57135413749E+03  0.00000000000E+00 0. -1.
         24    2    1    2    0    0 -0.46037876166E+02 -0.19198240346E+02 -0.33361644924E+03  0.34664395812E+03  0.79837585281E+02 0.  0.
         23    2    1    2    0    0  0.67319252867E+02  0.33457331947E+02 -0.17810871430E+03  0.21355662893E+03  0.90732820882E+02 0.  0.
        -11    1    3    3    0    0 -0.60180482121E+02 -0.22571178848E+02 -0.32106844040E+03  0.32743868428E+03  0.00000000000E+00 0.  1.
         12    1    3    3    0    0  0.14142605955E+02  0.33729385023E+01 -0.12548008838E+02  0.19205273837E+02  0.00000000000E+00 0. -1.
        -13    1    4    4    0    0  0.29406213084E+02  0.44146478923E+02 -0.31376250256E+02  0.61628776147E+02  0.00000000000E+00 0.  1.
         13    1    4    4    0    0  0.37913039783E+02 -0.10689146976E+02 -0.14673246404E+03  0.15192785279E+03  0.00000000000E+00 0. -1.
          1    1    1    2  501    0 -0.21281376701E+02 -0.14259091601E+02 -0.30755805259E+02  0.40026719135E+02  0.00000000000E+00 0. -1.
<scales pt_clust_5="13000.00000" pt_clust_6="13000.00000" pt_clust_7="13000.00000" pt_clust_8="13000.00000" pt_clust_9="25.61677"></scales>
<clustering>
<clus scale="   25.617">  1  9  2 -1</clus>
<clus scale="   79.838">  5  6 -1 -1</clus>
<clus scale="   90.733">  7  8 -1 -1</clus>
<clus scale="   97.894">  2  5  1 -1</clus>
<clus scale="   25.617">  1  5  2 -1</clus>
</clustering>
</event>
<event>
 9    2  0.5615294E-005  0.1730638E+03  0.7546771E-02  0.1194220E+00
          2   -1    0    0  502    0 -0.00000000000E+00  0.00000000000E+00  0.34166411065E+03  0.34166411065E+03  0.00000000000E+00 0. -1.
         21   -1    0    0  501  502  0.00000000000E+00 -0.00000000000E+00 -0.17800531899E+03  0.17800531899E+03  0.00000000000E+00 0. -1.
         24    2    1    2    0    0  0.51786872569E+02 -0.57473507518E+02 -0.50948683341E+02  0.12299086961E+03  0.80906745310E+02 0.  0.
         23    2    1    2    0    0 -0.10022492036E+03  0.16604333687E+03  0.11350195601E+03  0.24061454019E+03  0.86007200585E+02 0.  0.
        -13    1    3    3    0    0  0.30913182250E+02 -0.40547751794E+02  0.13854473336E+02  0.52836459418E+02  0.00000000000E+00 0.  1.
         14    1    3    3    0    0  0.20873690319E+02 -0.16925755724E+02 -0.64803156677E+02  0.70154410194E+02  0.00000000000E+00 0. -1.
        -11    1    4    4    0    0  0.34889986669E+01  0.68691270605E+02  0.25541881278E+02  0.73369281503E+02  0.00000000000E+00 0.  1.
         11    1    4    4    0    0 -0.10371391903E+03  0.97352066262E+02  0.87960074737E+02  0.16724525869E+03  0.00000000000E+00 0. -1.
          1    1    1    2  501    0  0.48438047792E+02 -0.10856982935E+03  0.10110551899E+03  0.15606401984E+03  0.00000000000E+00 0. -1.
<scales pt_clust_5="13000.00000" pt_clust_6="13000.00000" pt_clust_7="13000.00000" pt_clust_8="13000.00000" pt_clust_9="150.17941"></scales>
<clustering>
<clus scale="   80.907">  5  6 -1 -1</clus>
<clus scale="   86.007">  7  8 -1 -1</clus>
<clus scale="  111.942">  1  5  2 -1</clus>
<clus scale="  150.179">  2  9  1 -1</clus>
<clus scale="  150.179">  2  5  1 -1</clus>
</clustering>
</event>
<event>
 9    2  0.5615294E-005  0.1322931E+03  0.7546771E-02  0.1226273E+00
          4   -1    0    0  502    0 -0.00000000000E+00  0.00000000000E+00  0.23298509111E+02  0.23298509111E+02  0.00000000000E+00 0. -1.
         21   -1    0    0  501  502  0.00000000000E+00 -0.00000000000E+00 -0.14077094022E+04  0.14077094022E+04  0.00000000000E+00 0. -1.
         23    2    1    2    0    0  0.89175072416E+02  0.34623381180E+02 -0.28945292091E+03  0.31785513861E+03  0.89988464014E+02 0.  0.
         24    2    1    2    0    0 -0.11076111134E+03  0.20498129972E+02 -0.84166198934E+03  0.85303127611E+03  0.81112616723E+02 0.  0.
        -11    1    4    4    0    0 -0.17090840395E+02  0.35587020975E+02 -0.16001688690E+03  0.16481485667E+03  0.00000000000E+00 0.  1.
         12    1    4    4    0    0 -0.93670270948E+02 -0.15088891003E+02 -0.68164510245E+03  0.68821641943E+03  0.00000000000E+00 0. -1.
        -11    1    3    3    0    0  0.20769347971E+01  0.35469093685E+02 -0.39340519002E+02  0.53009873611E+02  0.00000000000E+00 0. -1.
         11    1    3    3    0    0  0.87098137619E+02 -0.84571250513E+00 -0.25011240191E+03  0.26484526500E+03  0.00000000000E+00 0.  1.
          3    1    1    2  501    0  0.21586038928E+02 -0.55121511152E+02 -0.25329598286E+03  0.26012149662E+03  0.00000000000E+00 0. -1.
<scales pt_clust_5="13000.00000" pt_clust_6="13000.00000" pt_clust_7="13000.00000" pt_clust_8="13000.00000" pt_clust_9="59.19745"></scales>
<clustering>
<clus scale="   59.197">  2  9  1 -1</clus>
<clus scale="   81.113">  5  6 -1 -1</clus>
<clus scale="   89.988">  7  8 -1 -1</clus>
<clus scale="  126.423">  2  5  1 -1</clus>
<clus scale="   59.197">  2  5  1 -1</clus>
</clustering>
</event>
<event>
 9    2  0.5615294E-005  0.3324798E+03  0.7546771E-02  0.1070045E+00
         21   -1    0    0  501  502  0.00000000000E+00  0.00000000000E+00  0.58457629776E+02  0.58457629776E+02  0.00000000000E+00 0.  1.
          2   -1    0    0  502    0 -0.00000000000E+00 -0.00000000000E+00 -0.18154792784E+04  0.18154792784E+04  0.00000000000E+00 0. -1.
         24    2    1    2    0    0  0.80099958174E+02  0.10965019857E+03 -0.32128583982E+03  0.35773297727E+03  0.79429986847E+02 0.  0.
         23    2    1    2    0    0  0.10869996531E+03  0.10194215727E+03 -0.31541519575E+03  0.36055043085E+03  0.91115210538E+02 0.  0.
        -13    1    3    3    0    0  0.15982014196E+02  0.66593184942E+02 -0.85065650427E+02  0.10920733465E+03  0.00000000000E+00 0.  1.
         14    1    3    3    0    0  0.64117943978E+02  0.43057013625E+02 -0.23622018939E+03  0.24852564262E+03  0.00000000000E+00 0. -1.
        -11    1    4    4    0    0  0.10612434476E+03  0.55425116717E+02 -0.17055281375E+03  0.20838085898E+03  0.00000000000E+00 0.  1.
         11    1    4    4    0    0  0.25756205470E+01  0.46517040557E+02 -0.14486238201E+03  0.15216957187E+03  0.00000000000E+00 0. -1.
          1    1    1    2  501    0 -0.18879992348E+03 -0.21159235584E+03 -0.11203206131E+04  0.11556535001E+04  0.00000000000E+00 0. -1.
<scales pt_clust_5="13000.00000" pt_clust_6="13000.00000" pt_clust_7="13000.00000" pt_clust_8="13000.00000" pt_clust_9="283.57859"></scales>
<clustering>
<clus scale="   79.430">  5  6 -1 -1</clus>
<clus scale="   91.115">  7  8 -1 -1</clus>
<clus scale="   96.177">  5  7 -1 -1</clus>
<clus scale="  283.579">  1  9  2 -1</clus>
<clus scale="  283.579">  1  5  2 -1</clus>
</clustering>
</event>
<event>
 9    2  0.5615294E-005  0.1066944E+03  0.7546771E-02  0.1270360E+00
          2   -1    0    0  502    0 -0.00000000000E+00  0.00000000000E+00  0.12437468199E+04  0.12437468199E+04  0.00000000000E+00 0. -1.
         21   -1    0    0  501  502  0.00000000000E+00 -0.00000000000E+00 -0.19378583802E+02  0.19378583802E+02  0.00000000000E+00 0.  1.
         24    2    1    2    0    0 -0.47593087740E+02  0.37099608561E+02  0.87923567212E+03  0.88486183459E+03  0.79269264055E+02 0.  0.
         23    2    1    2    0    0  0.24869813777E+02 -0.63395496620E+02  0.19843464125E+03  0.22750514832E+03  0.88004483033E+02 0.  0.
        -13    1    3    3    0    0 -0.26933114195E+02 -0.45436897174E+01  0.85298811632E+02  0.89565199840E+02  0.00000000000E+00 0.  1.
         14    1    3    3    0    0 -0.20659973545E+02  0.41643298279E+02  0.79393686049E+03  0.79529663475E+03  0.00000000000E+00 0. -1.
        -11    1    4    4    0    0 -0.27797837547E+02 -0.22486031266E+02  0.11648718834E+03  0.12185075470E+03  0.00000000000E+00 0. -1.
         11    1    4    4    0    0  0.52667651324E+02 -0.40909465353E+02  0.81947452910E+02  0.10565439361E+03  0.00000000000E+00 0.  1.
          1    1    1    2  501    0  0.22723273963E+02  0.26295888058E+02  0.14669792268E+03  0.15075842075E+03  0.00000000000E+00 0. -1.
<scales pt_clust_5="13000.00000" pt_clust_6="13000.00000" pt_clust_7="13000.00000" pt_clust_8="13000.00000" pt_clust_9="34.75374"></scales>
<clustering>
<clus scale="   34.754">  2  9  1 -1</clus>
<clus scale="   79.269">  5  6 -1 -1</clus>
<clus scale="   88.004">  7  8 -1 -1</clus>
<clus scale="   99.612">  1  5  2 -1</clus>
<clus scale="   34.754">  2  5  1 -1</clus>
</clustering>
</event>
<event>
 9    2  0.5615294E-005  0.8843274E+02  0.7546771E-02  0.1309149E+00
          2   -1    0    0  502    0 -0.00000000000E+00  0.00000000000E+00  0.30432266560E+03  0.30432266560E+03  0.00000000000E+00 0. -1.
         21   -1    0    0  501  502  0.00000000000E+00 -0.00000000000E+00 -0.41111036537E+02  0.41111036537E+02  0.00000000000E+00 0. -1.
         24    2    1    2    0    0  0.20936173281E+01  0.12426558416E+02  0.15180875914E+03  0.17274153813E+03  0.81455122970E+02 0.  0.
         23    2    1    2    0    0 -0.27434175077E+02 -0.36355492756E+02  0.86580756773E+02  0.12990343807E+03  0.85465314389E+02 0.  0.
        -13    1    3    3    0    0  0.10608411834E+02  0.35242251916E+02  0.27172006242E+02  0.45747925035E+02  0.00000000000E+00 0.  1.
         14    1    3    3    0    0 -0.85147945055E+01 -0.22815693501E+02  0.12463675290E+03  0.12699361310E+03  0.00000000000E+00 0. -1.
        -13    1    4    4    0    0 -0.50569544270E+02  0.20745672311E+01  0.56713110164E+02  0.76012890363E+02  0.00000000000E+00 0.  1.
         13    1    4    4    0    0  0.23135369193E+02 -0.38430059987E+02  0.29867646609E+02  0.53890547708E+02  0.00000000000E+00 0. -1.
          1    1    1    2  501    0  0.25340557749E+02  0.23928934340E+02  0.24822113152E+02  0.42788725933E+02  0.00000000000E+00 0. -1.
<scales pt_clust_5="13000.00000" pt_clust_6="13000.00000" pt_clust_7="13000.00000" pt_clust_8="13000.00000" pt_clust_9="34.85309"></scales>
<clustering>
<clus scale="   34.853">  2  9  1 -1</clus>
<clus scale="   81.455">  5  6 -1 -1</clus>
<clus scale="   84.563">  1  5  2 -1</clus>
<clus scale="   85.465">  7  8 -1 -1</clus>
<clus scale="   34.853">  2  5  1 -1</clus>
</clustering>
</event>
<event>
 9    2  0.5615294E-005  0.1250806E+03  0.7546771E-02  0.1250402E+00
         -3   -1    0    0    0  501 -0.00000000000E+00  0.00000000000E+00  0.61157538471E+03  0.61157538471E+03  0.00000000000E+00 0.  1.
         21   -1    0    0  501  502  0.00000000000E+00 -0.00000000000E+00 -0.43426158768E+02  0.43426158768E+02  0.00000000000E+00 0.  1.
         24    2    1    2    0    0 -0.91175626075E+01  0.38481378594E+02  0.15394541191E+03  0.17908638184E+03  0.82515428048E+02 0.  0.
         23    2    1    2    0    0  0.74005486005E+02  0.34244504566E+02  0.14518693067E+03  0.18978655381E+03  0.91050497626E+02 0.  0.
        -13    1    3    3    0    0  0.20450018141E+02 -0.83068152064E+01  0.88285269231E+01  0.23772869167E+02  0.00000000000E+00 0.  1.
         14    1    3    3    0    0 -0.29567580748E+02  0.46788193800E+02  0.14511688498E+03  0.15531351267E+03  0.00000000000E+00 0. -1.
        -13    1    4    4    0    0  0.57858695897E+02  0.64827028788E+02  0.11297381051E+03  0.14252457407E+03  0.00000000000E+00 0.  1.
         13    1    4    4    0    0  0.16146790108E+02 -0.30582524222E+02  0.32213120158E+02  0.47261979740E+02  0.00000000000E+00 0. -1.
         -4    1    1    2    0  502 -0.64887923397E+02 -0.72725883160E+02  0.26901688337E+03  0.28612860783E+03  0.00000000000E+00 0.  1.
<scales pt_clust_5="13000.00000" pt_clust_6="13000.00000" pt_clust_7="13000.00000" pt_clust_8="13000.00000" pt_clust_9="85.76109"></scales>
<clustering>
<clus scale="   82.515">  5  6 -1 -1</clus>
<clus scale="   91.050">  7  8 -1 -1</clus>
<clus scale="   91.503">  1  5  2 -1</clus>
<clus scale="   85.761">  2  9  1 -1</clus>
<clus scale="   85.761">  2  5  1 -1</clus>
</clustering>
</event>
<event>
 9    2  0.5615294E-005  0.1156046E+03  0.7546771E-02  0.1255030E+00
         21   -1    0    0  501  502  0.00000000000E+00  0.00000000000E+00  0.30436766423E+02  0.30436766423E+02  0.00000000000E+00 0. -1.
          2   -1    0    0  502    0 -0.00000000000E+00 -0.00000000000E+00 -0.78459272630E+03  0.78459272630E+03  0.00000000000E+00 0. -1.
         24    2    1    2    0    0 -0.12237527522E+02  0.67300603261E+02 -0.49984686765E+03  0.51048617904E+03  0.77910972396E+02 0.  0.
         23    2    1    2    0    0  0.46336833963E+02 -0.71262537153E+02 -0.23296839246E+03  0.26412196923E+03  0.90888345586E+02 0.  0.
        -13    1    3    3    0    0  0.75065064967E+01  0.29590494224E+02 -0.49670169242E+02  0.58301549728E+02  0.00000000000E+00 0.  1.
         14    1    3    3    0    0 -0.19744034019E+02  0.37710109037E+02 -0.45017669841E+03  0.45218462932E+03  0.00000000000E+00 0. -1.
        -13    1    4    4    0    0  0.67329750167E+02 -0.77345805401E+02 -0.18941228556E+03  0.21538960697E+03  0.00000000000E+00 0. -1.
         13    1    4    4    0    0 -0.20992916203E+02  0.60832682479E+01 -0.43556106899E+02  0.48732362261E+02  0.00000000000E+00 0.  1.
          1    1    1    2  501    0 -0.34099306441E+02  0.39619338924E+01 -0.21340699769E+02  0.40421344443E+02  0.00000000000E+00 0. -1.
<scales pt_clust_5="13000.00000" pt_clust_6="13000.00000" pt_clust_7="13000.00000" pt_clust_8="13000.00000" pt_clust_9="34.32870"></scales>
<clustering>
<clus scale="   34.329">  1  9  2 -1</clus>
<clus scale="   77.911">  5  6 -1 -1</clus>
<clus scale="   90.888">  7  8 -1 -1</clus>
<clus scale="  105.706">  2  5  1 -1</clus>
<clus scale="   34.329">  1  5  2 -1</clus>
</clustering>
</event>
<event>
 9    2  0.5615294E-005  0.1025626E+03  0.7546771E-02  0.1282026E+00
         21   -1    0    0  501  502  0.00000000000E+00  0.00000000000E+00  0.45206652690E+02  0.45206652690E+02  0.00000000000E+00 0. -1.
         -3   -1    0    0    0  501 -0.00000000000E+00 -0.00000000000E+00 -0.44939796942E+03  0.44939796942E+03  0.00000000000E+00 0.  1.
         24    2    1    2    0    0 -0.10229249354E+02  0.34466879802E+02 -0.90735806224E+02  0.12466566873E+03  0.77562485023E+02 0.  0.
         23    2    1    2    0    0  0.62782618332E+02 -0.28793648405E+02 -0.10829470909E+03  0.15807815809E+03  0.92142436988E+02 0.  0.
        -13    1    3    3    0    0 -0.18167304995E+02  0.22195017306E+02 -0.10216322185E+03  0.10611311730E+03  0.00000000000E+00 0.  1.
         14    1    3    3    0    0  0.79380556413E+01  0.12271862496E+02  0.11427415630E+02  0.18552551427E+02  0.00000000000E+00 0. -1.
        -11    1    4    4    0    0  0.77142168045E+02  0.44454436599E+01 -0.60614019635E+02  0.98207613943E+02  0.00000000000E+00 0. -1.
         11    1    4    4    0    0 -0.14359549713E+02 -0.33239092065E+02 -0.47680689454E+02  0.59870544144E+02  0.00000000000E+00 0.  1.
         -4    1    1    2    0  502 -0.52553368979E+02 -0.56732313969E+01 -0.20516080142E+03  0.21186079530E+03  0.00000000000E+00 0.  1.
<scales pt_clust_5="13000.00000" pt_clust_6="13000.00000" pt_clust_7="13000.00000" pt_clust_8="13000.00000" pt_clust_9="52.85873"></scales>
<clustering>
<clus scale="   52.859">  1  9  2 -1</clus>
<clus scale="   77.562">  5  6 -1 -1</clus>
<clus scale="   89.693">  2  5  1 -1</clus>
<clus scale="   92.142">  7  8 -1 -1</clus>
<clus scale="   52.859">  1  5  2 -1</clus>
</clustering>
</event>
<event>
 9    2  0.5615294E-005  0.1014841E+03  0.7546771E-02  0.1283787E+00
         21   -1    0    0  501  502  0.00000000000E+00  0.00000000000E+00  0.25766209851E+03  0.25766209851E+03  0.00000000000E+00 0. -1.
          2   -1    0    0  502    0 -0.00000000000E+00 -0.00000000000E+00 -0.13243986168E+03  0.13243986168E+03  0.00000000000E+00 0. -1.
         23    2    1    2    0    0 -0.35860121845E+01 -0.35055321168E+02 -0.75767044012E+02  0.12533942419E+03  0.93421578195E+02 0.  0.
         24    2    1    2    0    0  0.19417038258E+02  0.50721939693E+02  0.44442232608E+02  0.10663903164E+03  0.80293427435E+02 0.  0.
        -13    1    4    4    0    0 -0.11812857642E+01  0.28667219961E+02  0.64370300830E+02  0.70475105997E+02  0.00000000000E+00 0.  1.
         14    1    4    4    0    0  0.20598324022E+02  0.22054719732E+02 -0.19928068222E+02  0.36163925645E+02  0.00000000000E+00 0. -1.
        -13    1    3    3    0    0 -0.39142072286E+02  0.11474897452E+02 -0.37319575910E+02  0.55285855700E+02  0.00000000000E+00 0.  1.
         13    1    3    3    0    0  0.35556060102E+02 -0.46530218620E+02 -0.38447468102E+02  0.70053568490E+02  0.00000000000E+00 0. -1.
          1    1    1    2  501    0 -0.15831026073E+02 -0.15666618524E+02  0.15654704823E+03  0.15812350436E+03  0.00000000000E+00 0. -1.
<scales pt_clust_5="13000.00000" pt_clust_6="13000.00000" pt_clust_7="13000.00000" pt_clust_8="13000.00000" pt_clust_9="22.27250"></scales>
<clustering>
<clus scale="   22.273">  1  9  2 -1</clus>
<clus scale="   80.293">  5  6 -1 -1</clus>
<clus scale="   89.546">  1  5  2 -1</clus>
<clus scale="   93.422">  7  8 -1 -1</clus>
<clus scale="   22.273">  1  5  2 -1</clus>
</clustering>
</event>
<event>
 9    2  0.5615294E-005  0.2495104E+03  0.7546771E-02  0.1137952E+00
          2   -1    0    0  502    0 -0.00000000000E+00  0.00000000000E+00  0.43759985864E+03  0.43759985864E+03  0.00000000000E+00 0. -1.
         21   -1    0    0  501  502  0.00000000000E+00 -0.00000000000E+00 -0.29832400486E+03  0.29832400486E+03  0.00000000000E+00 0. -1.
         24    2    1    2    0    0 -0.65378532940E+02 -0.67462724354E+02  0.39534720224E+02  0.14221554235E+03  0.99180112102E+02 0.  0.
         23    2    1    2    0    0 -0.21333032257E+03 -0.21643769111E+02 -0.84157958571E+02  0.24811105640E+03  0.92185980762E+02 0.  0.
        -11    1    3    3    0    0 -0.33475093958E+02 -0.61324148328E+01 -0.29116168974E+02  0.44787718438E+02  0.00000000000E+00 0.  1.
         12    1    3    3    0    0 -0.31903438982E+02 -0.61330309521E+02  0.68650889198E+02  0.97427823913E+02  0.00000000000E+00 0. -1.
        -13    1    4    4    0    0 -0.19040136491E+03 -0.39911585168E+02 -0.45844621349E+02  0.19986831589E+03  0.00000000000E+00 0. -1.
         13    1    4    4    0    0 -0.22928957656E+02  0.18267816057E+02 -0.38313337222E+02  0.48242740509E+02  0.00000000000E+00 0.  1.
          1    1    1    2  501    0  0.27870885551E+03  0.89106493465E+02  0.18389909213E+03  0.34559726475E+03  0.00000000000E+00 0. -1.
<scales pt_clust_5="13000.00000" pt_clust_6="13000.00000" pt_clust_7="13000.00000" pt_clust_8="13000.00000" pt_clust_9="231.85609"></scales>
<clustering>
<clus scale="   92.186">  7  8 -1 -1</clus>
<clus scale="   99.180">  5  6 -1 -1</clus>
<clus scale="  136.610">  1  5  2 -1</clus>
<clus scale="  231.856">  2  9  1 -1</clus>
<clus scale="  231.856">  2  5  1 -1</clus>
</clustering>
</event>
<event>
 9    2  0.5615294E-005  0.1703677E+03  0.7546771E-02  0.1179250E+00
          2   -1    0    0  502    0 -0.00000000000E+00  0.00000000000E+00  0.66574641861E+03  0.66574641861E+03  0.00000000000E+00 0. -1.
         21   -1    0    0  501  502  0.00000000000E+00 -0.00000000000E+00 -0.65040312441E+02  0.65040312441E+02  0.00000000000E+00 0. -1.
         24    2    1    2    0    0 -0.17737263111E+02 -0.14156898089E+03  0.36876791552E+03  0.40272838006E+03  0.76445966119E+02 0.  0.
         23    2    1    2    0    0 -0.33506802621E+02  0.15167687899E+03  0.17273720227E+03  0.24910975441E+03  0.89938574886E+02 0.  0.
        -11    1    3    3    0    0 -0.11453836710E+02 -0.74489207503E+02  0.97571218193E+02  0.12328817879E+03  0.00000000000E+00 0.  1.
         12    1    3    3    0    0 -0.62834264012E+01 -0.67079773392E+02  0.27119669732E+03  0.27944020127E+03  0.00000000000E+00 0. -1.
        -11    1    4    4    0    0 -0.76763702723E+01  0.14975688660E+03  0.12682015581E+03  0.19639094599E+03  0.00000000000E+00 0. -1.
         11    1    4    4    0    0 -0.25830432349E+02  0.19199923857E+01  0.45917046456E+02  0.52718808421E+02  0.00000000000E+00 0.  1.
          1    1    1    2  501    0  0.51244065733E+02 -0.10107898096E+02  0.59200988384E+02  0.78948596583E+02  0.00000000000E+00 0. -1.
<scales pt_clust_5="13000.00000" pt_clust_6="13000.00000" pt_clust_7="13000.00000" pt_clust_8="13000.00000" pt_clust_9="52.23145"></scales>
<clustering>
<clus scale="   52.231">  2  9  1 -1</clus>
<clus scale="   76.446">  5  6 -1 -1</clus>
<clus scale="   89.939">  7  8 -1 -1</clus>
<clus scale="  163.647">  1  5  2 -1</clus>
<clus scale="   52.231">  2  5  1 -1</clus>
</clustering>
</event>
<event>
 9    2  0.5615294E-005  0.1006283E+03  0.7546771E-02  0.1287328E+00
          2   -1    0    0  502    0 -0.00000000000E+00  0.00000000000E+00  0.52856114610E+03  0.52856114610E+03  0.00000000000E+00 0. -1.
         21   -1    0    0  501  502  0.00000000000E+00 -0.00000000000E+00 -0.86369259155E+02  0.86369259155E+02  0.00000000000E+00 0.  1.
         24    2    1    2    0    0  0.16897056003E+02 -0.21950458158E+02  0.42127504975E+03  0.42966944981E+03  0.79848828702E+02 0.  0.
         23    2    1    2    0    0 -0.51142905547E+02  0.66902288397E+02  0.18838508492E+02  0.12871217382E+03  0.95500896889E+02 0.  0.
        -13    1    3    3    0    0  0.14592883017E+02  0.27526296607E+02  0.10449523135E+03  0.10904083004E+03  0.00000000000E+00 0.  1.
         14    1    3    3    0    0  0.23041729861E+01 -0.49476754765E+02  0.31677981839E+03  0.32062861977E+03  0.00000000000E+00 0. -1.
        -11    1    4    4    0    0  0.21443899547E+02  0.34160751265E+02 -0.13834480233E+02  0.42640246225E+02  0.00000000000E+00 0. -1.
         11    1    4    4    0    0 -0.72586805095E+02  0.32741537132E+02  0.32672988725E+02  0.86071927594E+02  0.00000000000E+00 0.  1.
          1    1    1    2  501    0  0.34245849544E+02 -0.44951830239E+02  0.20783287035E+01  0.56548781623E+02  0.00000000000E+00 0. -1.
<scales pt_clust_5="13000.00000" pt_clust_6="13000.00000" pt_clust_7="13000.00000" pt_clust_8="13000.00000" pt_clust_9="56.51058"></scales>
<clustering>
<clus scale="   56.511">  2  9  1 -1</clus>
<clus scale="   79.849">  5  6 -1 -1</clus>
<clus scale="   85.915">  1  5  2 -1</clus>
<clus scale="   95.501">  7  8 -1 -1</clus>
<clus scale="   56.511">  2  5  1 -1</clus>
</clustering>
</event>
<event>
 9    2  0.5615294E-005  0.1124166E+03  0.7546771E-02  0.1261710E+00
          2   -1    0    0  502    0 -0.00000000000E+00  0.00000000000E+00  0.82135946335E+03  0.82135946335E+03  0.00000000000E+00 0. -1.
         21   -1    0    0  501  502  0.00000000000E+00 -0.00000000000E+00 -0.57815985616E+02  0.57815985616E+02  0.00000000000E+00 0. -1.
         23    2    1    2    0    0 -0.40305969107E+02 -0.46130927355E+01  0.37366993900E+03  0.38739146184E+03  0.93792694942E+02 0.  0.
         24    2    1    2    0    0  0.83731392503E+02  0.29309200304E+02  0.41787354507E+03  0.43451562344E+03  0.79470447541E+02 0.  0.
        -11    1    4    4    0    0  0.54142077237E+02 -0.99646191121E+01  0.32298263213E+03  0.32764071606E+03  0.00000000000E+00 0.  1.
         12    1    4    4    0    0  0.29589315266E+02  0.39273819416E+02  0.94890912932E+02  0.10687490738E+03  0.00000000000E+00 0. -1.
        -13    1    3    3    0    0 -0.66274648319E+02 -0.17466046497E+02  0.20244079814E+03  0.21372802470E+03  0.00000000000E+00 0. -1.
         13    1    3    3    0    0  0.25968679211E+02  0.12852953761E+02  0.17122914086E+03  0.17366343714E+03  0.00000000000E+00 0.  1.
          1    1    1    2  501    0 -0.43425423396E+02 -0.24696107568E+02 -0.28000006324E+02  0.57268363695E+02  0.00000000000E+00 0. -1.
<scales pt_clust_5="13000.00000" pt_clust_6="13000.00000" pt_clust_7="13000.00000" pt_clust_8="13000.00000" pt_clust_9="49.95663"></scales>
<clustering>
<clus scale="   49.957">  2  9  1 -1</clus>
<clus scale="   79.470">  5  6 -1 -1</clus>
<clus scale="   93.793">  7  8 -1 -1</clus>
<clus scale="  100.777">  2  5  1 -1</clus>
<clus scale="   49.957">  2  5  1 -1</clus>
</clustering>
</event>
<event>
 9    2  0.5615294E-005  0.9388615E+02  0.7546771E-02  0.1299517E+00
         21   -1    0    0  501  502  0.00000000000E+00  0.00000000000E+00  0.51436010888E+03  0.51436010888E+03  0.00000000000E+00 0.  1.
          2   -1    0    0  502    0 -0.00000000000E+00 -0.00000000000E+00 -0.42418805817E+03  0.42418805817E+03  0.00000000000E+00 0. -1.
         24    2    1    2    0    0 -0.52678175113E+01  0.21317409694E+02 -0.41082791369E+03  0.41937734416E+03  0.81336340406E+02 0.  0.
         23    2    1    2    0    0 -0.18444044928E+02 -0.44145385829E+02  0.36670337357E+03  0.38089955610E+03  0.91236559361E+02 0.  0.
        -13    1    3    3    0    0 -0.39864175568E+01  0.22970939967E+02 -0.27538374595E+02  0.36082096436E+02  0.00000000000E+00 0.  1.
         14    1    3    3    0    0 -0.12813999545E+01 -0.16535302727E+01 -0.38328953909E+03  0.38329524772E+03  0.00000000000E+00 0. -1.
        -11    1    4    4    0    0 -0.74043669877E+01 -0.71572062464E+02  0.28721568848E+03  0.29609160151E+03  0.00000000000E+00 0.  1.
         11    1    4    4    0    0 -0.11039677940E+02  0.27426676635E+02  0.79487685089E+02  0.84807954585E+02  0.00000000000E+00 0. -1.
          1    1    1    2  501    0  0.23711862439E+02  0.22827976135E+02  0.13429659082E+03  0.13827126680E+03  0.00000000000E+00 0. -1.
<scales pt_clust_5="13000.00000" pt_clust_6="13000.00000" pt_clust_7="13000.00000" pt_clust_8="13000.00000" pt_clust_9="32.91457"></scales>
<clustering>
<clus scale="   32.915">  1  9  2 -1</clus>
<clus scale="   81.336">  5  6 -1 -1</clus>
<clus scale="   84.298">  2  5  1 -1</clus>
<clus scale="   91.237">  7  8 -1 -1</clus>
<clus scale="   32.915">  1  5  2 -1</clus>
</clustering>
</event>
<event>
 9    2  0.5615294E-005  0.1888948E+03  0.7546771E-02  0.1178918E+00
         -1   -1    0    0    0  501 -0.00000000000E+00  0.00000000000E+00  0.10930396775E+03  0.10930396775E+03  0.00000000000E+00 0.  1.
         21   -1    0    0  501  502  0.00000000000E+00 -0.00000000000E+00 -0.17521688545E+04  0.17521688545E+04  0.00000000000E+00 0. -1.
         24    2    1    2    0    0 -0.66786476463E+02 -0.57526849514E+02 -0.12323573254E+04  0.12382797600E+04  0.82839692040E+02 0.  0.
         23    2    1    2    0    0  0.71258124413E+02  0.20182024545E+03 -0.66546552117E+02  0.25016524079E+03  0.11110838103E+03 0.  0.
        -13    1    3    3    0    0 -0.37360182094E+02 -0.50511910172E+02 -0.36304059225E+03  0.36843684384E+03  0.00000000000E+00 0.  1.
         14    1    3    3    0    0 -0.29426294369E+02 -0.70149393425E+01 -0.86931673319E+03  0.86984291615E+03  0.00000000000E+00 0. -1.
        -13    1    4    4    0    0  0.86003163629E+01  0.99589761754E+02 -0.81971617235E+02  0.12927270447E+03  0.00000000000E+00 0. -1.
         13    1    4    4    0    0  0.62657808050E+02  0.10223048369E+03  0.15425065118E+02  0.12089253633E+03  0.00000000000E+00 0.  1.
         -2    1    1    2    0  502 -0.44716479495E+01 -0.14429339593E+03 -0.34396100923E+03  0.37302782151E+03  0.00000000000E+00 0.  1.
<scales pt_clust_5="13000.00000" pt_clust_6="13000.00000" pt_clust_7="13000.00000" pt_clust_8="13000.00000" pt_clust_9="152.76185"></scales>
<clustering>
<clus scale="   82.840">  5  6 -1 -1</clus>
<clus scale="  111.108">  7  8 -1 -1</clus>
<clus scale="  120.964">  1  5  2 -1</clus>
<clus scale="  152.762">  2  9  1 -1</clus>
<clus scale="  152.762">  2  5  1 -1</clus>
</clustering>
</event>
<event>
 9    2  0.5615294E-005  0.1126377E+03  0.7546771E-02  0.1257362E+00
         21   -1    0    0  501  502  0.00000000000E+00  0.00000000000E+00  0.14028369511E+03  0.14028369511E+03  0.00000000000E+00 0.  1.
          2   -1    0    0  502    0 -0.00000000000E+00 -0.00000000000E+00 -0.44921121560E+03  0.44921121560E+03  0.00000000000E+00 0. -1.
         23    2    1    2    0    0 -0.24045542851E+01 -0.64810750172E+02 -0.34140388056E+03  0.35891037992E+03  0.89743166514E+02 0.  0.
         24    2    1    2    0    0 -0.33707083093E+02  0.11110690585E+03  0.70739241011E+02  0.16050291807E+03  0.85300847078E+02 0.  0.
        -13    1    4    4    0    0 -0.43854295718E+02  0.11957099400E+03  0.73439061010E+02  0.14701604518E+03  0.00000000000E+00 0.  1.
         14    1    4    4    0    0  0.10147212625E+02 -0.84640881501E+01 -0.26998199994E+01  0.13486872888E+02  0.00000000000E+00 0. -1.
        -13    1    3    3    0    0  0.33107203474E+02 -0.35817310680E+02 -0.26773627449E+03  0.27214275545E+03  0.00000000000E+00 0. -1.
         13    1    3    3    0    0 -0.35511757759E+02 -0.28993439492E+02 -0.73667606074E+02  0.86767624477E+02  0.00000000000E+00 0.  1.
          1    1    1    2  501    0  0.36111637378E+02 -0.46296155675E+02 -0.38262880939E+02  0.70081612726E+02  0.00000000000E+00 0. -1.
<scales pt_clust_5="13000.00000" pt_clust_6="13000.00000" pt_clust_7="13000.00000" pt_clust_8="13000.00000" pt_clust_9="58.71446"></scales>
<clustering>
<clus scale="   58.714">  1  9  2 -1</clus>
<clus scale="   85.301">  5  6 -1 -1</clus>
<clus scale="   89.743">  7  8 -1 -1</clus>
<clus scale="  109.131">  1  5  2 -1</clus>
<clus scale="   58.714">  1  5  2 -1</clus>
</clustering>
</event>
<event>
 9    2  0.5615294E-005  0.1521825E+03  0.7546771E-02  0.1202715E+00
         21   -1    0    0  501  502  0.00000000000E+00  0.00000000000E+00  0.21013277581E+03  0.21013277581E+03  0.00000000000E+00 0. -1.
          4   -1    0    0  502    0 -0.00000000000E+00 -0.00000000000E+00 -0.22304379925E+03  0.22304379925E+03  0.00000000000E+00 0. -1.
         23    2    1    2    0    0 -0.10176730642E+03  0.14271858990E+02 -0.78123439826E+02  0.16564070593E+03  0.10379451332E+03 0.  0.
         24    2    1    2    0    0  0.12708975607E+03 -0.75326948100E+02  0.97383062699E+02  0.19402463974E+03  0.79599904000E+02 0.  0.
        -13    1    4    4    0    0  0.14882927749E+01 -0.24191655346E+02 -0.41828204021E+01  0.24595674218E+02  0.00000000000E+00 0.  1.
         14    1    4    4    0    0  0.12560146329E+03 -0.51135292755E+02  0.10156588310E+03  0.16942896552E+03  0.00000000000E+00 0. -1.
        -11    1    3    3    0    0  0.16142759454E+02 -0.14410680862E+02 -0.60902333466E+00  0.21647801623E+02  0.00000000000E+00 0.  1.
         11    1    3    3    0    0 -0.11791006587E+03  0.28682539852E+02 -0.77514416491E+02  0.14399290431E+03  0.00000000000E+00 0. -1.
          3    1    1    2  501    0 -0.25322449650E+02  0.61055089111E+02 -0.32170646320E+02  0.73511229395E+02  0.00000000000E+00 0. -1.
<scales pt_clust_5="13000.00000" pt_clust_6="13000.00000" pt_clust_7="13000.00000" pt_clust_8="13000.00000" pt_clust_9="66.09807"></scales>
<clustering>
<clus scale="   66.098">  1  9  2 -1</clus>
<clus scale="   79.600">  5  6 -1 -1</clus>
<clus scale="  103.795">  7  8 -1 -1</clus>
<clus scale="  136.830">  1  5  2 -1</clus>
<clus scale="   66.098">  1  5  2 -1</clus>
</clustering>
</event>
<event>
 9    2  0.5615294E-005  0.1187329E+03  0.7546771E-02  0.1248453E+00
         21   -1    0    0  501  502  0.00000000000E+00  0.00000000000E+00  0.50070074595E+03  0.50070074595E+03  0.00000000000E+00 0. -1.
          2   -1    0    0  502    0 -0.00000000000E+00 -0.00000000000E+00 -0.85976247427E+02  0.85976247427E+02  0.00000000000E+00 0. -1.
         24    2    1    2    0    0 -0.14192567215E+02 -0.75723652714E+02 -0.25446248709E+02  0.11516924863E+03  0.81737040031E+02 0.  0.
         23    2    1    2    0    0 -0.30298348888E+02  0.67452630340E+02  0.36733930881E+03  0.38576236674E+03  0.91687450108E+02 0.  0.
        -13    1    3    3    0    0 -0.32048115198E+02  0.13332704895E+01  0.81209349499E-02  0.32075837696E+02  0.00000000000E+00 0.  1.
         14    1    3    3    0    0  0.17855547984E+02 -0.77056923203E+02 -0.25454369644E+02  0.83093410938E+02  0.00000000000E+00 0. -1.
        -13    1    4    4    0    0 -0.50522376635E+02  0.75540973796E+02  0.33231669293E+03  0.34451898883E+03  0.00000000000E+00 0. -1.
         13    1    4    4    0    0  0.20224027747E+02 -0.80883434559E+01  0.35022615881E+02  0.41243377909E+02  0.00000000000E+00 0.  1.
          1    1    1    2  501    0  0.44490916102E+02  0.82710223732E+01  0.72831438415E+02  0.85745378000E+02  0.00000000000E+00 0. -1.
<scales pt_clust_5="13000.00000" pt_clust_6="13000.00000" pt_clust_7="13000.00000" pt_clust_8="13000.00000" pt_clust_9="45.25319"></scales>
<clustering>
<clus scale="   45.253">  1  9  2 -1</clus>
<clus scale="   81.737">  5  6 -1 -1</clus>
<clus scale="   91.687">  7  8 -1 -1</clus>
<clus scale="  111.229">  2  5  1 -1</clus>
<clus scale="   45.253">  1  5  2 -1</clus>
</clustering>
</event>
<event>
 9    2  0.5615294E-005  0.1006010E+03  0.7546771E-02  0.1289785E+00
          2   -1    0    0  502    0 -0.00000000000E+00  0.00000000000E+00  0.84711785443E+03  0.84711785443E+03  0.00000000000E+00 0. -1.
         21   -1    0    0  501  502  0.00000000000E+00 -0.00000000000E+00 -0.24036434983E+02  0.24036434983E+02  0.00000000000E+00 0. -1.
         24    2    1    2    0    0  0.12643542598E+02  0.18434054348E+02  0.48853775200E+03  0.49565848275E+03  0.80675416742E+02 0.  0.
         23    2    1    2    0    0  0.23421119094E+02 -0.79024120194E+01  0.31862115106E+03  0.33469014724E+03  0.99433695598E+02 0.  0.
        -11    1    3    3    0    0 -0.32272720791E+02  0.13970325792E+02  0.14683948931E+03  0.15099183465E+03  0.00000000000E+00 0.  1.
         12    1    3    3    0    0  0.44916263389E+02  0.44637285562E+01  0.34169826269E+03  0.34466664810E+03  0.00000000000E+00 0. -1.
        -11    1    4    4    0    0  0.93768523670E+01 -0.53596635114E+02  0.15800482836E+03  0.16711089265E+03  0.00000000000E+00 0.  1.
         11    1    4    4    0    0  0.14044266726E+02  0.45694223095E+02  0.16061632270E+03  0.16757925459E+03  0.00000000000E+00 0. -1.
          1    1    1    2  501    0 -0.36064661691E+02 -0.10531642329E+02  0.15922516392E+02  0.40805659427E+02  0.00000000000E+00 0. -1.
<scales pt_clust_5="13000.00000" pt_clust_6="13000.00000" pt_clust_7="13000.00000" pt_clust_8="13000.00000" pt_clust_9="37.57094"></scales>
<clustering>
<clus scale="   37.571">  2  9  1 -1</clus>
<clus scale="   80.675">  5  6 -1 -1</clus>
<clus scale="   82.110">  1  5  2 -1</clus>
<clus scale="   99.434">  7  8 -1 -1</clus>
<clus scale="   37.571">  2  5  1 -1</clus>
</clustering>
</event>
<event>
 9    2  0.5615294E-005  0.1322642E+03  0.7546771E-02  0.1228336E+00
          2   -1    0    0  502    0 -0.00000000000E+00  0.00000000000E+00  0.28773291979E+03  0.28773291979E+03  0.00000000000E+00 0. -1.
         21   -1    0    0  501  502  0.00000000000E+00 -0.00000000000E+00 -0.16879292907E+03  0.16879292907E+03  0.00000000000E+00 0. -1.
         23    2    1    2    0    0  0.36998450047E+02  0.95100351909E+02  0.17407246547E+03  0.22354478883E+03  0.96218954157E+02 0.  0.
         24    2    1    2    0    0 -0.45771625567E+02 -0.61076369292E+02  0.50409233697E+02  0.12174414069E+03  0.80344137039E+02 0.  0.
        -11    1    4    4    0    0 -0.10378462335E+02 -0.51540586717E+02 -0.76027607221E+01  0.53121996670E+02  0.00000000000E+00 0.  1.
         12    1    4    4    0    0 -0.35393163232E+02 -0.95357825745E+01  0.58011994419E+02  0.68622144016E+02  0.00000000000E+00 0. -1.
        -11    1    3    3    0    0 -0.86751327828E+01  0.91383803436E+02  0.13539819587E+03  0.16358156652E+03  0.00000000000E+00 0. -1.
         11    1    3    3    0    0  0.45673582830E+02  0.37165484734E+01  0.38674269598E+02  0.59963222312E+02  0.00000000000E+00 0.  1.
          1    1    1    2  501    0  0.87731755197E+01 -0.34023982617E+02 -0.10554170845E+03  0.11123691935E+03  0.00000000000E+00 0. -1.
<scales pt_clust_5="13000.00000" pt_clust_6="13000.00000" pt_clust_7="13000.00000" pt_clust_8="13000.00000" pt_clust_9="35.13688"></scales>
<clustering>
<clus scale="   35.137">  2  9  1 -1</clus>
<clus scale="   80.344">  5  6 -1 -1</clus>
<clus scale="   96.219">  7  8 -1 -1</clus>
<clus scale="  121.206">  2  5  1 -1</clus>
<clus scale="   35.137">  2  5  1 -1</clus>
</clustering>
</event>
<event>
 9    2  0.5615294E-005  0.1890180E+03  0.7546771E-02  0.1188999E+00
         -1   -1    0    0    0  501 -0.00000000000E+00  0.00000000000E+00  0.66107965468E+03  0.66107965468E+03  0.00000000000E+00 0.  1.
         21   -1    0    0  501  502  0.00000000000E+00 -0.00000000000E+00 -0.11937555159E+03  0.11937555159E+03  0.00000000000E+00 0.  1.
         24    2    1    2    0    0  0.48173746261E+02 -0.16242003375E+02  0.79928954103E+02  0.12522401004E+03  0.81901785601E+02 0.  0.
         23    2    1    2    0    0 -0.12991432720E+03 -0.11203227626E+03  0.27802945724E+02  0.19537503765E+03  0.89271710016E+02 0.  0.
        -13    1    3    3    0    0  0.64392825740E+02 -0.32806081212E+02  0.52581330705E+02  0.89372654151E+02  0.00000000000E+00 0.  1.
         14    1    3    3    0    0 -0.16219079479E+02  0.16564077838E+02  0.27347623398E+02  0.35851355892E+02  0.00000000000E+00 0. -1.
        -11    1    4    4    0    0 -0.80873600755E+02 -0.56645998585E+02 -0.28090453042E+02  0.10265662184E+03  0.00000000000E+00 0.  1.
         11    1    4    4    0    0 -0.49040726443E+02 -0.55386277674E+02  0.55893398766E+02  0.92718415810E+02  0.00000000000E+00 0. -1.
         -2    1    1    2    0  502  0.81740580937E+02  0.12827427963E+03  0.43397220325E+03  0.45985615858E+03  0.00000000000E+00 0.  1.
<scales pt_clust_5="13000.00000" pt_clust_6="13000.00000" pt_clust_7="13000.00000" pt_clust_8="13000.00000" pt_clust_9="166.60854"></scales>
<clustering>
<clus scale="   81.902">  5  6 -1 -1</clus>
<clus scale="   89.272">  7  8 -1 -1</clus>
<clus scale="   96.397">  1  5  2 -1</clus>
<clus scale="  166.609">  2  9  1 -1</clus>
<clus scale="  166.609">  2  5  1 -1</clus>
</clustering>
</event>
<event>
 9    2  0.5615294E-005  0.9293461E+02  0.7546771E-02  0.1302506E+00
         21   -1    0    0  501  502  0.00000000000E+00  0.00000000000E+00  0.54920076143E+02  0.54920076143E+02  0.00000000000E+00 0.  1.
          2   -1    0    0  502    0 -0.00000000000E+00 -0.00000000000E+00 -0.40704000073E+03  0.40704000073E+03  0.00000000000E+00 0. -1.
         24    2    1    2    0    0 -0.13632282139E+02  0.22719049250E+02 -0.89824993666E+02  0.12329641064E+03  0.80196515354E+02 0.  0.
         23    2    1    2    0    0  0.24924505113E+02  0.55352223922E+02 -0.67789486620E+02  0.12877082248E+03  0.91112077016E+02 0.  0.
        -13    1    3    3    0    0  0.73169416322E+01  0.43670294061E+02 -0.22343152439E+02  0.49596861586E+02  0.00000000000E+00 0.  1.
         14    1    3    3    0    0 -0.20949223771E+02 -0.20951244811E+02 -0.67481841227E+02  0.73699549056E+02  0.00000000000E+00 0. -1.
        -13    1    4    4    0    0  0.39210832964E+02 -0.76259385232E-01  0.10722389513E+01  0.39225564796E+02  0.00000000000E+00 0.  1.
         13    1    4    4    0    0 -0.14286327851E+02  0.55428483308E+02 -0.68861725571E+02  0.89545257685E+02  0.00000000000E+00 0. -1.
          1    1    1    2  501    0 -0.11292222974E+02 -0.78071273173E+02 -0.19450544430E+03  0.20989284375E+03  0.00000000000E+00 0. -1.
<scales pt_clust_5="13000.00000" pt_clust_6="13000.00000" pt_clust_7="13000.00000" pt_clust_8="13000.00000" pt_clust_9="78.88374"></scales>
<clustering>
<clus scale="   78.884">  1  9  2 -1</clus>
<clus scale="   80.197">  5  6 -1 -1</clus>
<clus scale="   82.261">  2  5  1 -1</clus>
<clus scale="   91.112">  7  8 -1 -1</clus>
<clus scale="   78.884">  1  5  2 -1</clus>
</clustering>
</event>
<event>
 9    2  0.5615294E-005  0.1204314E+03  0.7546771E-02  0.1244601E+00
          2   -1    0    0  502    0 -0.00000000000E+00  0.00000000000E+00  0.13092989521E+04  0.13092989521E+04  0.00000000000E+00 0. -1.
         21   -1    0    0  501  502  0.00000000000E+00 -0.00000000000E+00 -0.88310123994E+02  0.88310123994E+02  0.00000000000E+00 0. -1.
         24    2    1    2    0    0 -0.13916216186E+02 -0.85256755300E+02  0.12153097595E+04  0.12210558415E+04  0.80852835965E+02 0.  0.
         23    2    1    2    0    0 -0.30703667593E+02  0.30706467055E+02  0.28711406464E+02  0.10241042265E+03  0.88192672506E+02 0.  0.
        -13    1    3    3    0    0  0.16520607137E+02 -0.40978506916E+02  0.22543929712E+03  0.22972819847E+03  0.00000000000E+00 0.  1.
         14    1    3    3    0    0 -0.30436823323E+02 -0.44278248383E+02  0.98987046239E+03  0.99132764302E+03  0.00000000000E+00 0. -1.
        -13    1    4    4    0    0 -0.57784413962E+02  0.20120489943E+02 -0.50761673051E+00  0.61189298797E+02  0.00000000000E+00 0. -1.
         13    1    4    4    0    0  0.27080746369E+02  0.10585977112E+02  0.29219023195E+02  0.41221123854E+02  0.00000000000E+00 0.  1.
          1    1    1    2  501    0  0.44619883780E+02  0.54550288245E+02 -0.23032337871E+02  0.74142811950E+02  0.00000000000E+00 0. -1.
<scales pt_clust_5="13000.00000" pt_clust_6="13000.00000" pt_clust_7="13000.00000" pt_clust_8="13000.00000" pt_clust_9="70.47459"></scales>
<clustering>
<clus scale="   70.475">  2  9  1 -1</clus>
<clus scale="   80.853">  5  6 -1 -1</clus>
<clus scale="   88.193">  7  8 -1 -1</clus>
<clus scale="  115.165">  1  5  2 -1</clus>
<clus scale="   70.475">  2  5  1 -1</clus>
</clustering>
</event>
<event>
 9    2  0.5615294E-005  0.2163774E+03  0.7546771E-02  0.1137512E+00
         21   -1    0    0  501  502  0.00000000000E+00  0.00000000000E+00  0.13567942833E+03  0.13567942833E+03  0.00000000000E+00 0.  1.
          4   -1    0    0  502    0 -0.00000000000E+00 -0.00000000000E+00 -0.47811318489E+03  0.47811318489E+03  0.00000000000E+00 0. -1.
         24    2    1    2    0    0 -0.21874081203E+02  0.21224632631E+03 -0.21859561173E+03  0.31576612790E+03  0.79982670627E+02 0.  0.
         23    2    1    2    0    0  0.67247613391E+02 -0.16642450823E+03 -0.11737464213E+03  0.23321774130E+03  0.91620684325E+02 0.  0.
        -13    1    3    3    0    0  0.28466479362E+02  0.99318290391E+02 -0.85539167642E+02  0.13413207094E+03  0.00000000000E+00 0.  1.
         14    1    3    3    0    0 -0.50340560566E+02  0.11292803592E+03 -0.13305644409E+03  0.18163405696E+03  0.00000000000E+00 0. -1.
        -11    1    4    4    0    0  0.56923036161E+02 -0.51596613287E+02 -0.13440430319E+02  0.77994151804E+02  0.00000000000E+00 0.  1.
         11    1    4    4    0    0  0.10324577230E+02 -0.11482789494E+03 -0.10393421181E+03  0.15522358949E+03  0.00000000000E+00 0. -1.
          3    1    1    2  501    0 -0.45373532187E+02 -0.45821818081E+02 -0.64635027019E+01  0.64808744029E+02  0.00000000000E+00 0. -1.
<scales pt_clust_5="13000.00000" pt_clust_6="13000.00000" pt_clust_7="13000.00000" pt_clust_8="13000.00000" pt_clust_9="64.48563"></scales>
<clustering>
<clus scale="   64.486">  1  9  2 -1</clus>
<clus scale="   79.983">  5  6 -1 -1</clus>
<clus scale="   91.621">  7  8 -1 -1</clus>
<clus scale="  211.712">  2  5  1 -1</clus>
<clus scale="   64.486">  1  5  2 -1</clus>
</clustering>
</event>
<event>
 9    2  0.5615294E-005  0.1671693E+03  0.7546771E-02  0.1187781E+00
         21   -1    0    0  501  502  0.00000000000E+00  0.00000000000E+00  0.42081120180E+02  0.42081120180E+02  0.00000000000E+00 0. -1.
          2   -1    0    0  502    0 -0.00000000000E+00 -0.00000000000E+00 -0.18560523884E+04  0.18560523884E+04  0.00000000000E+00 0. -1.
         24    2    1    2    0    0 -0.81210231485E+02 -0.86688109542E+02 -0.10107429166E+04  0.10208312468E+04  0.79907828019E+02 0.  0.
         23    2    1    2    0    0  0.92854713133E+02 -0.94417820331E+02 -0.27110392119E+03  0.31508223256E+03  0.90789617468E+02 0.  0.
        -11    1    3    3    0    0 -0.63112735091E+02 -0.41446146169E+02 -0.33822453072E+03  0.34654990051E+03  0.00000000000E+00 0.  1.
         12    1    3    3    0    0 -0.18097496395E+02 -0.45241963373E+02 -0.67251838584E+03  0.67428134626E+03  0.00000000000E+00 0. -1.
        -13    1    4    4    0    0  0.23647764190E+02 -0.85629051607E+02 -0.17584010025E+03  0.19700581739E+03  0.00000000000E+00 0. -1.
         13    1    4    4    0    0  0.69206948943E+02 -0.87887687235E+01 -0.95263820948E+02  0.11807641517E+03  0.00000000000E+00 0.  1.
          1    1    1    2  501    0 -0.11644481648E+02  0.18110592987E+03 -0.53212443045E+03  0.56222002923E+03  0.00000000000E+00 0. -1.
<scales pt_clust_5="13000.00000" pt_clust_6="13000.00000" pt_clust_7="13000.00000" pt_clust_8="13000.00000" pt_clust_9="140.36684"></scales>
<clustering>
<clus scale="   79.908">  5  6 -1 -1</clus>
<clus scale="   90.790">  7  8 -1 -1</clus>
<clus scale="  143.161">  2  5  1 -1</clus>
<clus scale="  140.367">  1  9  2 -1</clus>
<clus scale="  140.367">  1  5  2 -1</clus>
</clustering>
</event>
<event>
 9    2  0.5615294E-005  0.1122340E+03  0.7546771E-02  0.1263696E+00
         -1   -1    0    0    0  501 -0.00000000000E+00  0.00000000000E+00  0.93540516754E+03  0.93540516754E+03  0.00000000000E+00 0.  1.
         21   -1    0    0  501  502  0.00000000000E+00 -0.00000000000E+00 -0.37811666417E+02  0.37811666417E+02  0.00000000000E+00 0. -1.
         23    2    1    2    0    0  0.26828341057E+02  0.41458657907E+02  0.46797777648E+03  0.47935314129E+03  0.91310758341E+02 0.  0.
         24    2    1    2    0    0 -0.53075113796E+02 -0.66057337811E+02  0.44199745449E+03  0.45582035729E+03  0.72318108147E+02 0.  0.
        -13    1    4    4    0    0 -0.40698359105E+02 -0.62175907826E+02  0.43456052731E+03  0.44086851990E+03  0.00000000000E+00 0.  1.
         14    1    4    4    0    0 -0.12376754691E+02 -0.38814299849E+01  0.74369271776E+01  0.14951837387E+02  0.00000000000E+00 0. -1.
        -11    1    3    3    0    0 -0.32637926014E+02  0.27334161981E+02  0.18109199115E+03  0.18602876090E+03  0.00000000000E+00 0. -1.
         11    1    3    3    0    0  0.59466267072E+02  0.14124495926E+02  0.28688578534E+03  0.29332438039E+03  0.00000000000E+00 0.  1.
         -2    1    1    2    0  502  0.26246772739E+02  0.24598679904E+02 -0.12381729845E+02  0.38043335371E+02  0.00000000000E+00 0.  1.
<scales pt_clust_5="13000.00000" pt_clust_6="13000.00000" pt_clust_7="13000.00000" pt_clust_8="13000.00000" pt_clust_9="35.97205"></scales>
<clustering>
<clus scale="   35.972">  2  9  1 -1</clus>
<clus scale="   72.318">  5  6 -1 -1</clus>
<clus scale="   91.311">  7  8 -1 -1</clus>
<clus scale="   97.410">  2  5  1 -1</clus>
<clus scale="   35.972">  2  5  1 -1</clus>
</clustering>
</event>
<event>
 9    2  0.5615294E-005  0.2265640E+03  0.7546771E-02  0.1129850E+00
         21   -1    0    0  501  502  0.00000000000E+00  0.00000000000E+00  0.33409743838E+03  0.33409743838E+03  0.00000000000E+00 0.  1.
          2   -1    0    0  502    0 -0.00000000000E+00 -0.00000000000E+00 -0.90952286626E+03  0.90952286626E+03  0.00000000000E+00 0. -1.
         24    2    1    2    0    0 -0.17696537811E+03  0.15849769464E+03  0.40920233209E+02  0.25424347373E+03  0.80789938707E+02 0.  0.
         23    2    1    2    0    0  0.71554600418E+02 -0.16487599209E+03  0.12706967754E+03  0.23849835841E+03  0.91818355491E+02 0.  0.
        -13    1    3    3    0    0 -0.36819651193E+02  0.80308645088E+02 -0.10928177360E+01  0.88353604569E+02  0.00000000000E+00 0.  1.
         14    1    3    3    0    0 -0.14014572691E+03  0.78189049551E+02  0.42013050945E+02  0.16588986916E+03  0.00000000000E+00 0. -1.
        -11    1    4    4    0    0  0.15615594501E+02 -0.13593340023E+03  0.10220398589E+03  0.17078463286E+03  0.00000000000E+00 0.  1.
         11    1    4    4    0    0  0.55939005917E+02 -0.28942591860E+02  0.24865691656E+02  0.67713725551E+02  0.00000000000E+00 0. -1.
          1    1    1    2  501    0  0.10541077769E+03  0.63782974505E+01 -0.74341533863E+03  0.75087847249E+03  0.00000000000E+00 0. -1.
<scales pt_clust_5="13000.00000" pt_clust_6="13000.00000" pt_clust_7="13000.00000" pt_clust_8="13000.00000" pt_clust_9="105.60363"></scales>
<clustering>
<clus scale="   80.790">  5  6 -1 -1</clus>
<clus scale="   91.818">  7  8 -1 -1</clus>
<clus scale="  105.604">  1  9  2 -1</clus>
<clus scale="  222.323">  2  5  1 -1</clus>
<clus scale="  105.604">  1  5  2 -1</clus>
</clustering>
</event>
<event>
 9    2  0.5615294E-005  0.9528303E+02  0.7546771E-02  0.1303999E+00
         21   -1    0    0  501  502  0.00000000000E+00  0.00000000000E+00  0.50898788061E+02  0.50898788061E+02  0.00000000000E+00 0. -1.
          2   -1    0    0  502    0 -0.00000000000E+00 -0.00000000000E+00 -0.62611475565E+03  0.62611475565E+03  0.00000000000E+00 0. -1.
         24    2    1    2    0    0 -0.87229172341E+01  0.14277652544E+01 -0.11100791211E+03  0.14310748754E+03  0.89882526890E+02 0.  0.
         23    2    1    2    0    0  0.52403831842E+02 -0.60222448877E+02 -0.54538542349E+02  0.11774028738E+03  0.67196858045E+02 0.  0.
        -11    1    3    3    0    0  0.37359965703E+02 -0.62910849628E+01 -0.25506802057E+02  0.45672111167E+02  0.00000000000E+00 0.  1.
         12    1    3    3    0    0 -0.46082882937E+02  0.77188502172E+01 -0.85501110053E+02  0.97435376372E+02  0.00000000000E+00 0. -1.
        -11    1    4    4    0    0  0.18127789215E+02 -0.19738671099E+02 -0.58703782808E+02  0.64531899047E+02  0.00000000000E+00 0.  1.
         11    1    4    4    0    0  0.34276042626E+02 -0.40483777778E+02  0.41652404589E+01  0.53208388337E+02  0.00000000000E+00 0. -1.
          1    1    1    2  501    0 -0.43680914608E+02  0.58794683623E+02 -0.40966951313E+03  0.41616576879E+03  0.00000000000E+00 0. -1.
<scales pt_clust_5="13000.00000" pt_clust_6="13000.00000" pt_clust_7="13000.00000" pt_clust_8="13000.00000" pt_clust_9="73.24509"></scales>
<clustering>
<clus scale="   67.197">  7  8 -1 -1</clus>
<clus scale="   73.245">  1  9  2 -1</clus>
<clus scale="   74.266">  1  7  2 -1</clus>
<clus scale="   89.883">  5  6 -1 -1</clus>
<clus scale="   73.245">  1  5  2 -1</clus>
</clustering>
</event>
<event>
 9    2  0.5615294E-005  0.9868277E+02  0.7546771E-02  0.1286560E+00
          2   -1    0    0  502    0 -0.00000000000E+00  0.00000000000E+00  0.40084825402E+03  0.40084825402E+03  0.00000000000E+00 0. -1.
         21   -1    0    0  501  502  0.00000000000E+00 -0.00000000000E+00 -0.69072607336E+02  0.69072607336E+02  0.00000000000E+00 0.  1.
         23    2    1    2    0    0 -0.95350724229E+01  0.40964004870E+02  0.33104679502E+03  0.34538854178E+03  0.89063443645E+02 0.  0.
         24    2    1    2    0    0  0.29552849037E+02 -0.38446683181E+02  0.19125369173E+02  0.97228837281E+02  0.82074044126E+02 0.  0.
        -13    1    4    4    0    0  0.46204490669E+02 -0.98497276883E+01 -0.15123940258E+02  0.49604492362E+02  0.00000000000E+00 0.  1.
         14    1    4    4    0    0 -0.16651641632E+02 -0.28596955493E+02  0.34249309431E+02  0.47624344919E+02  0.00000000000E+00 0. -1.
        -11    1    3    3    0    0  0.13386985454E+02 -0.23931154578E+02  0.13083105818E+03  0.13367377201E+03  0.00000000000E+00 0.  1.
         11    1    3    3    0    0 -0.22922057877E+02  0.64895159448E+02  0.20021573684E+03  0.21171476976E+03  0.00000000000E+00 0. -1.
          1    1    1    2  501    0 -0.20017776614E+02 -0.25173216888E+01 -0.18396517512E+02  0.27303482299E+02  0.00000000000E+00 0. -1.
<scales pt_clust_5="13000.00000" pt_clust_6="13000.00000" pt_clust_7="13000.00000" pt_clust_8="13000.00000" pt_clust_9="20.17544"></scales>
<clustering>
<clus scale="   20.175">  2  9  1 -1</clus>
<clus scale="   82.074">  5  6 -1 -1</clus>
<clus scale="   89.063">  7  8 -1 -1</clus>
<clus scale="   92.424">  2  5  1 -1</clus>
<clus scale="   20.175">  2  5  1 -1</clus>
</clustering>
</event>
<event>
 9    2  0.5615294E-005  0.9948381E+02  0.7546771E-02  0.1286341E+00
         21   -1    0    0  501  502  0.00000000000E+00  0.00000000000E+00  0.39469550394E+03  0.39469550394E+03  0.00000000000E+00 0.  1.
          4   -1    0    0  502    0 -0.00000000000E+00 -0.00000000000E+00 -0.35212292539E+02  0.35212292539E+02  0.00000000000E+00 0. -1.
         23    2    1    2    0    0 -0.53137199414E+02 -0.81310894940E+01  0.11063721662E+03  0.15262792445E+03  0.90360461733E+02 0.  0.
         24    2    1    2    0    0  0.22480329982E+02 -0.62441307248E+01  0.20793104650E+03  0.22417127015E+03  0.80455477493E+02 0.  0.
        -13    1    4    4    0    0  0.28252860580E+02 -0.31314662356E+02  0.18487582970E+03  0.18962569608E+03  0.00000000000E+00 0.  1.
         14    1    4    4    0    0 -0.57725305974E+01  0.25070531632E+02  0.23055216800E+02  0.34545574065E+02  0.00000000000E+00 0. -1.
        -13    1    3    3    0    0  0.11508897757E+02  0.28294042223E+02  0.38442312752E+02  0.49100091269E+02  0.00000000000E+00 0.  1.
         13    1    3    3    0    0 -0.64646097171E+02 -0.36425131717E+02  0.72194903865E+02  0.10352783319E+03  0.00000000000E+00 0. -1.
          3    1    1    2  501    0  0.30656869432E+02  0.14375220219E+02  0.40914948287E+02  0.53108601874E+02  0.00000000000E+00 0. -1.
<scales pt_clust_5="13000.00000" pt_clust_6="13000.00000" pt_clust_7="13000.00000" pt_clust_8="13000.00000" pt_clust_9="33.85988"></scales>
<clustering>
<clus scale="   33.860">  1  9  2 -1</clus>
<clus scale="   80.455">  5  6 -1 -1</clus>
<clus scale="   90.360">  7  8 -1 -1</clus>
<clus scale="   90.582">  1  5  2 -1</clus>
<clus scale="   33.860">  1  5  2 -1</clus>
</clustering>
</event>
<event>
 9    2  0.5615294E-005  0.1133340E+03  0.7546771E-02  0.1258276E+00
         21   -1    0    0  501  502  0.00000000000E+00  0.00000000000E+00  0.58031657797E+02  0.58031657797E+02  0.00000000000E+00 0.  1.
          2   -1    0    0  502    0 -0.00000000000E+00 -0.00000000000E+00 -0.66405118364E+03  0.66405118364E+03  0.00000000000E+00 0. -1.
         24    2    1    2    0    0 -0.34703463638E+02 -0.54273752077E+02 -0.51907547153E+03  0.52917070098E+03  0.80201714957E+02 0.  0.
         23    2    1    2    0    0  0.43895454750E+02  0.89943423508E+02 -0.62915205328E+02  0.14893255719E+03  0.90586716191E+02 0.  0.
        -11    1    3    3    0    0 -0.33186999628E+02 -0.10436902816E+02 -0.72166434771E+02  0.80114294557E+02  0.00000000000E+00 0.  1.
         12    1    3    3    0    0 -0.15164640093E+01 -0.43836849261E+02 -0.44690903675E+03  0.44905640642E+03  0.00000000000E+00 0. -1.
        -13    1    4    4    0    0  0.97646454637E+01  0.94163784235E+02 -0.64421338185E+02  0.11450884410E+03  0.00000000000E+00 0.  1.
         13    1    4    4    0    0  0.34130809286E+02 -0.42203607272E+01  0.15061328571E+01  0.34423713097E+02  0.00000000000E+00 0. -1.
          1    1    1    2  501    0 -0.91919911119E+01 -0.35669671431E+02 -0.24028848994E+02  0.43979583269E+02  0.00000000000E+00 0. -1.
<scales pt_clust_5="13000.00000" pt_clust_6="13000.00000" pt_clust_7="13000.00000" pt_clust_8="13000.00000" pt_clust_9="36.83501"></scales>
<clustering>
<clus scale="   36.835">  1  9  2 -1</clus>
<clus scale="   80.202">  5  6 -1 -1</clus>
<clus scale="   90.587">  7  8 -1 -1</clus>
<clus scale="  105.219">  2  5  1 -1</clus>
<clus scale="   36.835">  1  5  2 -1</clus>
</clustering>
</event>
<event>
 9    2  0.5615294E-005  0.1311476E+03  0.7546771E-02  0.1246802E+00
          2   -1    0    0  502    0 -0.00000000000E+00  0.00000000000E+00  0.10060440972E+04  0.10060440972E+04  0.00000000000E+00 0. -1.
         21   -1    0    0  501  502  0.00000000000E+00 -0.00000000000E+00 -0.33109120289E+02  0.33109120289E+02  0.00000000000E+00 0. -1.
         24    2    1    2    0    0 -0.24912866904E+02  0.96561316114E+01  0.12283688969E+03  0.14955864326E+03  0.81024653592E+02 0.  0.
         23    2    1    2    0    0 -0.77739865367E+02  0.35214490275E+02  0.25620215977E+03  0.28522438238E+03  0.91814239859E+02 0.  0.
        -13    1    3    3    0    0 -0.29350756555E+01 -0.24481328724E+02  0.53173545411E+01  0.25223488746E+02  0.00000000000E+00 0.  1.
         14    1    3    3    0    0 -0.21977791248E+02  0.34137460336E+02  0.11751953515E+03  0.12433515451E+03  0.00000000000E+00 0. -1.
        -11    1    4    4    0    0 -0.20770808012E+02 -0.85977939300E+00  0.51467421644E+00  0.20794965151E+02  0.00000000000E+00 0.  1.
         11    1    4    4    0    0 -0.56969057355E+02  0.36074269668E+02  0.25568748555E+03  0.26442941723E+03  0.00000000000E+00 0. -1.
          1    1    1    2  501    0  0.10265273227E+03 -0.44870621887E+02  0.59389592743E+03  0.60437019183E+03  0.00000000000E+00 0. -1.
<scales pt_clust_5="13000.00000" pt_clust_6="13000.00000" pt_clust_7="13000.00000" pt_clust_8="13000.00000" pt_clust_9="93.64745"></scales>
<clustering>
<clus scale="   81.025">  5  6 -1 -1</clus>
<clus scale="   85.316">  1  5  2 -1</clus>
<clus scale="   91.814">  7  8 -1 -1</clus>
<clus scale="   93.647">  2  9  1 -1</clus>
<clus scale="   93.647">  2  5  1 -1</clus>
</clustering>
</event>
<event>
 9    2  0.5615294E-005  0.1085270E+03  0.7546771E-02  0.1268028E+00
         21   -1    0    0  501  502  0.00000000000E+00  0.00000000000E+00  0.76699136070E+02  0.76699136070E+02  0.00000000000E+00 0.  1.
          2   -1    0    0  502    0 -0.00000000000E+00 -0.00000000000E+00 -0.37195749474E+03  0.37195749474E+03  0.00000000000E+00 0. -1.
         24    2    1    2    0    0 -0.55263176706E+02  0.10147241100E+02 -0.27312112611E+03  0.29039115939E+03  0.81085699890E+02 0.  0.
         23    2    1    2    0    0  0.51437674054E+02 -0.42391061284E+02 -0.40508165894E+02  0.12095877494E+03  0.92451486418E+02 0.  0.
        -11    1    3    3    0    0 -0.65837759640E+02  0.16890407684E+01 -0.12180140819E+03  0.13846677035E+03  0.00000000000E+00 0.  1.
         12    1    3    3    0    0  0.10574582934E+02  0.84582003313E+01 -0.15131971791E+03  0.15192438904E+03  0.00000000000E+00 0. -1.
        -13    1    4    4    0    0  0.10225701382E+02 -0.65381381763E+02 -0.29756746536E+02  0.72558624673E+02  0.00000000000E+00 0.  1.
         13    1    4    4    0    0  0.41211972672E+02  0.22990320479E+02 -0.10751419358E+02  0.48400150263E+02  0.00000000000E+00 0. -1.
          1    1    1    2  501    0  0.38255026516E+01  0.32243820184E+02  0.18370933333E+02  0.37306696478E+02  0.00000000000E+00 0. -1.
<scales pt_clust_5="13000.00000" pt_clust_6="13000.00000" pt_clust_7="13000.00000" pt_clust_8="13000.00000" pt_clust_9="32.46996"></scales>
<clustering>
<clus scale="   32.470">  1  9  2 -1</clus>
<clus scale="   81.086">  5  6 -1 -1</clus>
<clus scale="   92.451">  7  8 -1 -1</clus>
<clus scale="   99.024">  2  5  1 -1</clus>
<clus scale="   32.470">  1  5  2 -1</clus>
</clustering>
</event>
<event>
 9    2  0.5615294E-005  0.2105007E+03  0.7546771E-02  0.1141557E+00
         21   -1    0    0  501  502  0.00000000000E+00  0.00000000000E+00  0.26450135894E+03  0.26450135894E+03  0.00000000000E+00 0. -1.
          2   -1    0    0  502    0 -0.00000000000E+00 -0.00000000000E+00 -0.53529742986E+03  0.53529742986E+03  0.00000000000E+00 0. -1.
         24    2    1    2    0    0  0.17046329233E+03 -0.95462604993E+02 -0.38776266518E+03  0.44222750684E+03  0.83871570382E+02 0.  0.
         23    2    1    2    0    0 -0.11487945733E+03  0.10894455619E+03  0.19138163800E+03  0.26371541131E+03  0.88615352835E+02 0.  0.
        -13    1    3    3    0    0  0.83755919242E+02 -0.10850668266E+02 -0.10606110613E+03  0.13557930979E+03  0.00000000000E+00 0.  1.
         14    1    3    3    0    0  0.86707373084E+02 -0.84611936727E+02 -0.28170155905E+03  0.30664819705E+03  0.00000000000E+00 0. -1.
        -11    1    4    4    0    0 -0.12566488350E+03  0.84357105177E+02  0.17821212653E+03  0.23381049203E+03  0.00000000000E+00 0. -1.
         11    1    4    4    0    0  0.10785426172E+02  0.24587451009E+02  0.13169511470E+02  0.29904919281E+02  0.00000000000E+00 0.  1.
          1    1    1    2  501    0 -0.55583835000E+02 -0.13481951193E+02 -0.74415043749E+02  0.93855870660E+02  0.00000000000E+00 0. -1.
<scales pt_clust_5="13000.00000" pt_clust_6="13000.00000" pt_clust_7="13000.00000" pt_clust_8="13000.00000" pt_clust_9="57.19553"></scales>
<clustering>
<clus scale="   57.196">  1  9  2 -1</clus>
<clus scale="   83.872">  5  6 -1 -1</clus>
<clus scale="   88.615">  7  8 -1 -1</clus>
<clus scale="  208.548">  2  5  1 -1</clus>
<clus scale="   57.196">  1  5  2 -1</clus>
</clustering>
</event>
<event>
 9    2  0.5615294E-005  0.1064950E+03  0.7546771E-02  0.1270838E+00
          2   -1    0    0  502    0 -0.00000000000E+00  0.00000000000E+00  0.20694104646E+03  0.20694104646E+03  0.00000000000E+00 0. -1.
         21   -1    0    0  501  502  0.00000000000E+00 -0.00000000000E+00 -0.12234364214E+03  0.12234364214E+03  0.00000000000E+00 0. -1.
         24    2    1    2    0    0  0.32006233211E+02 -0.56569353701E+02  0.15356806521E+03  0.18410073519E+03  0.78009225742E+02 0.  0.
         23    2    1    2    0    0 -0.19222009687E+02  0.33673711107E+02 -0.71081569930E+02  0.11887610748E+03  0.87037548624E+02 0.  0.
        -11    1    3    3    0    0 -0.76793022632E+01 -0.23898109220E+02  0.33415771742E+01  0.25323061536E+02  0.00000000000E+00 0.  1.
         12    1    3    3    0    0  0.39685535474E+02 -0.32671244481E+02  0.15022648804E+03  0.15877767365E+03  0.00000000000E+00 0. -1.
        -13    1    4    4    0    0 -0.26486472403E+02  0.11437937258E+02 -0.86282787627E+02  0.90978453877E+02  0.00000000000E+00 0. -1.
         13    1    4    4    0    0  0.72644627170E+01  0.22235773849E+02  0.15201217698E+02  0.27897653606E+02  0.00000000000E+00 0.  1.
          1    1    1    2  501    0 -0.12784223524E+02  0.22895642594E+02  0.21109090361E+01  0.26307845937E+02  0.00000000000E+00 0. -1.
<scales pt_clust_5="13000.00000" pt_clust_6="13000.00000" pt_clust_7="13000.00000" pt_clust_8="13000.00000" pt_clust_9="26.22302"></scales>
<clustering>
<clus scale="   26.223">  2  9  1 -1</clus>
<clus scale="   78.009">  5  6 -1 -1</clus>
<clus scale="   87.038">  7  8 -1 -1</clus>
<clus scale="   99.253">  1  5  2 -1</clus>
<clus scale="   26.223">  2  5  1 -1</clus>
</clustering>
</event>
<event>
 9    2  0.5615294E-005  0.1354918E+03  0.7546771E-02  0.1222310E+00
          2   -1    0    0  502    0 -0.00000000000E+00  0.00000000000E+00  0.22557272073E+03  0.22557272073E+03  0.00000000000E+00 0. -1.
         21   -1    0    0  501  502  0.00000000000E+00 -0.00000000000E+00 -0.13356364851E+03  0.13356364851E+03  0.00000000000E+00 0. -1.
         24    2    1    2    0    0 -0.10301387567E+03 -0.33742901024E+02  0.11222729168E+03  0.17500835230E+03  0.79262326656E+02 0.  0.
         23    2    1    2    0    0  0.72457809539E+02  0.20878421334E+02 -0.59765476481E+02  0.13252226578E+03  0.91127362011E+02 0.  0.
        -11    1    3    3    0    0 -0.90716536152E+01  0.21592551796E+02  0.97152669139E+01  0.25355859354E+02  0.00000000000E+00 0.  1.
         12    1    3    3    0    0 -0.93942222054E+02 -0.55335452820E+02  0.10251202477E+03  0.14965249295E+03  0.00000000000E+00 0. -1.
        -11    1    4    4    0    0  0.46000533452E+02 -0.14310831975E+02 -0.72179465810E+02  0.86779745761E+02  0.00000000000E+00 0. -1.
         11    1    4    4    0    0  0.26457276087E+02  0.35189253309E+02  0.12413989329E+02  0.45742520016E+02  0.00000000000E+00 0.  1.
          1    1    1    2  501    0  0.30556066130E+02  0.12864479690E+02  0.39547257016E+02  0.51605751158E+02  0.00000000000E+00 0. -1.
<scales pt_clust_5="13000.00000" pt_clust_6="13000.00000" pt_clust_7="13000.00000" pt_clust_8="13000.00000" pt_clust_9="33.15372"></scales>
<clustering>
<clus scale="   33.154">  2  9  1 -1</clus>
<clus scale="   79.262">  5  6 -1 -1</clus>
<clus scale="   91.127">  7  8 -1 -1</clus>
<clus scale="  127.814">  1  5  2 -1</clus>
<clus scale="   33.154">  2  5  1 -1</clus>
</clustering>
</event>
<event>
 9    2  0.5615294E-005  0.1092116E+03  0.7546771E-02  0.1265640E+00
          2   -1    0    0  502    0 -0.00000000000E+00  0.00000000000E+00  0.17704672208E+03  0.17704672208E+03  0.00000000000E+00 0. -1.
         21   -1    0    0  501  502  0.00000000000E+00 -0.00000000000E+00 -0.30492096698E+03  0.30492096698E+03  0.00000000000E+00 0. -1.
         23    2    1    2    0    0 -0.59006208320E+02 -0.89345161144E+01  0.13545336163E+03  0.17313446414E+03  0.89812979556E+02 0.  0.
         24    2    1    2    0    0  0.93125010565E+02  0.12801215081E+02 -0.22864055145E+03  0.26002507175E+03  0.80625042437E+02 0.  0.
        -11    1    4    4    0    0 -0.62240446404E+01  0.20362876490E+02 -0.65404936856E+02  0.68783655295E+02  0.00000000000E+00 0.  1.
         12    1    4    4    0    0  0.99349055206E+02 -0.75616614090E+01 -0.16323561460E+03  0.19124141645E+03  0.00000000000E+00 0. -1.
        -11    1    3    3    0    0 -0.14067396874E+02  0.34824237096E+02  0.83971636954E+02  0.91988341418E+02  0.00000000000E+00 0.  1.
         11    1    3    3    0    0 -0.44938811446E+02 -0.43758753210E+02  0.51481724673E+02  0.81146122717E+02  0.00000000000E+00 0. -1.
          1    1    1    2  501    0 -0.34118802246E+02 -0.38666989669E+01 -0.34687055069E+02  0.48808153181E+02  0.00000000000E+00 0. -1.
<scales pt_clust_5="13000.00000" pt_clust_6="13000.00000" pt_clust_7="13000.00000" pt_clust_8="13000.00000" pt_clust_9="34.33721"></scales>
<clustering>
<clus scale="   34.337">  2  9  1 -1</clus>
<clus scale="   80.625">  5  6 -1 -1</clus>
<clus scale="   89.813">  7  8 -1 -1</clus>
<clus scale="  101.790">  2  5  1 -1</clus>
<clus scale="   34.337">  2  5  1 -1</clus>
</clustering>
</event>
<event>
 9    2  0.5615294E-005  0.1079064E+03  0.7546771E-02  0.1268910E+00
          2   -1    0    0  502    0 -0.00000000000E+00  0.00000000000E+00  0.36608087097E+03  0.36608087097E+03  0.00000000000E+00 0. -1.
         21   -1    0    0  501  502  0.00000000000E+00 -0.00000000000E+00 -0.11103388690E+03  0.11103388690E+03  0.00000000000E+00 0. -1.
         23    2    1    2    0    0 -0.18963197169E+02  0.65502672713E+02  0.26271431437E+03  0.28657399509E+03  0.91954557845E+02 0.  0.
         24    2    1    2    0    0  0.22004356265E+02  0.20620069871E+02 -0.43678750776E+02  0.97142701543E+02  0.81360261907E+02 0.  0.
        -11    1    4    4    0    0  0.13435232164E+02 -0.30956654409E+02 -0.11033979986E+02  0.35504487461E+02  0.00000000000E+00 0.  1.
         12    1    4    4    0    0  0.85691241009E+01  0.51576724280E+02 -0.32644770790E+02  0.61638214082E+02  0.00000000000E+00 0. -1.
        -11    1    3    3    0    0 -0.47115415585E+02  0.63495729104E+02  0.14125080518E+03  0.16187451919E+03  0.00000000000E+00 0.  1.
         11    1    3    3    0    0  0.28152218416E+02  0.20069436091E+01  0.12146350919E+03  0.12469947590E+03  0.00000000000E+00 0. -1.
          1    1    1    2  501    0 -0.30411590957E+01 -0.86122742584E+02  0.36011420478E+02  0.93398061242E+02  0.00000000000E+00 0. -1.
<scales pt_clust_5="13000.00000" pt_clust_6="13000.00000" pt_clust_7="13000.00000" pt_clust_8="13000.00000" pt_clust_9="86.17642"></scales>
<clustering>
<clus scale="   81.360">  5  6 -1 -1</clus>
<clus scale="   86.176">  2  9  1 -1</clus>
<clus scale="   91.955">  7  8 -1 -1</clus>
<clus scale="   99.034">  2  5  1 -1</clus>
<clus scale="   86.176">  2  5  1 -1</clus>
</clustering>
</event>
<event>
 9    2  0.5615294E-005  0.9865629E+02  0.7546771E-02  0.1287181E+00
          2   -1    0    0  502    0 -0.00000000000E+00  0.00000000000E+00  0.23338589101E+03  0.23338589101E+03  0.00000000000E+00 0. -1.
         21   -1    0    0  501  502  0.00000000000E+00 -0.00000000000E+00 -0.58423029799E+02  0.58423029799E+02  0.00000000000E+00 0.  1.
         24    2    1    2    0    0 -0.23185013156E+02  0.24796484438E+02  0.11363016808E+03  0.14418776250E+03  0.82011494814E+02 0.  0.
         23    2    1    2    0    0  0.28153161187E+02 -0.49782392362E+02  0.38387563202E+02  0.11333621880E+03  0.90003368876E+02 0.  0.
        -13    1    3    3    0    0 -0.40420130849E+01  0.51166339092E+02  0.91126830004E+02  0.10458695556E+03  0.00000000000E+00 0.  1.
         14    1    3    3    0    0 -0.19143000071E+02 -0.26369854654E+02  0.22503338079E+02  0.39600806948E+02  0.00000000000E+00 0. -1.
        -13    1    4    4    0    0  0.32374738081E+02 -0.73971062336E+02  0.21577108563E+02  0.83578785244E+02  0.00000000000E+00 0.  1.
         13    1    4    4    0    0 -0.42215768936E+01  0.24188669974E+02  0.16810454639E+02  0.29757433555E+02  0.00000000000E+00 0. -1.
          1    1    1    2  501    0 -0.49681480309E+01  0.24985907924E+02  0.22945129924E+02  0.34284939505E+02  0.00000000000E+00 0. -1.
<scales pt_clust_5="13000.00000" pt_clust_6="13000.00000" pt_clust_7="13000.00000" pt_clust_8="13000.00000" pt_clust_9="25.47506"></scales>
<clustering>
<clus scale="   25.475">  2  9  1 -1</clus>
<clus scale="   82.011">  5  6 -1 -1</clus>
<clus scale="   90.003">  7  8 -1 -1</clus>
<clus scale="   91.424">  1  5  2 -1</clus>
<clus scale="   25.475">  2  5  1 -1</clus>
</clustering>
</event>
<event>
 9    2  0.5615294E-005  0.1196838E+03  0.7546771E-02  0.1249171E+00
         21   -1    0    0  501  502  0.00000000000E+00  0.00000000000E+00  0.35606429725E+02  0.35606429725E+02  0.00000000000E+00 0.  1.
          2   -1    0    0  502    0 -0.00000000000E+00 -0.00000000000E+00 -0.71114053210E+03  0.71114053210E+03  0.00000000000E+00 0. -1.
         24    2    1    2    0    0 -0.23066387815E+02  0.78573088089E+02 -0.46111443521E+03  0.47457763440E+03  0.76756890905E+02 0.  0.
         23    2    1    2    0    0  0.26364823978E+02 -0.54822145443E+02 -0.22075690138E+03  0.24736716027E+03  0.93575268634E+02 0.  0.
        -13    1    3    3    0    0 -0.39954672903E+02  0.76651418976E+02 -0.28965444261E+03  0.30227721059E+03  0.00000000000E+00 0.  1.
         14    1    3    3    0    0  0.16888285088E+02  0.19216691133E+01 -0.17145999260E+03  0.17230042382E+03  0.00000000000E+00 0. -1.
        -11    1    4    4    0    0  0.28472213895E+02  0.14897963203E+02 -0.12395582705E+03  0.12805336127E+03  0.00000000000E+00 0. -1.
         11    1    4    4    0    0 -0.21073899170E+01 -0.69720108646E+02 -0.96801074327E+02  0.11931379900E+03  0.00000000000E+00 0.  1.
          1    1    1    2  501    0 -0.32984361628E+01 -0.23750942646E+02  0.63372342147E+01  0.24802167147E+02  0.00000000000E+00 0. -1.
<scales pt_clust_5="13000.00000" pt_clust_6="13000.00000" pt_clust_7="13000.00000" pt_clust_8="13000.00000" pt_clust_9="23.97889"></scales>
<clustering>
<clus scale="   23.979">  1  9  2 -1</clus>
<clus scale="   76.757">  5  6 -1 -1</clus>
<clus scale="   93.575">  7  8 -1 -1</clus>
<clus scale="  107.049">  2  5  1 -1</clus>
<clus scale="   23.979">  1  5  2 -1</clus>
</clustering>
</event>
<event>
 9    2  0.5615294E-005  0.1841091E+03  0.7546771E-02  0.1163884E+00
          2   -1    0    0  502    0 -0.00000000000E+00  0.00000000000E+00  0.53079134370E+03  0.53079134370E+03  0.00000000000E+00 0. -1.
         21   -1    0    0  501  502  0.00000000000E+00 -0.00000000000E+00 -0.43167990102E+02  0.43167990102E+02  0.00000000000E+00 0. -1.
         24    2    1    2    0    0 -0.51595183789E+02  0.44575167448E+02  0.10828854060E+03  0.14331190496E+03  0.64520427274E+02 0.  0.
         23    2    1    2    0    0 -0.21899320012E+02  0.19061926862E+02  0.98993352200E+02  0.13392793756E+03  0.85405335940E+02 0.  0.
        -13    1    3    3    0    0 -0.28002910152E+02 -0.13295791946E+02  0.30003079536E+02  0.43140767750E+02  0.00000000000E+00 0.  1.
         14    1    3    3    0    0 -0.23592273637E+02  0.57870959394E+02  0.78285461065E+02  0.10017113721E+03  0.00000000000E+00 0. -1.
        -11    1    4    4    0    0 -0.29746326885E+02 -0.21429583830E+02  0.81036354916E+02  0.88943587989E+02  0.00000000000E+00 0. -1.
         11    1    4    4    0    0  0.78470068727E+01  0.40491510692E+02  0.17956997284E+02  0.44984349573E+02  0.00000000000E+00 0.  1.
          1    1    1    2  501    0  0.73494503801E+02 -0.63637094310E+02  0.28034146080E+03  0.29671949127E+03  0.00000000000E+00 0. -1.
<scales pt_clust_5="13000.00000" pt_clust_6="13000.00000" pt_clust_7="13000.00000" pt_clust_8="13000.00000" pt_clust_9="97.21693"></scales>
<clustering>
<clus scale="   64.520">  5  6 -1 -1</clus>
<clus scale="   85.405">  7  8 -1 -1</clus>
<clus scale="   86.609">  5  7 -1 -1</clus>
<clus scale="   97.217">  2  9  1 -1</clus>
<clus scale="   97.217">  2  5  1 -1</clus>
</clustering>
</event>
<event>
 9    2  0.5615294E-005  0.1399065E+03  0.7546771E-02  0.1225216E+00
          2   -1    0    0  502    0 -0.00000000000E+00  0.00000000000E+00  0.80814022379E+03  0.80814022379E+03  0.00000000000E+00 0. -1.
         21   -1    0    0  501  502  0.00000000000E+00 -0.00000000000E+00 -0.43179136638E+02  0.43179136638E+02  0.00000000000E+00 0.  1.
         24    2    1    2    0    0  0.51730435308E+02 -0.59914915461E+02  0.16498133041E+03  0.19788101350E+03  0.75314149332E+02 0.  0.
         23    2    1    2    0    0  0.27378518193E+02 -0.54344772726E+02  0.35870897426E+03  0.37500506345E+03  0.90850051263E+02 0.  0.
        -11    1    3    3    0    0  0.21874607713E+02 -0.66949095245E+02  0.75329748124E+02  0.10312735219E+03  0.00000000000E+00 0.  1.
         12    1    3    3    0    0  0.29855827596E+02  0.70341797843E+01  0.89651582281E+02  0.94753661313E+02  0.00000000000E+00 0. -1.
        -11    1    4    4    0    0 -0.19397126818E+02 -0.20555126176E+02  0.29792208802E+02  0.41065039221E+02  0.00000000000E+00 0.  1.
         11    1    4    4    0    0  0.46775645011E+02 -0.33789646550E+02  0.32891676546E+03  0.33394002423E+03  0.00000000000E+00 0. -1.
          1    1    1    2  501    0 -0.79108953501E+02  0.11425968819E+03  0.24127078248E+03  0.27843328348E+03  0.00000000000E+00 0. -1.
<scales pt_clust_5="13000.00000" pt_clust_6="13000.00000" pt_clust_7="13000.00000" pt_clust_8="13000.00000" pt_clust_9="106.39601"></scales>
<clustering>
<clus scale="   75.314">  5  6 -1 -1</clus>
<clus scale="   90.850">  7  8 -1 -1</clus>
<clus scale="  109.261">  1  5  2 -1</clus>
<clus scale="  106.396">  2  9  1 -1</clus>
<clus scale="  106.396">  2  5  1 -1</clus>
</clustering>
</event>
<event>
 9    2  0.5615294E-005  0.1418096E+03  0.7546771E-02  0.1212753E+00
          2   -1    0    0  502    0 -0.00000000000E+00  0.00000000000E+00  0.17203580237E+03  0.17203580237E+03  0.00000000000E+00 0. -1.
         21   -1    0    0  501  502  0.00000000000E+00 -0.00000000000E+00 -0.16684157979E+03  0.16684157979E+03  0.00000000000E+00 0.  1.
         23    2    1    2    0    0 -0.36003571697E+02 -0.94013611418E+02  0.45618564042E+02  0.14297992220E+03  0.90704952781E+02 0.  0.
         24    2    1    2    0    0  0.73392235484E+02  0.10497868661E+03 -0.38677336623E+02  0.15689493338E+03  0.81933746898E+02 0.  0.
        -11    1    4    4    0    0  0.23519699219E+02  0.66057981425E+02 -0.57728738851E+02  0.90826430353E+02  0.00000000000E+00 0.  1.
         12    1    4    4    0    0  0.49872536265E+02  0.38920705185E+02  0.19051402228E+02  0.66068503028E+02  0.00000000000E+00 0. -1.
        -13    1    3    3    0    0  0.19618066409E+02  0.64079638567E+01  0.86503771996E+01  0.22377657521E+02  0.00000000000E+00 0.  1.
         13    1    3    3    0    0 -0.55621638106E+02 -0.10042157527E+03  0.36968186842E+02  0.12060226467E+03  0.00000000000E+00 0. -1.
          1    1    1    2  501    0 -0.37388663787E+02 -0.10965075192E+02 -0.17470048381E+01  0.39002526581E+02  0.00000000000E+00 0. -1.
<scales pt_clust_5="13000.00000" pt_clust_6="13000.00000" pt_clust_7="13000.00000" pt_clust_8="13000.00000" pt_clust_9="38.96338"></scales>
<clustering>
<clus scale="   38.963">  2  9  1 -1</clus>
<clus scale="   81.934">  5  6 -1 -1</clus>
<clus scale="   90.705">  7  8 -1 -1</clus>
<clus scale="  136.366">  2  5  1 -1</clus>
<clus scale="   38.963">  2  5  1 -1</clus>
</clustering>
</event>
<event>
 9    2  0.5615294E-005  0.1434533E+03  0.7546771E-02  0.1210863E+00
         21   -1    0    0  501  502  0.00000000000E+00  0.00000000000E+00  0.85950782463E+02  0.85950782463E+02  0.00000000000E+00 0.  1.
         -1   -1    0    0    0  501 -0.00000000000E+00 -0.00000000000E+00 -0.40731044621E+03  0.40731044621E+03  0.00000000000E+00 0.  1.
         24    2    1    2    0    0  0.52442006472E+02 -0.10006795121E+03 -0.12570381746E+03  0.18725406811E+03  0.80615615102E+02 0.  0.
         23    2    1    2    0    0 -0.11442093471E+03  0.47750705424E+02 -0.11931933855E+03  0.19462608423E+03  0.90939144162E+02 0.  0.
        -11    1    3    3    0    0  0.68555914649E+01 -0.80779685974E+02 -0.10721424257E+03  0.13441447322E+03  0.00000000000E+00 0.  1.
         12    1    3    3    0    0  0.45586415007E+02 -0.19288265237E+02 -0.18489574888E+02  0.52839594894E+02  0.00000000000E+00 0. -1.
        -13    1    4    4    0    0 -0.11683072919E+02 -0.21425184342E+02 -0.42125045129E+02  0.48683181326E+02  0.00000000000E+00 0. -1.
         13    1    4    4    0    0 -0.10273786179E+03  0.69175889766E+02 -0.77194293424E+02  0.14594290290E+03  0.00000000000E+00 0.  1.
         -2    1    1    2    0  502  0.61978928236E+02  0.52317245787E+02 -0.76336507739E+02  0.11138107634E+03  0.00000000000E+00 0.  1.
<scales pt_clust_5="13000.00000" pt_clust_6="13000.00000" pt_clust_7="13000.00000" pt_clust_8="13000.00000" pt_clust_9="81.10788"></scales>
<clustering>
<clus scale="   80.616">  5  6 -1 -1</clus>
<clus scale="   81.108">  1  9  2 -1</clus>
<clus scale="   90.939">  7  8 -1 -1</clus>
<clus scale="  137.142">  2  5  1 -1</clus>
<clus scale="   81.108">  1  5  2 -1</clus>
</clustering>
</event>
<event>
 9    2  0.5615294E-005  0.1137403E+03  0.7546771E-02  0.1258093E+00
         21   -1    0    0  501  502  0.00000000000E+00  0.00000000000E+00  0.23361427747E+03  0.23361427747E+03  0.00000000000E+00 0. -1.
          2   -1    0    0  502    0 -0.00000000000E+00 -0.00000000000E+00 -0.23217844458E+03  0.23217844458E+03  0.00000000000E+00 0. -1.
         24    2    1    2    0    0  0.17643199878E+02 -0.51599463070E+02 -0.10961951015E+03  0.14644909424E+03  0.80356164094E+02 0.  0.
         23    2    1    2    0    0 -0.27824454924E+02  0.91400553498E+02 -0.58401253636E+02  0.14497814123E+03  0.92085251457E+02 0.  0.
        -13    1    3    3    0    0 -0.25261267515E+02 -0.58615399805E+01 -0.81834832402E+01  0.27192989636E+02  0.00000000000E+00 0.  1.
         14    1    3    3    0    0  0.42904467392E+02 -0.45737923090E+02 -0.10143602691E+03  0.11925610461E+03  0.00000000000E+00 0. -1.
        -13    1    4    4    0    0 -0.56763929796E+02  0.45414367228E+02 -0.12315252560E+02  0.73731091965E+02  0.00000000000E+00 0.  1.
         13    1    4    4    0    0  0.28939474872E+02  0.45986186270E+02 -0.46086001075E+02  0.71247049263E+02  0.00000000000E+00 0. -1.
          1    1    1    2  501    0  0.10181255046E+02 -0.39801090428E+02  0.16945659667E+03  0.17436548658E+03  0.00000000000E+00 0. -1.
<scales pt_clust_5="13000.00000" pt_clust_6="13000.00000" pt_clust_7="13000.00000" pt_clust_8="13000.00000" pt_clust_9="41.08266"></scales>
<clustering>
<clus scale="   41.083">  1  9  2 -1</clus>
<clus scale="   80.356">  5  6 -1 -1</clus>
<clus scale="   92.085">  7  8 -1 -1</clus>
<clus scale="  104.471">  2  5  1 -1</clus>
<clus scale="   41.083">  1  5  2 -1</clus>
</clustering>
</event>
<event>
 9    2  0.5615294E-005  0.1155195E+03  0.7546771E-02  0.1253466E+00
         21   -1    0    0  501  502  0.00000000000E+00  0.00000000000E+00  0.10071057313E+03  0.10071057313E+03  0.00000000000E+00 0.  1.
          2   -1    0    0  502    0 -0.00000000000E+00 -0.00000000000E+00 -0.76549710392E+03  0.76549710392E+03  0.00000000000E+00 0. -1.
         24    2    1    2    0    0 -0.12919036389E+02  0.72783682635E+02 -0.67658836162E+03  0.68532010260E+03  0.80171478688E+02 0.  0.
         23    2    1    2    0    0 -0.36720287596E+02 -0.86368720170E+02  0.10318405329E+02  0.12940149592E+03  0.88489221456E+02 0.  0.
        -13    1    3    3    0    0  0.29315638295E+01  0.64186386316E+02 -0.24282632722E+03  0.25118342191E+03  0.00000000000E+00 0.  1.
         14    1    3    3    0    0 -0.15850600219E+02  0.85972963185E+01 -0.43376203441E+03  0.43413668069E+03  0.00000000000E+00 0. -1.
        -13    1    4    4    0    0 -0.29609803727E+01 -0.72231714656E+02  0.39692162595E+02  0.82472151532E+02  0.00000000000E+00 0.  1.
         13    1    4    4    0    0 -0.33759307224E+02 -0.14137005515E+02 -0.29373757266E+02  0.46929344392E+02  0.00000000000E+00 0. -1.
          1    1    1    2  501    0  0.49639323985E+02  0.13585037536E+02  0.14834255055E+01  0.51486078524E+02  0.00000000000E+00 0. -1.
<scales pt_clust_5="13000.00000" pt_clust_6="13000.00000" pt_clust_7="13000.00000" pt_clust_8="13000.00000" pt_clust_9="51.46470"></scales>
<clustering>
<clus scale="   51.465">  1  9  2 -1</clus>
<clus scale="   80.171">  5  6 -1 -1</clus>
<clus scale="   88.489">  7  8 -1 -1</clus>
<clus scale="  109.279">  2  5  1 -1</clus>
<clus scale="   51.465">  1  5  2 -1</clus>
</clustering>
</event>
<event>
 9    2  0.5615294E-005  0.9947367E+02  0.7546771E-02  0.1286591E+00
         21   -1    0    0  501  502  0.00000000000E+00  0.00000000000E+00  0.13428457921E+03  0.13428457921E+03  0.00000000000E+00 0.  1.
         -1   -1    0    0    0  501 -0.00000000000E+00 -0.00000000000E+00 -0.20113796306E+03  0.20113796306E+03  0.00000000000E+00 0.  1.
         24    2    1    2    0    0 -0.45522213936E+02 -0.25155544799E+02 -0.12196095140E+03  0.15594646391E+03  0.82095995916E+02 0.  0.
         23    2    1    2    0    0  0.77494286452E+01 -0.20325450524E+02 -0.53895825167E+01  0.94887607459E+02  0.92203215054E+02 0.  0.
        -11    1    3    3    0    0 -0.46291870896E+02 -0.43563566044E+02 -0.12194948472E+03  0.13752235608E+03  0.00000000000E+00 0.  1.
         12    1    3    3    0    0  0.76965695933E+00  0.18408021246E+02 -0.11466675671E-01  0.18424107835E+02  0.00000000000E+00 0. -1.
        -13    1    4    4    0    0 -0.41902862857E+02 -0.49508718793E+01 -0.75504762256E+01  0.42864562743E+02  0.00000000000E+00 0.  1.
         13    1    4    4    0    0  0.49652291502E+02 -0.15374578644E+02  0.21608937089E+01  0.52023044716E+02  0.00000000000E+00 0. -1.
         -2    1    1    2    0  502  0.37772785291E+02  0.45480995322E+02  0.60497150062E+02  0.84588470903E+02  0.00000000000E+00 0.  1.
<scales pt_clust_5="13000.00000" pt_clust_6="13000.00000" pt_clust_7="13000.00000" pt_clust_8="13000.00000" pt_clust_9="59.12110"></scales>
<clustering>
<clus scale="   59.121">  1  9  2 -1</clus>
<clus scale="   82.096">  5  6 -1 -1</clus>
<clus scale="   90.185">  2  5  1 -1</clus>
<clus scale="   92.203">  7  8 -1 -1</clus>
<clus scale="   59.121">  1  5  2 -1</clus>
</clustering>
</event>
<event>
 9    2  0.5615294E-005  0.9811709E+02  0.7546771E-02  0.1290219E+00
         21   -1    0    0  501  502  0.00000000000E+00  0.00000000000E+00  0.16356633939E+03  0.16356633939E+03  0.00000000000E+00 0.  1.
          2   -1    0    0  502    0 -0.00000000000E+00 -0.00000000000E+00 -0.26474868892E+03  0.26474868892E+03  0.00000000000E+00 0. -1.
         24    2    1    2    0    0 -0.37239957569E+02 -0.46845419004E+01 -0.23523980870E+03  0.25126704680E+03  0.79928729717E+02 0.  0.
         23    2    1    2    0    0  0.15512368642E+02  0.10472215333E+02  0.11094416911E+03  0.14480190482E+03  0.91151972574E+02 0.  0.
        -13    1    3    3    0    0 -0.36612101628E+02 -0.39110663379E+02 -0.15309127312E+03  0.16219441384E+03  0.00000000000E+00 0.  1.
         14    1    3    3    0    0 -0.62785594130E+00  0.34426121478E+02 -0.82148535586E+02  0.89072632958E+02  0.00000000000E+00 0. -1.
        -13    1    4    4    0    0  0.88107560591E+01 -0.22383483541E+02  0.10855102052E+03  0.11118441354E+03  0.00000000000E+00 0. -1.
         13    1    4    4    0    0  0.67016125825E+01  0.32855698874E+02  0.23931485891E+01  0.33617491279E+02  0.00000000000E+00 0.  1.
          1    1    1    2  501    0  0.21727588928E+02 -0.57876734329E+01  0.23113290071E+02  0.32246076696E+02  0.00000000000E+00 0. -1.
<scales pt_clust_5="13000.00000" pt_clust_6="13000.00000" pt_clust_7="13000.00000" pt_clust_8="13000.00000" pt_clust_9="22.48522"></scales>
<clustering>
<clus scale="   22.485">  1  9  2 -1</clus>
<clus scale="   79.929">  5  6 -1 -1</clus>
<clus scale="   87.789">  2  5  1 -1</clus>
<clus scale="   91.152">  7  8 -1 -1</clus>
<clus scale="   22.485">  1  5  2 -1</clus>
</clustering>
</event>
<event>
 9    2  0.5615294E-005  0.1129054E+03  0.7546771E-02  0.1258511E+00
         21   -1    0    0  501  502  0.00000000000E+00  0.00000000000E+00  0.47658075121E+02  0.47658075121E+02  0.00000000000E+00 0. -1.
          2   -1    0    0  502    0 -0.00000000000E+00 -0.00000000000E+00 -0.78311333748E+03  0.78311333748E+03  0.00000000000E+00 0. -1.
         24    2    1    2    0    0 -0.95922897421E+01 -0.82776425439E+02 -0.51925474021E+03  0.53201989030E+03  0.80471919397E+02 0.  0.
         23    2    1    2    0    0 -0.11830858898E+02 -0.12783838301E+01 -0.33065314204E+02  0.96112269818E+02  0.89457531369E+02 0.  0.
        -13    1    3    3    0    0  0.34349279498E+02 -0.39266815420E+02 -0.19131100057E+03  0.19829688534E+03  0.00000000000E+00 0.  1.
         14    1    3    3    0    0 -0.43941569240E+02 -0.43509610019E+02 -0.32794373964E+03  0.33372300496E+03  0.00000000000E+00 0. -1.
        -11    1    4    4    0    0 -0.48461990189E+02  0.89824833228E+01 -0.65014190474E+01  0.49714363612E+02  0.00000000000E+00 0.  1.
         11    1    4    4    0    0  0.36631131291E+02 -0.10260867153E+02 -0.26563895157E+02  0.46397906206E+02  0.00000000000E+00 0. -1.
          1    1    1    2  501    0  0.21423148640E+02  0.84054809269E+02 -0.18313520795E+03  0.20263925249E+03  0.00000000000E+00 0. -1.
<scales pt_clust_5="13000.00000" pt_clust_6="13000.00000" pt_clust_7="13000.00000" pt_clust_8="13000.00000" pt_clust_9="86.74197"></scales>
<clustering>
<clus scale="   80.472">  5  6 -1 -1</clus>
<clus scale="   86.742">  1  9  2 -1</clus>
<clus scale="   89.458">  7  8 -1 -1</clus>
<clus scale="  105.928">  2  5  1 -1</clus>
<clus scale="   86.742">  1  5  2 -1</clus>
</clustering>
</event>
<event>
 9    2  0.5615294E-005  0.1591328E+03  0.7546771E-02  0.1211731E+00
          4   -1    0    0  502    0 -0.00000000000E+00  0.00000000000E+00  0.49155650816E+02  0.49155650816E+02  0.00000000000E+00 0. -1.
         21   -1    0    0  501  502  0.00000000000E+00 -0.00000000000E+00 -0.11159190185E+04  0.11159190185E+04  0.00000000000E+00 0. -1.
         24    2    1    2    0    0  0.16434539124E+02 -0.55714684326E+02 -0.59019609477E+02  0.11493544495E+03  0.79703337932E+02 0.  0.
         23    2    1    2    0    0 -0.34687580638E+02 -0.96567700545E+02 -0.38376260471E+03  0.40758527474E+03  0.91233055242E+02 0.  0.
        -13    1    3    3    0    0  0.19096759972E+02 -0.32063554373E+02 -0.76692710102E+02  0.85290852635E+02  0.00000000000E+00 0.  1.
         14    1    3    3    0    0 -0.26622208485E+01 -0.23651129953E+02  0.17673100625E+02  0.29644592316E+02  0.00000000000E+00 0. -1.
        -13    1    4    4    0    0 -0.36964405302E+02 -0.11377851327E+02 -0.50554956386E+02  0.63652387036E+02  0.00000000000E+00 0.  1.
         13    1    4    4    0    0  0.22768246635E+01 -0.85189849218E+02 -0.33320764833E+03  0.34393288770E+03  0.00000000000E+00 0. -1.
          3    1    1    2  501    0  0.18253041515E+02  0.15228238487E+03 -0.62398115354E+03  0.64255394967E+03  0.00000000000E+00 0. -1.
<scales pt_clust_5="13000.00000" pt_clust_6="13000.00000" pt_clust_7="13000.00000" pt_clust_8="13000.00000" pt_clust_9="130.38316"></scales>
<clustering>
<clus scale="   79.703">  5  6 -1 -1</clus>
<clus scale="   91.233">  7  8 -1 -1</clus>
<clus scale="   98.625">  1  5  2 -1</clus>
<clus scale="  130.383">  2  9  1 -1</clus>
<clus scale="  130.383">  2  5  1 -1</clus>
</clustering>
</event>
<event>
 9    2  0.5615294E-005  0.1130985E+03  0.7546771E-02  0.1258610E+00
          2   -1    0    0  502    0 -0.00000000000E+00  0.00000000000E+00  0.21710590234E+03  0.21710590234E+03  0.00000000000E+00 0. -1.
         21   -1    0    0  501  502  0.00000000000E+00 -0.00000000000E+00 -0.10704290890E+03  0.10704290890E+03  0.00000000000E+00 0. -1.
         24    2    1    2    0    0  0.18893370886E+02 -0.69526068155E+02  0.11432443954E+03  0.15716051621E+03  0.80240368657E+02 0.  0.
         23    2    1    2    0    0  0.37150499876E+01  0.62822353994E+02  0.39733770799E+02  0.11707176882E+03  0.90369113946E+02 0.  0.
        -11    1    3    3    0    0  0.25648857647E+02 -0.44443084064E+02  0.13522348026E+02  0.53065106386E+02  0.00000000000E+00 0.  1.
         12    1    3    3    0    0 -0.67554867604E+01 -0.25082984091E+02  0.10080209151E+03  0.10409540982E+03  0.00000000000E+00 0. -1.
        -11    1    4    4    0    0 -0.20889290469E+02  0.30202714017E+01 -0.19971950487E+02  0.29057930104E+02  0.00000000000E+00 0.  1.
         11    1    4    4    0    0  0.24604340457E+02  0.59802082592E+02  0.59705721286E+02  0.88013838719E+02  0.00000000000E+00 0. -1.
          1    1    1    2  501    0 -0.22608420874E+02  0.67037141608E+01 -0.43995216902E+02  0.49916526204E+02  0.00000000000E+00 0. -1.
<scales pt_clust_5="13000.00000" pt_clust_6="13000.00000" pt_clust_7="13000.00000" pt_clust_8="13000.00000" pt_clust_9="23.58136"></scales>
<clustering>
<clus scale="   23.581">  2  9  1 -1</clus>
<clus scale="   80.240">  5  6 -1 -1</clus>
<clus scale="   90.369">  7  8 -1 -1</clus>
<clus scale="  105.182">  1  5  2 -1</clus>
<clus scale="   23.581">  2  5  1 -1</clus>
</clustering>
</event>
<event>
 9    2  0.5615294E-005  0.9892995E+02  0.7546771E-02  0.1286595E+00
          2   -1    0    0  502    0 -0.00000000000E+00  0.00000000000E+00  0.92647022111E+03  0.92647022111E+03  0.00000000000E+00 0. -1.
         21   -1    0    0  501  502  0.00000000000E+00 -0.00000000000E+00 -0.38702855487E+02  0.38702855487E+02  0.00000000000E+00 0.  1.
         24    2    1    2    0    0  0.22885829354E+02  0.44156781063E+02  0.63035428976E+03  0.63758484307E+03  0.81818818076E+02 0.  0.
         23    2    1    2    0    0  0.27330677859E+02  0.13510134416E+02  0.51593746205E+02  0.10802328369E+03  0.89875611194E+02 0.  0.
        -11    1    3    3    0    0  0.12758509141E+02 -0.19828056956E+02  0.79161996070E+02  0.82598747084E+02  0.00000000000E+00 0.  1.
         12    1    3    3    0    0  0.10127320213E+02  0.63984838019E+02  0.55119229369E+03  0.55498609599E+03  0.00000000000E+00 0. -1.
        -11    1    4    4    0    0  0.38734933600E+02  0.39849994737E+02  0.56103476155E+02  0.78968456983E+02  0.00000000000E+00 0. -1.
         11    1    4    4    0    0 -0.11404255742E+02 -0.26339860321E+02 -0.45097299502E+01  0.29054826707E+02  0.00000000000E+00 0.  1.
          1    1    1    2  501    0 -0.50216507212E+02 -0.57666915479E+02  0.20581932965E+03  0.21956494984E+03  0.00000000000E+00 0. -1.
<scales pt_clust_5="13000.00000" pt_clust_6="13000.00000" pt_clust_7="13000.00000" pt_clust_8="13000.00000" pt_clust_9="76.46683"></scales>
<clustering>
<clus scale="   76.467">  2  9  1 -1</clus>
<clus scale="   81.819">  5  6 -1 -1</clus>
<clus scale="   89.876">  7  8 -1 -1</clus>
<clus scale="   91.672">  1  5  2 -1</clus>
<clus scale="   76.467">  2  5  1 -1</clus>
</clustering>
</event>
<event>
 9    2  0.5615294E-005  0.9272259E+02  0.7546771E-02  0.1317150E+00
          2   -1    0    0  502    0 -0.00000000000E+00  0.00000000000E+00  0.25689699053E+03  0.25689699053E+03  0.00000000000E+00 0. -1.
         21   -1    0    0  501  502  0.00000000000E+00 -0.00000000000E+00 -0.77670282445E+02  0.77670282445E+02  0.00000000000E+00 0. -1.
         23    2    1    2    0    0 -0.20458578039E+02 -0.11651389380E+02  0.20534349681E+03  0.22579976838E+03  0.90913560187E+02 0.  0.
         24    2    1    2    0    0  0.99119398603E+01 -0.12290387621E+02  0.10560251978E+02  0.63715916633E+02  0.60818573897E+02 0.  0.
        -11    1    4    4    0    0  0.28142530302E+02 -0.15638042758E+02 -0.12141130099E+02  0.34408682526E+02  0.00000000000E+00 0.  1.
         12    1    4    4    0    0 -0.18230590442E+02  0.33476551374E+01  0.22701382077E+02  0.29307234107E+02  0.00000000000E+00 0. -1.
        -13    1    3    3    0    0 -0.50821896081E+02 -0.17055194860E+02  0.17297433996E+03  0.18109077027E+03  0.00000000000E+00 0. -1.
         13    1    3    3    0    0  0.30363318042E+02  0.54038054800E+01  0.32369156849E+02  0.44708998102E+02  0.00000000000E+00 0.  1.
          1    1    1    2  501    0  0.10546638179E+02  0.23941777001E+02 -0.36677040708E+02  0.45051587962E+02  0.00000000000E+00 0. -1.
<scales pt_clust_5="13000.00000" pt_clust_6="13000.00000" pt_clust_7="13000.00000" pt_clust_8="13000.00000" pt_clust_9="26.16181"></scales>
<clustering>
<clus scale="   26.162">  2  9  1 -1</clus>
<clus scale="   60.819">  5  6 -1 -1</clus>
<clus scale="   63.491">  2  5  1 -1</clus>
<clus scale="   90.914">  7  8 -1 -1</clus>
<clus scale="   26.162">  2  5  1 -1</clus>
</clustering>
</event>
<event>
 9    2  0.5615294E-005  0.1245709E+03  0.7546771E-02  0.1238974E+00
         21   -1    0    0  501  502  0.00000000000E+00  0.00000000000E+00  0.10715537678E+03  0.10715537678E+03  0.00000000000E+00 0.  1.
          2   -1    0    0  502    0 -0.00000000000E+00 -0.00000000000E+00 -0.27868671067E+03  0.27868671067E+03  0.00000000000E+00 0. -1.
         24    2    1    2    0    0  0.78955853532E+02 -0.44871440059E+02 -0.10655567037E+03  0.16132892436E+03  0.80158829882E+02 0.  0.
         23    2    1    2    0    0 -0.70970780103E+02  0.97584927314E+01  0.32543906751E+02  0.12055765792E+03  0.91339822688E+02 0.  0.
        -13    1    3    3    0    0  0.19862256453E+02 -0.43912647820E+01  0.11407116064E+02  0.23321979648E+02  0.00000000000E+00 0.  1.
         14    1    3    3    0    0  0.59093597080E+02 -0.40480175277E+02 -0.11796278643E+03  0.13800694471E+03  0.00000000000E+00 0. -1.
        -11    1    4    4    0    0 -0.10873190509E+02 -0.34690108459E+02  0.27602361748E+02  0.45645594210E+02  0.00000000000E+00 0.  1.
         11    1    4    4    0    0 -0.60097589594E+02  0.44448601191E+02  0.49415450033E+01  0.74912063714E+02  0.00000000000E+00 0. -1.
          1    1    1    2  501    0 -0.79850734290E+01  0.35112947327E+02 -0.97519570270E+02  0.10395550516E+03  0.00000000000E+00 0. -1.
<scales pt_clust_5="13000.00000" pt_clust_6="13000.00000" pt_clust_7="13000.00000" pt_clust_8="13000.00000" pt_clust_9="36.00947"></scales>
<clustering>
<clus scale="   36.009">  1  9  2 -1</clus>
<clus scale="   80.159">  5  6 -1 -1</clus>
<clus scale="   91.340">  7  8 -1 -1</clus>
<clus scale="  116.621">  2  5  1 -1</clus>
<clus scale="   36.009">  1  5  2 -1</clus>
</clustering>
</event>
<event>
 9    2  0.5615294E-005  0.8850846E+02  0.7546771E-02  0.1313640E+00
         21   -1    0    0  501  502  0.00000000000E+00  0.00000000000E+00  0.53348330958E+02  0.53348330958E+02  0.00000000000E+00 0.  1.
          2   -1    0    0  502    0 -0.00000000000E+00 -0.00000000000E+00 -0.32945750491E+03  0.32945750491E+03  0.00000000000E+00 0. -1.
         23    2    1    2    0    0 -0.26957510841E+02 -0.39466185551E+02 -0.24079897827E+03  0.25423126198E+03  0.66068899166E+02 0.  0.
         24    2    1    2    0    0 -0.58914445463E+01  0.12283332815E+02 -0.13730999978E+02  0.80787305289E+02  0.78437611843E+02 0.  0.
        -11    1    4    4    0    0  0.11074455054E+02 -0.26500377086E+02  0.12133336443E+02  0.31179021692E+02  0.00000000000E+00 0.  1.
         12    1    4    4    0    0 -0.16965899601E+02  0.38783709901E+02 -0.25864336421E+02  0.49608283597E+02  0.00000000000E+00 0. -1.
        -13    1    3    3    0    0 -0.38576055562E+02 -0.22045014215E+02 -0.22096945429E+03  0.22539209047E+03  0.00000000000E+00 0. -1.
         13    1    3    3    0    0  0.11618544721E+02 -0.17421171337E+02 -0.19829523980E+02  0.28839171512E+02  0.00000000000E+00 0.  1.
          1    1    1    2  501    0  0.32848955387E+02  0.27182852736E+02 -0.21579195696E+02  0.47787268595E+02  0.00000000000E+00 0. -1.
<scales pt_clust_5="13000.00000" pt_clust_6="13000.00000" pt_clust_7="13000.00000" pt_clust_8="13000.00000" pt_clust_9="42.63756"></scales>
<clustering>
<clus scale="   42.638">  1  9  2 -1</clus>
<clus scale="   66.069">  7  8 -1 -1</clus>
<clus scale="   77.759">  2  7  1 -1</clus>
<clus scale="   78.438">  5  6 -1 -1</clus>
<clus scale="   42.638">  1  5  2 -1</clus>
</clustering>
</event>
<event>
 9    2  0.5615294E-005  0.9462801E+02  0.7546771E-02  0.1296095E+00
         21   -1    0    0  501  502  0.00000000000E+00  0.00000000000E+00  0.30757491631E+03  0.30757491631E+03  0.00000000000E+00 0.  1.
         -3   -1    0    0    0  501 -0.00000000000E+00 -0.00000000000E+00 -0.92555519406E+02  0.92555519406E+02  0.00000000000E+00 0.  1.
         23    2    1    2    0    0 -0.23856816913E+02  0.14383731665E+01 -0.47576556400E+02  0.10672524814E+03  0.92496125542E+02 0.  0.
         24    2    1    2    0    0  0.35441756841E+01  0.51834497355E+01  0.11041940713E+03  0.13973621499E+03  0.85406878971E+02 0.  0.
        -13    1    4    4    0    0 -0.34587137521E+02 -0.37760339566E+01  0.87944128530E+02  0.94576414910E+02  0.00000000000E+00 0.  1.
         14    1    4    4    0    0  0.38131313205E+02  0.89594836921E+01  0.22475278597E+02  0.45159800075E+02  0.00000000000E+00 0. -1.
        -11    1    3    3    0    0 -0.36450718199E+02 -0.17314214491E+02  0.12740283654E+02  0.42317274348E+02  0.00000000000E+00 0. -1.
         11    1    3    3    0    0  0.12593901285E+02  0.18752587658E+02 -0.60316840054E+02  0.64407973788E+02  0.00000000000E+00 0.  1.
         -4    1    1    2    0  502  0.20312641229E+02 -0.66218229020E+01  0.15217654618E+03  0.15366897260E+03  0.00000000000E+00 0.  1.
<scales pt_clust_5="13000.00000" pt_clust_6="13000.00000" pt_clust_7="13000.00000" pt_clust_8="13000.00000" pt_clust_9="21.36474"></scales>
<clustering>
<clus scale="   21.365">  1  9  2 -1</clus>
<clus scale="   85.407">  5  6 -1 -1</clus>
<clus scale="   87.711">  1  5  2 -1</clus>
<clus scale="   92.496">  7  8 -1 -1</clus>
<clus scale="   21.365">  1  5  2 -1</clus>
</clustering>
</event>
<event>
 9    2  0.5615294E-005  0.1225222E+03  0.7546771E-02  0.1245799E+00
         -1   -1    0    0    0  501 -0.00000000000E+00  0.00000000000E+00  0.14442405918E+04  0.14442405918E+04  0.00000000000E+00 0.  1.
         21   -1    0    0  501  502  0.00000000000E+00 -0.00000000000E+00 -0.22457575590E+02  0.22457575590E+02  0.00000000000E+00 0.  1.
         23    2    1    2    0    0  0.50823550506E+01 -0.34814398041E+02  0.60272567701E+03  0.61210836365E+03  0.10079947656E+03 0.  0.
         24    2    1    2    0    0  0.19701117639E+02 -0.79835168138E+02  0.26760305270E+03  0.29079855369E+03  0.78680473457E+02 0.  0.
        -11    1    4    4    0    0 -0.70261057198E+01 -0.74559160585E+02  0.12581250965E+03  0.14641455588E+03  0.00000000000E+00 0.  1.
         12    1    4    4    0    0  0.26727223359E+02 -0.52760075527E+01  0.14179054305E+03  0.14438399781E+03  0.00000000000E+00 0. -1.
        -11    1    3    3    0    0  0.43543861872E+02  0.12806132221E+02  0.27346127494E+03  0.27720233372E+03  0.00000000000E+00 0. -1.
         11    1    3    3    0    0 -0.38461506821E+02 -0.47620530262E+02  0.32926440207E+03  0.33490602992E+03  0.00000000000E+00 0.  1.
         -2    1    1    2    0  502 -0.24783472690E+02  0.11464956618E+03  0.55145428653E+03  0.56379125009E+03  0.00000000000E+00 0.  1.
<scales pt_clust_5="13000.00000" pt_clust_6="13000.00000" pt_clust_7="13000.00000" pt_clust_8="13000.00000" pt_clust_9="93.92058"></scales>
<clustering>
<clus scale="   78.680">  5  6 -1 -1</clus>
<clus scale="  100.799">  7  8 -1 -1</clus>
<clus scale="  106.763">  1  7  2 -1</clus>
<clus scale="   93.921">  2  9  1 -1</clus>
<clus scale="   93.921">  2  5  1 -1</clus>
</clustering>
</event>
<event>
 9    2  0.5615294E-005  0.1411956E+03  0.7546771E-02  0.1215094E+00
          2   -1    0    0  502    0 -0.00000000000E+00  0.00000000000E+00  0.37007048990E+03  0.37007048990E+03  0.00000000000E+00 0. -1.
         21   -1    0    0  501  502  0.00000000000E+00 -0.00000000000E+00 -0.16848990079E+03  0.16848990079E+03  0.00000000000E+00 0.  1.
         23    2    1    2    0    0 -0.10361501717E+03  0.23525221730E+02  0.31209850821E+03  0.34232976759E+03  0.92166605200E+02 0.  0.
         24    2    1    2    0    0  0.11432712248E+03 -0.42883026051E+01 -0.81876269923E+02  0.16010373111E+03  0.76422514137E+02 0.  0.
        -13    1    4    4    0    0  0.92713909941E+02  0.28544169269E+02 -0.48104242973E+02  0.10828045478E+03  0.00000000000E+00 0.  1.
         14    1    4    4    0    0  0.21613212535E+02 -0.32832471874E+02 -0.33772026950E+02  0.51823276332E+02  0.00000000000E+00 0. -1.
        -11    1    3    3    0    0 -0.92612522568E+02 -0.18930028533E+01  0.29630286166E+03  0.31044492043E+03  0.00000000000E+00 0. -1.
         11    1    3    3    0    0 -0.11002494606E+02  0.25418224583E+02  0.15795646549E+02  0.31884847160E+02  0.00000000000E+00 0.  1.
          1    1    1    2  501    0 -0.10712105303E+02 -0.19236919125E+02 -0.28641649166E+02  0.36126891983E+02  0.00000000000E+00 0. -1.
<scales pt_clust_5="13000.00000" pt_clust_6="13000.00000" pt_clust_7="13000.00000" pt_clust_8="13000.00000" pt_clust_9="22.01836"></scales>
<clustering>
<clus scale="   22.018">  2  9  1 -1</clus>
<clus scale="   76.423">  5  6 -1 -1</clus>
<clus scale="   92.167">  7  8 -1 -1</clus>
<clus scale="  131.461">  2  5  1 -1</clus>
<clus scale="   22.018">  2  5  1 -1</clus>
</clustering>
</event>
<event>
 9    2  0.5615294E-005  0.1874336E+03  0.7546771E-02  0.1181990E+00
          2   -1    0    0  502    0 -0.00000000000E+00  0.00000000000E+00  0.27870863263E+03  0.27870863263E+03  0.00000000000E+00 0. -1.
         21   -1    0    0  501  502  0.00000000000E+00 -0.00000000000E+00 -0.33779422086E+03  0.33779422086E+03  0.00000000000E+00 0. -1.
         23    2    1    2    0    0 -0.12337636235E+02 -0.65543450577E+02  0.28992514619E+02  0.11914137075E+03  0.94371283444E+02 0.  0.
         24    2    1    2    0    0  0.17088400300E+03  0.20915915088E+02 -0.21668961280E+03  0.28838902562E+03  0.81086520580E+02 0.  0.
        -11    1    4    4    0    0  0.36292019196E+02  0.29751097566E+02 -0.22736620465E+02  0.52145875905E+02  0.00000000000E+00 0.  1.
         12    1    4    4    0    0  0.13459198381E+03 -0.88351824784E+01 -0.19395299233E+03  0.23624314972E+03  0.00000000000E+00 0. -1.
        -11    1    3    3    0    0 -0.31406744586E+02 -0.28882205617E+02  0.55530375051E+02  0.70029907611E+02  0.00000000000E+00 0. -1.
         11    1    3    3    0    0  0.19069108351E+02 -0.36661244961E+02 -0.26537860432E+02  0.49111463139E+02  0.00000000000E+00 0.  1.
          1    1    1    2  501    0 -0.15854636677E+03  0.44627535490E+02  0.12861150995E+03  0.20897245711E+03  0.00000000000E+00 0. -1.
<scales pt_clust_5="13000.00000" pt_clust_6="13000.00000" pt_clust_7="13000.00000" pt_clust_8="13000.00000" pt_clust_9="168.98628"></scales>
<clustering>
<clus scale="   81.087">  5  6 -1 -1</clus>
<clus scale="   94.371">  7  8 -1 -1</clus>
<clus scale="  115.560">  1  7  2 -1</clus>
<clus scale="  168.986">  2  9  1 -1</clus>
<clus scale="  168.986">  2  5  1 -1</clus>
</clustering>
</event>
<event>
 9    2  0.5615294E-005  0.1133415E+03  0.7546771E-02  0.1258734E+00
         21   -1    0    0  501  502  0.00000000000E+00  0.00000000000E+00  0.86350133156E+02  0.86350133156E+02  0.00000000000E+00 0.  1.
          2   -1    0    0  502    0 -0.00000000000E+00 -0.00000000000E+00 -0.24762312489E+03  0.24762312489E+03  0.00000000000E+00 0. -1.
         24    2    1    2    0    0 -0.15186144518E+02  0.56016461502E+02 -0.11832911910E+03  0.15430585090E+03  0.80249936146E+02 0.  0.
         23    2    1    2    0    0  0.53004628052E+02 -0.75244989409E+02 -0.44066228923E+02  0.13722646388E+03  0.91749500437E+02 0.  0.
        -11    1    3    3    0    0 -0.48353383231E+01 -0.19412791811E+02 -0.11354225830E+02  0.23003378595E+02  0.00000000000E+00 0.  1.
         12    1    3    3    0    0 -0.10350806195E+02  0.75429253313E+02 -0.10697489327E+03  0.13130247231E+03  0.00000000000E+00 0. -1.
        -11    1    4    4    0    0  0.77079789981E+02 -0.58053569908E+02 -0.47303318768E+02  0.10746680869E+03  0.00000000000E+00 0.  1.
         11    1    4    4    0    0 -0.24075161929E+02 -0.17191419501E+02  0.32370898452E+01  0.29759655190E+02  0.00000000000E+00 0. -1.
          1    1    1    2  501    0 -0.37818483534E+02  0.19228527906E+02  0.11223562827E+01  0.42440943273E+02  0.00000000000E+00 0. -1.
<scales pt_clust_5="13000.00000" pt_clust_6="13000.00000" pt_clust_7="13000.00000" pt_clust_8="13000.00000" pt_clust_9="42.42610"></scales>
<clustering>
<clus scale="   42.426">  1  9  2 -1</clus>
<clus scale="   80.250">  5  6 -1 -1</clus>
<clus scale="   91.750">  7  8 -1 -1</clus>
<clus scale="  104.252">  2  5  1 -1</clus>
<clus scale="   42.426">  1  5  2 -1</clus>
</clustering>
</event>
<event>
 9    2  0.5615294E-005  0.1072576E+03  0.7546771E-02  0.1269186E+00
         21   -1    0    0  501  502  0.00000000000E+00  0.00000000000E+00  0.59256607523E+03  0.59256607523E+03  0.00000000000E+00 0.  1.
         -3   -1    0    0    0  501 -0.00000000000E+00 -0.00000000000E+00 -0.34453006393E+02  0.34453006393E+02  0.00000000000E+00 0.  1.
         24    2    1    2    0    0  0.69792800547E+02  0.18881074220E+01  0.99771851511E+02  0.14670771706E+03  0.81817674938E+02 0.  0.
         23    2    1    2    0    0 -0.34685214343E+02  0.41613866301E+01  0.23476330683E+03  0.25391299653E+03  0.90208748690E+02 0.  0.
        -13    1    3    3    0    0  0.27179922738E+02  0.40671295602E+02  0.55940028565E+02  0.74311434395E+02  0.00000000000E+00 0.  1.
         14    1    3    3    0    0  0.42612877809E+02 -0.38783188180E+02  0.43831822946E+02  0.72396282662E+02  0.00000000000E+00 0. -1.
        -13    1    4    4    0    0  0.16032230579E+02 -0.31025801983E+02  0.89999963569E+02  0.96538211338E+02  0.00000000000E+00 0.  1.
         13    1    4    4    0    0 -0.50717444922E+02  0.35187188613E+02  0.14476334326E+03  0.15737478519E+03  0.00000000000E+00 0. -1.
         -4    1    1    2    0  502 -0.35107586204E+02 -0.60494940521E+01  0.22357791049E+03  0.22639836803E+03  0.00000000000E+00 0.  1.
<scales pt_clust_5="13000.00000" pt_clust_6="13000.00000" pt_clust_7="13000.00000" pt_clust_8="13000.00000" pt_clust_9="35.62498"></scales>
<clustering>
<clus scale="   35.625">  1  9  2 -1</clus>
<clus scale="   81.818">  5  6 -1 -1</clus>
<clus scale="   90.209">  7  8 -1 -1</clus>
<clus scale="  100.303">  2  5  1 -1</clus>
<clus scale="   35.625">  1  5  2 -1</clus>
</clustering>
</event>
<event>
 9    2  0.5615294E-005  0.3268362E+03  0.7546771E-02  0.1072545E+00
         21   -1    0    0  501  502  0.00000000000E+00  0.00000000000E+00  0.16198406218E+03  0.16198406218E+03  0.00000000000E+00 0. -1.
          2   -1    0    0  502    0 -0.00000000000E+00 -0.00000000000E+00 -0.63557139528E+03  0.63557139528E+03  0.00000000000E+00 0. -1.
         24    2    1    2    0    0 -0.23690494603E+02  0.93811257762E+02 -0.13207729311E+02  0.12706494571E+03  0.81297384317E+02 0.  0.
         23    2    1    2    0    0 -0.51270350452E+02  0.16493520823E+03 -0.96389017414E+02  0.21765719924E+03  0.90837998402E+02 0.  0.
        -13    1    3    3    0    0  0.96038132066E+01  0.42191473773E+02 -0.41031295228E+02  0.59631542621E+02  0.00000000000E+00 0.  1.
         14    1    3    3    0    0 -0.33294307810E+02  0.51619783988E+02  0.27823565917E+02  0.67433403087E+02  0.00000000000E+00 0. -1.
        -11    1    4    4    0    0 -0.63845259565E+02  0.11039953760E+03 -0.99274938319E+02  0.16161617633E+03  0.00000000000E+00 0. -1.
         11    1    4    4    0    0  0.12574909113E+02  0.54535670624E+02  0.28859209051E+01  0.56041022913E+02  0.00000000000E+00 0.  1.
          1    1    1    2  501    0  0.74960845055E+02 -0.25874646599E+03 -0.36399058638E+03  0.45283331252E+03  0.00000000000E+00 0. -1.
<scales pt_clust_5="13000.00000" pt_clust_6="13000.00000" pt_clust_7="13000.00000" pt_clust_8="13000.00000" pt_clust_9="269.38622"></scales>
<clustering>
<clus scale="   81.297">  5  6 -1 -1</clus>
<clus scale="   90.838">  7  8 -1 -1</clus>
<clus scale="  103.195">  5  7 -1 -1</clus>
<clus scale="  269.386">  1  9  2 -1</clus>
<clus scale="  269.386">  1  5  2 -1</clus>
</clustering>
</event>
<event>
 9    2  0.5615294E-005  0.1080527E+03  0.7546771E-02  0.1270738E+00
         -1   -1    0    0    0  501 -0.00000000000E+00  0.00000000000E+00  0.13556873798E+03  0.13556873798E+03  0.00000000000E+00 0.  1.
         21   -1    0    0  501  502  0.00000000000E+00 -0.00000000000E+00 -0.17465070250E+03  0.17465070250E+03  0.00000000000E+00 0.  1.
         23    2    1    2    0    0  0.45046423804E+02  0.37727406580E+00  0.48527973549E+02  0.11362272384E+03  0.92335456481E+02 0.  0.
         24    2    1    2    0    0 -0.79195761226E+02 -0.41560535754E+02 -0.38790363396E+02  0.12417027698E+03  0.76904607570E+02 0.  0.
        -13    1    4    4    0    0 -0.61059440625E+02 -0.63990385282E+02 -0.23467664346E+02  0.91508228962E+02  0.00000000000E+00 0.  1.
         14    1    4    4    0    0 -0.18136320601E+02  0.22429849528E+02 -0.15322699050E+02  0.32662048021E+02  0.00000000000E+00 0. -1.
        -11    1    3    3    0    0  0.81814999853E+01  0.41145330060E+02  0.26617173317E+01  0.42035221742E+02  0.00000000000E+00 0.  1.
         11    1    3    3    0    0  0.36864923819E+02 -0.40768055994E+02  0.45866256217E+02  0.71587502102E+02  0.00000000000E+00 0. -1.
         -2    1    1    2    0  502  0.34149337422E+02  0.41183261688E+02 -0.48819574667E+02  0.72426439649E+02  0.00000000000E+00 0.  1.
<scales pt_clust_5="13000.00000" pt_clust_6="13000.00000" pt_clust_7="13000.00000" pt_clust_8="13000.00000" pt_clust_9="53.49989"></scales>
<clustering>
<clus scale="   53.500">  2  9  1 -1</clus>
<clus scale="   76.905">  5  6 -1 -1</clus>
<clus scale="   92.335">  7  8 -1 -1</clus>
<clus scale="   95.204">  2  5  1 -1</clus>
<clus scale="   53.500">  2  5  1 -1</clus>
</clustering>
</event>
<event>
 9    2  0.5615294E-005  0.9211244E+02  0.7546771E-02  0.1303847E+00
         21   -1    0    0  501  502  0.00000000000E+00  0.00000000000E+00  0.14754299032E+03  0.14754299032E+03  0.00000000000E+00 0. -1.
         -1   -1    0    0    0  501 -0.00000000000E+00 -0.00000000000E+00 -0.73534520852E+02  0.73534520852E+02  0.00000000000E+00 0.  1.
         23    2    1    2    0    0 -0.20777508680E+02  0.75642772622E+01  0.49195164060E+01  0.93908120257E+02  0.91135120843E+02 0.  0.
         24    2    1    2    0    0 -0.18199943502E+01 -0.11611812418E+01  0.63004817178E+02  0.10290700250E+03  0.81336237039E+02 0.  0.
        -11    1    4    4    0    0  0.13861181948E+02 -0.30891708172E+02  0.28251480013E+01  0.33976631087E+02  0.00000000000E+00 0.  1.
         12    1    4    4    0    0 -0.15681176298E+02  0.29730526930E+02  0.60179669176E+02  0.68930371418E+02  0.00000000000E+00 0. -1.
        -11    1    3    3    0    0  0.43570380457E+01 -0.37088425994E+02  0.17356190107E+02  0.41179757871E+02  0.00000000000E+00 0.  1.
         11    1    3    3    0    0 -0.25134546726E+02  0.44652703256E+02 -0.12436673701E+02  0.52728362386E+02  0.00000000000E+00 0. -1.
         -2    1    1    2    0  502  0.22597503030E+02 -0.64030960204E+01  0.60841358840E+01  0.24262388409E+02  0.00000000000E+00 0.  1.
<scales pt_clust_5="13000.00000" pt_clust_6="13000.00000" pt_clust_7="13000.00000" pt_clust_8="13000.00000" pt_clust_9="23.48717"></scales>
<clustering>
<clus scale="   23.487">  1  9  2 -1</clus>
<clus scale="   81.336">  5  6 -1 -1</clus>
<clus scale="   82.430">  1  5  2 -1</clus>
<clus scale="   91.135">  7  8 -1 -1</clus>
<clus scale="   23.487">  1  5  2 -1</clus>
</clustering>
</event>
<event>
 9    2  0.5615294E-005  0.1014368E+03  0.7546771E-02  0.1281017E+00
          2   -1    0    0  502    0 -0.00000000000E+00  0.00000000000E+00  0.74453590095E+03  0.74453590095E+03  0.00000000000E+00 0. -1.
         21   -1    0    0  501  502  0.00000000000E+00 -0.00000000000E+00 -0.34308072094E+02  0.34308072094E+02  0.00000000000E+00 0.  1.
         24    2    1    2    0    0 -0.27134657867E+02 -0.37998102641E+02  0.53427340873E+03  0.54262544111E+03  0.82547856440E+02 0.  0.
         23    2    1    2    0    0  0.16990260999E+01  0.48427219028E+02  0.63907523753E+02  0.12084849761E+03  0.90399698842E+02 0.  0.
        -13    1    3    3    0    0 -0.29932328298E+02  0.16220232204E+02  0.11755902020E+03  0.12238939268E+03  0.00000000000E+00 0.  1.
         14    1    3    3    0    0  0.27976704317E+01 -0.54218334845E+02  0.41671438853E+03  0.42023604843E+03  0.00000000000E+00 0. -1.
        -11    1    4    4    0    0 -0.26850021858E+02  0.35141336188E+02 -0.55641430780E+01  0.44573499650E+02  0.00000000000E+00 0.  1.
         11    1    4    4    0    0  0.28549047958E+02  0.13285882840E+02  0.69471666831E+02  0.76274997964E+02  0.00000000000E+00 0. -1.
          1    1    1    2  501    0  0.25435631767E+02 -0.10429116387E+02  0.11204689637E+03  0.11537003431E+03  0.00000000000E+00 0. -1.
<scales pt_clust_5="13000.00000" pt_clust_6="13000.00000" pt_clust_7="13000.00000" pt_clust_8="13000.00000" pt_clust_9="27.49070"></scales>
<clustering>
<clus scale="   27.491">  2  9  1 -1</clus>
<clus scale="   82.548">  5  6 -1 -1</clus>
<clus scale="   90.400">  7  8 -1 -1</clus>
<clus scale="   94.506">  1  5  2 -1</clus>
<clus scale="   27.491">  2  5  1 -1</clus>
</clustering>
</event>
<event>
 9    2  0.5615294E-005  0.1637568E+03  0.7546771E-02  0.1186462E+00
         21   -1    0    0  501  502  0.00000000000E+00  0.00000000000E+00  0.93502034926E+03  0.93502034926E+03  0.00000000000E+00 0.  1.
          2   -1    0    0  502    0 -0.00000000000E+00 -0.00000000000E+00 -0.68071717206E+02  0.68071717206E+02  0.00000000000E+00 0. -1.
         24    2    1    2    0    0  0.19409955684E+02  0.12950420873E+03  0.94224022358E+02  0.17958790364E+03  0.78902232439E+02 0.  0.
         23    2    1    2    0    0 -0.90673306412E+02 -0.14376252114E+03  0.67245857833E+03  0.69966942749E+03  0.91910049633E+02 0.  0.
        -11    1    3    3    0    0  0.22644031505E+02  0.37158398181E+02  0.72674612720E+02  0.84705950512E+02  0.00000000000E+00 0.  1.
         12    1    3    3    0    0 -0.32340758205E+01  0.92345810551E+02  0.21549409638E+02  0.94881953124E+02  0.00000000000E+00 0. -1.
        -13    1    4    4    0    0 -0.10589066547E+03 -0.10810710937E+03  0.57991319872E+03  0.59933237705E+03  0.00000000000E+00 0.  1.
         13    1    4    4    0    0  0.15217359061E+02 -0.35655411766E+02  0.92545379604E+02  0.10033705044E+03  0.00000000000E+00 0. -1.
          1    1    1    2  501    0  0.71263350727E+02  0.14258312407E+02  0.10026603137E+03  0.12383473534E+03  0.00000000000E+00 0. -1.
<scales pt_clust_5="13000.00000" pt_clust_6="13000.00000" pt_clust_7="13000.00000" pt_clust_8="13000.00000" pt_clust_9="72.67579"></scales>
<clustering>
<clus scale="   72.676">  1  9  2 -1</clus>
<clus scale="   78.902">  5  6 -1 -1</clus>
<clus scale="   91.910">  7  8 -1 -1</clus>
<clus scale="  156.826">  2  5  1 -1</clus>
<clus scale="   72.676">  1  5  2 -1</clus>
</clustering>
</event>
<event>
 9    2  0.5615294E-005  0.1515922E+03  0.7546771E-02  0.1214777E+00
         21   -1    0    0  501  502  0.00000000000E+00  0.00000000000E+00  0.65343901376E+02  0.65343901376E+02  0.00000000000E+00 0.  1.
         -3   -1    0    0    0  501 -0.00000000000E+00 -0.00000000000E+00 -0.64784472507E+03  0.64784472507E+03  0.00000000000E+00 0.  1.
         23    2    1    2    0    0 -0.13887085914E+02 -0.55341151828E+02 -0.89645128304E+02  0.13954451163E+03  0.90448479564E+02 0.  0.
         24    2    1    2    0    0  0.13552192380E+03  0.11641286114E+02 -0.32966446390E+03  0.36547089347E+03  0.79928742286E+02 0.  0.
        -11    1    4    4    0    0  0.68267730182E+02 -0.34218740614E+02 -0.15888187277E+03  0.17628061348E+03  0.00000000000E+00 0.  1.
         12    1    4    4    0    0  0.67254193620E+02  0.45860026728E+02 -0.17078259113E+03  0.18919027999E+03  0.00000000000E+00 0. -1.
        -11    1    3    3    0    0 -0.17511695415E+02  0.21284739055E+02 -0.38489099619E+02  0.47340367367E+02  0.00000000000E+00 0.  1.
         11    1    3    3    0    0  0.36246095006E+01 -0.76625890883E+02 -0.51156028685E+02  0.92204144259E+02  0.00000000000E+00 0. -1.
         -4    1    1    2    0  502 -0.12163483789E+03  0.43699865714E+02 -0.16319123150E+03  0.20817322135E+03  0.00000000000E+00 0.  1.
<scales pt_clust_5="13000.00000" pt_clust_6="13000.00000" pt_clust_7="13000.00000" pt_clust_8="13000.00000" pt_clust_9="128.80830"></scales>
<clustering>
<clus scale="   79.929">  5  6 -1 -1</clus>
<clus scale="   90.448">  7  8 -1 -1</clus>
<clus scale="  106.941">  2  7  1 -1</clus>
<clus scale="  128.808">  1  9  2 -1</clus>
<clus scale="  128.808">  1  5  2 -1</clus>
</clustering>
</event>
<event>
 9    2  0.5615294E-005  0.8972915E+02  0.7546771E-02  0.1309495E+00
          2   -1    0    0  502    0 -0.00000000000E+00  0.00000000000E+00  0.16341111050E+04  0.16341111050E+04  0.00000000000E+00 0. -1.
         21   -1    0    0  501  502  0.00000000000E+00 -0.00000000000E+00 -0.34742464685E+02  0.34742464685E+02  0.00000000000E+00 0. -1.
         24    2    1    2    0    0  0.15323134462E+02  0.98899840720E+01  0.13479782618E+04  0.13504505169E+04  0.79615287954E+02 0.  0.
         23    2    1    2    0    0  0.46099702322E+02  0.25219759285E+02  0.21566131926E+03  0.23914382851E+03  0.88987343363E+02 0.  0.
        -13    1    3    3    0    0  0.19859721817E+02 -0.10876343825E+02  0.11081552750E+03  0.11310519236E+03  0.00000000000E+00 0.  1.
         14    1    3    3    0    0 -0.45365873545E+01  0.20766327897E+02  0.12371627343E+04  0.12373453246E+04  0.00000000000E+00 0. -1.
        -13    1    4    4    0    0 -0.19994760434E+02  0.28470530078E+02  0.51532547548E+02  0.62176884648E+02  0.00000000000E+00 0.  1.
         13    1    4    4    0    0  0.66094462755E+02 -0.32507707929E+01  0.16412877171E+03  0.17696694386E+03  0.00000000000E+00 0. -1.
          1    1    1    2  501    0 -0.61422836784E+02 -0.35109743357E+02  0.35729059260E+02  0.79259224276E+02  0.00000000000E+00 0. -1.
<scales pt_clust_5="13000.00000" pt_clust_6="13000.00000" pt_clust_7="13000.00000" pt_clust_8="13000.00000" pt_clust_9="70.74927"></scales>
<clustering>
<clus scale="   70.749">  2  9  1 -1</clus>
<clus scale="   79.615">  5  6 -1 -1</clus>
<clus scale="   80.444">  1  5  2 -1</clus>
<clus scale="   88.987">  7  8 -1 -1</clus>
<clus scale="   70.749">  2  5  1 -1</clus>
</clustering>
</event>
<event>
 9    2  0.5615294E-005  0.9756981E+02  0.7546771E-02  0.1291275E+00
          2   -1    0    0  502    0 -0.00000000000E+00  0.00000000000E+00  0.68254413359E+03  0.68254413359E+03  0.00000000000E+00 0. -1.
         21   -1    0    0  501  502  0.00000000000E+00 -0.00000000000E+00 -0.46026606597E+02  0.46026606597E+02  0.00000000000E+00 0.  1.
         24    2    1    2    0    0  0.18988238566E+02 -0.27372597549E+02  0.53693356865E+03  0.54402533144E+03  0.80969696836E+02 0.  0.
         23    2    1    2    0    0 -0.48156615183E+02  0.27546738964E+01  0.10313335739E+03  0.14621220391E+03  0.91732607901E+02 0.  0.
        -11    1    3    3    0    0 -0.43347808377E+00 -0.48219893435E+02  0.19373881465E+03  0.19964987936E+03  0.00000000000E+00 0.  1.
         12    1    3    3    0    0  0.19421716649E+02  0.20847295886E+02  0.34319475400E+03  0.34437545208E+03  0.00000000000E+00 0. -1.
        -13    1    4    4    0    0 -0.12708224159E+02 -0.32988737187E+02  0.86088193425E+02  0.93064132670E+02  0.00000000000E+00 0. -1.
         13    1    4    4    0    0 -0.35448391025E+02  0.35743411083E+02  0.17045163962E+02  0.53148071241E+02  0.00000000000E+00 0.  1.
          1    1    1    2  501    0  0.29168376618E+02  0.24617923652E+02 -0.35493990421E+01  0.38333204836E+02  0.00000000000E+00 0. -1.
<scales pt_clust_5="13000.00000" pt_clust_6="13000.00000" pt_clust_7="13000.00000" pt_clust_8="13000.00000" pt_clust_9="38.16853"></scales>
<clustering>
<clus scale="   38.169">  2  9  1 -1</clus>
<clus scale="   80.970">  5  6 -1 -1</clus>
<clus scale="   87.528">  1  5  2 -1</clus>
<clus scale="   91.733">  7  8 -1 -1</clus>
<clus scale="   38.169">  2  5  1 -1</clus>
</clustering>
</event>
<event>
 9    2  0.5615294E-005  0.1011698E+03  0.7546771E-02  0.1283100E+00
         21   -1    0    0  501  502  0.00000000000E+00  0.00000000000E+00  0.15255848620E+03  0.15255848620E+03  0.00000000000E+00 0. -1.
          2   -1    0    0  502    0 -0.00000000000E+00 -0.00000000000E+00 -0.64222287678E+03  0.64222287678E+03  0.00000000000E+00 0. -1.
         24    2    1    2    0    0  0.26713070314E+02  0.34314084579E+02 -0.59905123064E+03  0.60610820795E+03  0.81324893403E+02 0.  0.
         23    2    1    2    0    0 -0.15128924971E+02 -0.12071111169E+02  0.20380435204E+02  0.96201092255E+02  0.92003760338E+02 0.  0.
        -11    1    3    3    0    0  0.14892932590E+02  0.48342217086E+02 -0.18916078479E+03  0.19580748682E+03  0.00000000000E+00 0.  1.
         12    1    3    3    0    0  0.11820137724E+02 -0.14028132508E+02 -0.40989044585E+03  0.41030072113E+03  0.00000000000E+00 0. -1.
        -11    1    4    4    0    0 -0.96305490321E+01 -0.32442422915E+02  0.49669773672E+02  0.60102784427E+02  0.00000000000E+00 0.  1.
         11    1    4    4    0    0 -0.54983759390E+01  0.20371311746E+02 -0.29289338467E+02  0.36098307828E+02  0.00000000000E+00 0. -1.
          1    1    1    2  501    0 -0.11584145343E+02 -0.22242973410E+02  0.89006404851E+02  0.92472062776E+02  0.00000000000E+00 0. -1.
<scales pt_clust_5="13000.00000" pt_clust_6="13000.00000" pt_clust_7="13000.00000" pt_clust_8="13000.00000" pt_clust_9="25.07872"></scales>
<clustering>
<clus scale="   25.079">  1  9  2 -1</clus>
<clus scale="   81.325">  5  6 -1 -1</clus>
<clus scale="   91.566">  2  5  1 -1</clus>
<clus scale="   92.004">  7  8 -1 -1</clus>
<clus scale="   25.079">  1  5  2 -1</clus>
</clustering>
</event>
<event>
 9    2  0.5615294E-005  0.1028981E+03  0.7546771E-02  0.1280671E+00
          2   -1    0    0  502    0 -0.00000000000E+00  0.00000000000E+00  0.84524739372E+03  0.84524739372E+03  0.00000000000E+00 0. -1.
         21   -1    0    0  501  502  0.00000000000E+00 -0.00000000000E+00 -0.30314534026E+02  0.30314534026E+02  0.00000000000E+00 0.  1.
         23    2    1    2    0    0  0.17100531099E+02 -0.39730525842E+02  0.53551801006E+03  0.54524558205E+03  0.92963771431E+02 0.  0.
         24    2    1    2    0    0 -0.44170177186E+02  0.32117781513E+02  0.70790461552E+02  0.11980540793E+03  0.79746409832E+02 0.  0.
        -11    1    4    4    0    0  0.18899910095E+02  0.15312774571E+02  0.11396160370E+01  0.24351311903E+02  0.00000000000E+00 0.  1.
         12    1    4    4    0    0 -0.63070087281E+02  0.16805006942E+02  0.69650845515E+02  0.95454096030E+02  0.00000000000E+00 0. -1.
        -13    1    3    3    0    0 -0.19682123609E+00 -0.68161163652E+02  0.39521833565E+03  0.40105300872E+03  0.00000000000E+00 0. -1.
         13    1    3    3    0    0  0.17297352335E+02  0.28430637810E+02  0.14029967441E+03  0.14419257333E+03  0.00000000000E+00 0.  1.
          1    1    1    2  501    0  0.27069646088E+02  0.76127443285E+01  0.20862438808E+03  0.21051093776E+03  0.00000000000E+00 0. -1.
<scales pt_clust_5="13000.00000" pt_clust_6="13000.00000" pt_clust_7="13000.00000" pt_clust_8="13000.00000" pt_clust_9="28.11975"></scales>
<clustering>
<clus scale="   28.120">  2  9  1 -1</clus>
<clus scale="   79.746">  5  6 -1 -1</clus>
<clus scale="   91.133">  2  5  1 -1</clus>
<clus scale="   92.964">  7  8 -1 -1</clus>
<clus scale="   28.120">  2  5  1 -1</clus>
</clustering>
</event>
<event>
 9    2  0.5615294E-005  0.1371319E+03  0.7546771E-02  0.1219645E+00
         21   -1    0    0  501  502  0.00000000000E+00  0.00000000000E+00  0.80054149347E+02  0.80054149347E+02  0.00000000000E+00 0.  1.
          2   -1    0    0  502    0 -0.00000000000E+00 -0.00000000000E+00 -0.38675824899E+03  0.38675824899E+03  0.00000000000E+00 0. -1.
         24    2    1    2    0    0 -0.12965911091E+03 -0.31281787473E+02 -0.17624352935E+03  0.23554000368E+03  0.81408085770E+02 0.  0.
         23    2    1    2    0    0  0.62558653540E+02  0.54118015080E+01 -0.46152201502E+02  0.12045890900E+03  0.91855594962E+02 0.  0.
        -11    1    3    3    0    0 -0.13216686200E+03 -0.27921757284E+02 -0.18307932100E+03  0.22752085996E+03  0.00000000000E+00 0.  1.
         12    1    3    3    0    0  0.25077510853E+01 -0.33600301895E+01  0.68357916579E+01  0.80191437180E+01  0.00000000000E+00 0. -1.
        -11    1    4    4    0    0  0.46553701982E+02 -0.22834366612E+02 -0.64821017799E+02  0.83008552663E+02  0.00000000000E+00 0.  1.
         11    1    4    4    0    0  0.16004951558E+02  0.28246168120E+02  0.18668816297E+02  0.37450356337E+02  0.00000000000E+00 0. -1.
          1    1    1    2  501    0  0.67100457373E+02  0.25869985965E+02 -0.84308368792E+02  0.11081348565E+03  0.00000000000E+00 0. -1.
<scales pt_clust_5="13000.00000" pt_clust_6="13000.00000" pt_clust_7="13000.00000" pt_clust_8="13000.00000" pt_clust_9="71.91476"></scales>
<clustering>
<clus scale="   71.915">  1  9  2 -1</clus>
<clus scale="   81.408">  5  6 -1 -1</clus>
<clus scale="   91.856">  7  8 -1 -1</clus>
<clus scale="  130.365">  2  5  1 -1</clus>
<clus scale="   71.915">  1  5  2 -1</clus>
</clustering>
</event>
<event>
 9    2  0.5615294E-005  0.1462521E+03  0.7546771E-02  0.1220672E+00
         21   -1    0    0  501  502  0.00000000000E+00  0.00000000000E+00  0.53311537124E+02  0.53311537124E+02  0.00000000000E+00 0. -1.
          2   -1    0    0  502    0 -0.00000000000E+00 -0.00000000000E+00 -0.85330862025E+03  0.85330862025E+03  0.00000000000E+00 0. -1.
         23    2    1    2    0    0 -0.55907213771E+00 -0.57271625495E+02 -0.68140122891E+02  0.12531714936E+03  0.88209749616E+02 0.  0.
         24    2    1    2    0    0  0.99077235051E+02 -0.37513996126E+02 -0.41791637178E+03  0.43888683496E+03  0.82121627412E+02 0.  0.
        -13    1    4    4    0    0  0.64517082437E+02 -0.62585433204E+02 -0.25147259731E+03  0.26705403493E+03  0.00000000000E+00 0.  1.
         14    1    4    4    0    0  0.34560152614E+02  0.25071437077E+02 -0.16644377446E+03  0.17183280002E+03  0.00000000000E+00 0. -1.
        -11    1    3    3    0    0 -0.26945991115E+02  0.46684496303E+01 -0.47653155701E+02  0.54942734801E+02  0.00000000000E+00 0.  1.
         11    1    3    3    0    0  0.26386918978E+02 -0.61940075125E+02 -0.20486967189E+02  0.70374414557E+02  0.00000000000E+00 0. -1.
          1    1    1    2  501    0 -0.98518162913E+02  0.94785621621E+02 -0.31394058846E+03  0.34241617306E+03  0.00000000000E+00 0. -1.
<scales pt_clust_5="13000.00000" pt_clust_6="13000.00000" pt_clust_7="13000.00000" pt_clust_8="13000.00000" pt_clust_9="121.01948"></scales>
<clustering>
<clus scale="   82.122">  5  6 -1 -1</clus>
<clus scale="   88.210">  7  8 -1 -1</clus>
<clus scale="  105.173">  2  7  1 -1</clus>
<clus scale="  121.019">  1  9  2 -1</clus>
<clus scale="  121.019">  1  5  2 -1</clus>
</clustering>
</event>
<event>
 9    2  0.5615294E-005  0.1411813E+03  0.7546771E-02  0.1214215E+00
          2   -1    0    0  502    0 -0.00000000000E+00  0.00000000000E+00  0.32274956097E+03  0.32274956097E+03  0.00000000000E+00 0. -1.
         21   -1    0    0  501  502  0.00000000000E+00 -0.00000000000E+00 -0.86319189818E+02  0.86319189818E+02  0.00000000000E+00 0. -1.
         24    2    1    2    0    0 -0.22956190454E+02 -0.10480015371E+03  0.18449852888E+03  0.22820767842E+03  0.80802094262E+02 0.  0.
         23    2    1    2    0    0 -0.72922333705E+01  0.10865692342E+03  0.43876037404E+02  0.14932160806E+03  0.92262301624E+02 0.  0.
        -13    1    3    3    0    0  0.13676261957E+02 -0.26726303541E+02  0.69407767870E+01  0.30814117292E+02  0.00000000000E+00 0.  1.
         14    1    3    3    0    0 -0.36632452411E+02 -0.78073850165E+02  0.17755775209E+03  0.19739356113E+03  0.00000000000E+00 0. -1.
        -13    1    4    4    0    0  0.41817348078E+02  0.60472761722E+02  0.28290766205E+02  0.78778251840E+02  0.00000000000E+00 0. -1.
         13    1    4    4    0    0 -0.49109581448E+02  0.48184161698E+02  0.15585271199E+02  0.70543356220E+02  0.00000000000E+00 0.  1.
          1    1    1    2  501    0  0.30248423825E+02 -0.38567697129E+01  0.80558048727E+01  0.31539464305E+02  0.00000000000E+00 0. -1.
<scales pt_clust_5="13000.00000" pt_clust_6="13000.00000" pt_clust_7="13000.00000" pt_clust_8="13000.00000" pt_clust_9="30.49331"></scales>
<clustering>
<clus scale="   30.493">  2  9  1 -1</clus>
<clus scale="   80.802">  5  6 -1 -1</clus>
<clus scale="   92.262">  7  8 -1 -1</clus>
<clus scale="  133.973">  1  5  2 -1</clus>
<clus scale="   30.493">  2  5  1 -1</clus>
</clustering>
</event>
<event>
 9    2  0.5615294E-005  0.1041746E+03  0.7546771E-02  0.1275895E+00
         21   -1    0    0  501  502  0.00000000000E+00  0.00000000000E+00  0.14660101292E+03  0.14660101292E+03  0.00000000000E+00 0. -1.
         -1   -1    0    0    0  501 -0.00000000000E+00 -0.00000000000E+00 -0.24415575108E+03  0.24415575108E+03  0.00000000000E+00 0.  1.
         23    2    1    2    0    0 -0.51963749112E+02  0.20032571606E+02 -0.16787430310E+03  0.19814212957E+03  0.89313978329E+02 0.  0.
         24    2    1    2    0    0  0.50592905369E+02  0.32619325334E+02  0.91773912424E+02  0.13574293242E+03  0.79875091494E+02 0.  0.
        -11    1    4    4    0    0 -0.79286466696E+01  0.34255268487E+02  0.12762419883E+02  0.37405430333E+02  0.00000000000E+00 0.  1.
         12    1    4    4    0    0  0.58521552038E+02 -0.16359431528E+01  0.79011492541E+02  0.98337502086E+02  0.00000000000E+00 0. -1.
        -11    1    3    3    0    0  0.23351403216E+02  0.18633926600E+02 -0.44912647073E+02  0.53941237655E+02  0.00000000000E+00 0. -1.
         11    1    3    3    0    0 -0.75315152328E+02  0.13986450068E+01 -0.12296165602E+03  0.14420089192E+03  0.00000000000E+00 0.  1.
         -2    1    1    2    0  502  0.13708437433E+01 -0.52651896940E+02 -0.21454347488E+02  0.56871702015E+02  0.00000000000E+00 0.  1.
<scales pt_clust_5="13000.00000" pt_clust_6="13000.00000" pt_clust_7="13000.00000" pt_clust_8="13000.00000" pt_clust_9="52.66977"></scales>
<clustering>
<clus scale="   52.670">  1  9  2 -1</clus>
<clus scale="   79.875">  5  6 -1 -1</clus>
<clus scale="   89.314">  7  8 -1 -1</clus>
<clus scale="   96.205">  1  5  2 -1</clus>
<clus scale="   52.670">  1  5  2 -1</clus>
</clustering>
</event>
<event>
 9    2  0.5615294E-005  0.1405913E+03  0.7546771E-02  0.1238214E+00
         21   -1    0    0  501  502  0.00000000000E+00  0.00000000000E+00  0.55415223033E+02  0.55415223033E+02  0.00000000000E+00 0. -1.
          2   -1    0    0  502    0 -0.00000000000E+00 -0.00000000000E+00 -0.70370461887E+03  0.70370461887E+03  0.00000000000E+00 0. -1.
         24    2    1    2    0    0 -0.13922227773E+02  0.17554086827E+02 -0.34445224419E+02  0.89299925331E+02  0.79284480122E+02 0.  0.
         23    2    1    2    0    0 -0.52423697995E+02  0.75465584420E+02 -0.46379512115E+03  0.48122204121E+03  0.89584820151E+02 0.  0.
        -13    1    3    3    0    0  0.27630576335E+02 -0.44049338674E+01  0.44036947083E+01  0.28323924835E+02  0.00000000000E+00 0.  1.
         14    1    3    3    0    0 -0.41552804108E+02  0.21959020694E+02 -0.38848919128E+02  0.60976000496E+02  0.00000000000E+00 0. -1.
        -11    1    4    4    0    0 -0.72612623287E+02  0.78966269379E+02 -0.40463108366E+03  0.41861029446E+03  0.00000000000E+00 0. -1.
         11    1    4    4    0    0  0.20188925292E+02 -0.35006849590E+01 -0.59164037483E+02  0.62611746748E+02  0.00000000000E+00 0.  1.
          1    1    1    2  501    0  0.66345925768E+02 -0.93019671247E+02 -0.15004905027E+03  0.18859787537E+03  0.00000000000E+00 0. -1.
<scales pt_clust_5="13000.00000" pt_clust_6="13000.00000" pt_clust_7="13000.00000" pt_clust_8="13000.00000" pt_clust_9="108.35346"></scales>
<clustering>
<clus scale="   79.284">  5  6 -1 -1</clus>
<clus scale="   82.389">  2  5  1 -1</clus>
<clus scale="   89.585">  7  8 -1 -1</clus>
<clus scale="  108.353">  1  9  2 -1</clus>
<clus scale="  108.353">  1  5  2 -1</clus>
</clustering>
</event>
<event>
 9    2  0.5615294E-005  0.1405114E+03  0.7546771E-02  0.1214917E+00
         21   -1    0    0  501  502  0.00000000000E+00  0.00000000000E+00  0.32047535672E+03  0.32047535672E+03  0.00000000000E+00 0.  1.
          2   -1    0    0  502    0 -0.00000000000E+00 -0.00000000000E+00 -0.29264578983E+03  0.29264578983E+03  0.00000000000E+00 0. -1.
         23    2    1    2    0    0  0.24942951168E+01  0.10571428022E+03 -0.20904193576E+03  0.25139344493E+03  0.91205277782E+02 0.  0.
         24    2    1    2    0    0 -0.10137722382E+03 -0.11174843972E+03  0.17604640776E+03  0.24547824209E+03  0.80636061216E+02 0.  0.
        -13    1    4    4    0    0 -0.94344949357E+02 -0.46081953358E+02  0.10557622109E+03  0.14889880575E+03  0.00000000000E+00 0.  1.
         14    1    4    4    0    0 -0.70322744591E+01 -0.65666486363E+02  0.70470186667E+02  0.96579436342E+02  0.00000000000E+00 0. -1.
        -13    1    3    3    0    0 -0.37597733613E+02  0.52580167043E+02 -0.14620236226E+03  0.15985429074E+03  0.00000000000E+00 0. -1.
         13    1    3    3    0    0  0.40092028730E+02  0.53134113180E+02 -0.62839573506E+02  0.91539154188E+02  0.00000000000E+00 0.  1.
          1    1    1    2  501    0  0.98882928699E+02  0.60341594983E+01  0.60825094905E+02  0.11624945952E+03  0.00000000000E+00 0. -1.
<scales pt_clust_5="13000.00000" pt_clust_6="13000.00000" pt_clust_7="13000.00000" pt_clust_8="13000.00000" pt_clust_9="99.06687"></scales>
<clustering>
<clus scale="   80.636">  5  6 -1 -1</clus>
<clus scale="   91.205">  7  8 -1 -1</clus>
<clus scale="   99.067">  1  9  2 -1</clus>
<clus scale="  133.893">  1  5  2 -1</clus>
<clus scale="   99.067">  1  5  2 -1</clus>
</clustering>
</event>
<event>
 9    2  0.5615294E-005  0.1160412E+03  0.7546771E-02  0.1252078E+00
         21   -1    0    0  501  502  0.00000000000E+00  0.00000000000E+00  0.94186314214E+02  0.94186314214E+02  0.00000000000E+00 0.  1.
         -3   -1    0    0    0  501 -0.00000000000E+00 -0.00000000000E+00 -0.34155603123E+03  0.34155603123E+03  0.00000000000E+00 0.  1.
         23    2    1    2    0    0  0.86519119389E+02  0.60735527848E+02 -0.78440978632E+02  0.16174347495E+03  0.93987244859E+02 0.  0.
         24    2    1    2    0    0 -0.17549377892E+02 -0.24115057645E+02 -0.51550751241E+01  0.92561011004E+02  0.87472563064E+02 0.  0.
        -11    1    4    4    0    0 -0.10244201887E+00 -0.53790638560E+02 -0.16583759541E+02  0.56289114149E+02  0.00000000000E+00 0.  1.
         12    1    4    4    0    0 -0.17446935873E+02  0.29675580915E+02  0.11428684417E+02  0.36271896856E+02  0.00000000000E+00 0. -1.
        -11    1    3    3    0    0 -0.15154144054E+02  0.32079320065E+02 -0.14973336153E+02  0.38508851624E+02  0.00000000000E+00 0. -1.
         11    1    3    3    0    0  0.10167326344E+03  0.28656207783E+02 -0.63467642479E+02  0.12323462332E+03  0.00000000000E+00 0.  1.
         -4    1    1    2    0  502 -0.68969741497E+02 -0.36620470202E+02 -0.16377366326E+03  0.18143785950E+03  0.00000000000E+00 0.  1.
<scales pt_clust_5="13000.00000" pt_clust_6="13000.00000" pt_clust_7="13000.00000" pt_clust_8="13000.00000" pt_clust_9="78.08899"></scales>
<clustering>
<clus scale="   78.089">  1  9  2 -1</clus>
<clus scale="   87.473">  5  6 -1 -1</clus>
<clus scale="   93.987">  7  8 -1 -1</clus>
<clus scale="  110.831">  1  5  2 -1</clus>
<clus scale="   78.089">  1  5  2 -1</clus>
</clustering>
</event>
<event>
 9    2  0.5615294E-005  0.1766154E+03  0.7546771E-02  0.1201877E+00
         -1   -1    0    0    0  501 -0.00000000000E+00  0.00000000000E+00  0.13492350332E+03  0.13492350332E+03  0.00000000000E+00 0.  1.
         21   -1    0    0  501  502  0.00000000000E+00 -0.00000000000E+00 -0.35553138246E+03  0.35553138246E+03  0.00000000000E+00 0. -1.
         24    2    1    2    0    0 -0.36478763296E+02  0.11538749670E+02 -0.69742770188E+02  0.11317911782E+03  0.80508482791E+02 0.  0.
         23    2    1    2    0    0 -0.11377452028E+03  0.52620741997E+02 -0.28207935089E-01  0.15491511428E+03  0.91022567989E+02 0.  0.
        -13    1    3    3    0    0 -0.25177850682E+02  0.24727998656E+02 -0.83740030663E+02  0.90872387544E+02  0.00000000000E+00 0.  1.
         14    1    3    3    0    0 -0.11300912614E+02 -0.13189248987E+02  0.13997260476E+02  0.22306730275E+02  0.00000000000E+00 0. -1.
        -11    1    4    4    0    0 -0.19923678248E+02  0.18977475079E+02  0.39101536074E+02  0.47812421385E+02  0.00000000000E+00 0.  1.
         11    1    4    4    0    0 -0.93850842037E+02  0.33643266918E+02 -0.39129744009E+02  0.10710269290E+03  0.00000000000E+00 0. -1.
         -2    1    1    2    0  502  0.15025328358E+03 -0.64159491667E+02 -0.15083690101E+03  0.22236065368E+03  0.00000000000E+00 0.  1.
<scales pt_clust_5="13000.00000" pt_clust_6="13000.00000" pt_clust_7="13000.00000" pt_clust_8="13000.00000" pt_clust_9="151.35348"></scales>
<clustering>
<clus scale="   80.508">  5  6 -1 -1</clus>
<clus scale="   89.137">  1  5  2 -1</clus>
<clus scale="   91.023">  7  8 -1 -1</clus>
<clus scale="  151.353">  2  9  1 -1</clus>
<clus scale="  151.353">  2  5  1 -1</clus>
</clustering>
</event>
<event>
 9    2  0.5615294E-005  0.1871696E+03  0.7546771E-02  0.1188143E+00
          2   -1    0    0  502    0 -0.00000000000E+00  0.00000000000E+00  0.84819789475E+03  0.84819789475E+03  0.00000000000E+00 0. -1.
         21   -1    0    0  501  502  0.00000000000E+00 -0.00000000000E+00 -0.10133139009E+03  0.10133139009E+03  0.00000000000E+00 0. -1.
         24    2    1    2    0    0  0.46550865586E+02  0.39191621332E+02  0.19230753199E+03  0.21730137822E+03  0.80837713025E+02 0.  0.
         23    2    1    2    0    0  0.14602207752E+03  0.44462474601E+02  0.49203368424E+02  0.18499246102E+03  0.92205641912E+02 0.  0.
        -13    1    3    3    0    0  0.10475413470E+02  0.58334233271E+02  0.97951403789E+02  0.11448621997E+03  0.00000000000E+00 0.  1.
         14    1    3    3    0    0  0.36075452116E+02 -0.19142611938E+02  0.94356128200E+02  0.10281515825E+03  0.00000000000E+00 0. -1.
        -13    1    4    4    0    0  0.15522668885E+02  0.44361777079E+02  0.21014103838E+02  0.51483133889E+02  0.00000000000E+00 0.  1.
         13    1    4    4    0    0  0.13049940863E+03  0.10069752213E+00  0.28189264586E+02  0.13350932713E+03  0.00000000000E+00 0. -1.
          1    1    1    2  501    0 -0.19257294311E+03 -0.83654095934E+02  0.50535560424E+03  0.54723544560E+03  0.00000000000E+00 0. -1.
<scales pt_clust_5="13000.00000" pt_clust_6="13000.00000" pt_clust_7="13000.00000" pt_clust_8="13000.00000" pt_clust_9="162.88221"></scales>
<clustering>
<clus scale="   80.838">  5  6 -1 -1</clus>
<clus scale="   92.206">  7  8 -1 -1</clus>
<clus scale="  101.182">  1  5  2 -1</clus>
<clus scale="  162.882">  2  9  1 -1</clus>
<clus scale="  162.882">  2  5  1 -1</clus>
</clustering>
</event>
<event>
 9    2  0.5615294E-005  0.1034859E+03  0.7546771E-02  0.1275558E+00
          2   -1    0    0  502    0 -0.00000000000E+00  0.00000000000E+00  0.70697889271E+03  0.70697889271E+03  0.00000000000E+00 0. -1.
         21   -1    0    0  501  502  0.00000000000E+00 -0.00000000000E+00 -0.15699567876E+03  0.15699567876E+03  0.00000000000E+00 0.  1.
         24    2    1    2    0    0 -0.38752866663E+02  0.33064467613E+02  0.67886322026E+03  0.68607569210E+03  0.85144229208E+02 0.  0.
         23    2    1    2    0    0  0.20574950952E+02 -0.13400930105E+02 -0.85656478403E+02  0.12705239776E+03  0.90566914206E+02 0.  0.
        -11    1    3    3    0    0 -0.64101380757E+02  0.15043609221E+02  0.38713618396E+03  0.39269545723E+03  0.00000000000E+00 0.  1.
         12    1    3    3    0    0  0.25348514094E+02  0.18020858391E+02  0.29172703630E+03  0.29338023487E+03  0.00000000000E+00 0. -1.
        -11    1    4    4    0    0  0.44526403671E+02 -0.38700416234E+02 -0.54380983299E+02  0.80234744252E+02  0.00000000000E+00 0. -1.
         11    1    4    4    0    0 -0.23951452719E+02  0.25299486128E+02 -0.31275495103E+02  0.46817653504E+02  0.00000000000E+00 0.  1.
          1    1    1    2  501    0  0.18177915711E+02 -0.19663537507E+02 -0.43223527914E+02  0.50846481611E+02  0.00000000000E+00 0. -1.
<scales pt_clust_5="13000.00000" pt_clust_6="13000.00000" pt_clust_7="13000.00000" pt_clust_8="13000.00000" pt_clust_9="26.77856"></scales>
<clustering>
<clus scale="   26.779">  2  9  1 -1</clus>
<clus scale="   85.144">  5  6 -1 -1</clus>
<clus scale="   90.567">  7  8 -1 -1</clus>
<clus scale="   98.775">  1  5  2 -1</clus>
<clus scale="   26.779">  2  5  1 -1</clus>
</clustering>
</event>
<event>
 9    2  0.5615294E-005  0.1045779E+03  0.7546771E-02  0.1276265E+00
         21   -1    0    0  501  502  0.00000000000E+00  0.00000000000E+00  0.88938078103E+02  0.88938078103E+02  0.00000000000E+00 0. -1.
          2   -1    0    0  502    0 -0.00000000000E+00 -0.00000000000E+00 -0.73359855875E+03  0.73359855875E+03  0.00000000000E+00 0. -1.
         24    2    1    2    0    0 -0.37237266694E+02 -0.33010959099E+02 -0.66312580275E+03  0.66971779060E+03  0.79433943083E+02 0.  0.
         23    2    1    2    0    0  0.52844867402E+02  0.48709490425E+02 -0.10181686342E+02  0.11661536328E+03  0.91270377170E+02 0.  0.
        -11    1    3    3    0    0 -0.30532777033E+02 -0.40702501868E+02 -0.19651034628E+03  0.20299078877E+03  0.00000000000E+00 0.  1.
         12    1    3    3    0    0 -0.67044896614E+01  0.76915427692E+01 -0.46661545648E+03  0.46672700183E+03  0.00000000000E+00 0. -1.
        -11    1    4    4    0    0  0.22310190973E+02  0.42941103236E+01 -0.46409794287E+02  0.51672555680E+02  0.00000000000E+00 0. -1.
         11    1    4    4    0    0  0.30534676429E+02  0.44415380101E+02  0.36228107945E+02  0.64942807604E+02  0.00000000000E+00 0.  1.
          1    1    1    2  501    0 -0.15607600708E+02 -0.15698531326E+02  0.28647008453E+02  0.36203482967E+02  0.00000000000E+00 0. -1.
<scales pt_clust_5="13000.00000" pt_clust_6="13000.00000" pt_clust_7="13000.00000" pt_clust_8="13000.00000" pt_clust_9="22.13687"></scales>
<clustering>
<clus scale="   22.137">  1  9  2 -1</clus>
<clus scale="   79.434">  5  6 -1 -1</clus>
<clus scale="   91.270">  7  8 -1 -1</clus>
<clus scale="   94.425">  2  5  1 -1</clus>
<clus scale="   22.137">  1  5  2 -1</clus>
</clustering>
</event>
<event>
 9    2  0.5615294E-005  0.1007439E+03  0.7546771E-02  0.1283205E+00
          2   -1    0    0  502    0 -0.00000000000E+00  0.00000000000E+00  0.28589488058E+03  0.28589488058E+03  0.00000000000E+00 0. -1.
         21   -1    0    0  501  502  0.00000000000E+00 -0.00000000000E+00 -0.44654638711E+03  0.44654638711E+03  0.00000000000E+00 0. -1.
         24    2    1    2    0    0  0.36217173726E+02 -0.27913482775E+02  0.25563398885E+03  0.27206885369E+03  0.81128778495E+02 0.  0.
         23    2    1    2    0    0 -0.51864922414E+02 -0.46275550921E+02 -0.18845263177E+03  0.22025436283E+03  0.90366991383E+02 0.  0.
        -13    1    3    3    0    0  0.37905634350E+02  0.20843333998E+02  0.99668068112E+02  0.10865084210E+03  0.00000000000E+00 0.  1.
         14    1    3    3    0    0 -0.16884606240E+01 -0.48756816773E+02  0.15596592074E+03  0.16341801159E+03  0.00000000000E+00 0. -1.
        -11    1    4    4    0    0  0.48008868431E+01  0.21960382621E+02 -0.60709913331E+02  0.64737937069E+02  0.00000000000E+00 0.  1.
         11    1    4    4    0    0 -0.56665809257E+02 -0.68235933542E+02 -0.12774271844E+03  0.15551642576E+03  0.00000000000E+00 0. -1.
          1    1    1    2  501    0  0.15647748688E+02  0.74189033696E+02 -0.22783286361E+03  0.24011805117E+03  0.00000000000E+00 0. -1.
<scales pt_clust_5="13000.00000" pt_clust_6="13000.00000" pt_clust_7="13000.00000" pt_clust_8="13000.00000" pt_clust_9="75.82127"></scales>
<clustering>
<clus scale="   75.821">  2  9  1 -1</clus>
<clus scale="   81.129">  5  6 -1 -1</clus>
<clus scale="   90.367">  7  8 -1 -1</clus>
<clus scale="   92.547">  1  5  2 -1</clus>
<clus scale="   75.821">  2  5  1 -1</clus>
</clustering>
</event>
<event>
 9    2  0.5615294E-005  0.1138395E+03  0.7546771E-02  0.1253875E+00
          2   -1    0    0  502    0 -0.00000000000E+00  0.00000000000E+00  0.34033733132E+03  0.34033733132E+03  0.00000000000E+00 0. -1.
         21   -1    0    0  501  502  0.00000000000E+00 -0.00000000000E+00 -0.12132840580E+03  0.12132840580E+03  0.00000000000E+00 0. -1.
         23    2    1    2    0    0 -0.10894599973E+02 -0.91229211528E+02  0.23767237024E+03  0.27095149692E+03  0.92114584960E+02 0.  0.
         24    2    1    2    0    0 -0.33388843904E+01  0.11742257533E+02  0.27660071340E+02  0.97619470880E+02  0.92819463408E+02 0.  0.
        -13    1    4    4    0    0  0.43975472685E+02  0.10144155164E+02  0.21122833680E+02  0.49828909125E+02  0.00000000000E+00 0.  1.
         14    1    4    4    0    0 -0.47314357076E+02  0.15981023688E+01  0.65372376601E+01  0.47790561755E+02  0.00000000000E+00 0. -1.
        -13    1    3    3    0    0 -0.35482796563E+02 -0.38921761057E+02  0.43345073064E+02  0.68210905980E+02  0.00000000000E+00 0.  1.
         13    1    3    3    0    0  0.24588196589E+02 -0.52307450471E+02  0.19432729718E+03  0.20274059094E+03  0.00000000000E+00 0. -1.
          1    1    1    2  501    0  0.14233484364E+02  0.79486953995E+02 -0.46323516067E+02  0.93094769313E+02  0.00000000000E+00 0. -1.
<scales pt_clust_5="13000.00000" pt_clust_6="13000.00000" pt_clust_7="13000.00000" pt_clust_8="13000.00000" pt_clust_9="80.75127"></scales>
<clustering>
<clus scale="   80.751">  2  9  1 -1</clus>
<clus scale="   92.115">  7  8 -1 -1</clus>
<clus scale="   92.819">  5  6 -1 -1</clus>
<clus scale="  113.266">  1  7  2 -1</clus>
<clus scale="   80.751">  2  5  1 -1</clus>
</clustering>
</event>
<event>
 9    2  0.9429547E-005  0.8505398E+02  0.7546771E-02  0.1323374E+00
         21   -1    0    0  501  502  0.00000000000E+00  0.00000000000E+00  0.48278992475E+03  0.48278992475E+03  0.00000000000E+00 0.  1.
         -3   -1    0    0    0  501 -0.00000000000E+00 -0.00000000000E+00 -0.13944917106E+03  0.13944917106E+03  0.00000000000E+00 0.  1.
         23    2    1    2    0    0 -0.67827149674E+00 -0.52009090433E+01 -0.76799837197E+02  0.10606085500E+03  0.72960129267E+02 0.  0.
         24    2    1    2    0    0 -0.49648182383E+02 -0.30557864530E+02  0.11954959811E+02  0.10335024847E+03  0.84496317651E+02 0.  0.
        -13    1    4    4    0    0 -0.55053906608E+02  0.12076896989E+02  0.19651161091E+02  0.59690469976E+02  0.00000000000E+00 0.  1.
         14    1    4    4    0    0  0.54057242256E+01 -0.42634761519E+02 -0.76962012798E+01  0.43659778496E+02  0.00000000000E+00 0. -1.
        -13    1    3    3    0    0 -0.19492128283E+02  0.13326124807E+02 -0.76065334959E+02  0.79645865239E+02  0.00000000000E+00 0.  1.
         13    1    3    3    0    0  0.18813856787E+02 -0.18527033850E+02 -0.73450223806E+00  0.26414989760E+02  0.00000000000E+00 0. -1.
         -4    1    1    2    0  502  0.50326453879E+02  0.35758773573E+02  0.40818563108E+03  0.41282799235E+03  0.00000000000E+00 0.  1.
<scales pt_clust_5="13000.00000" pt_clust_6="13000.00000" pt_clust_7="13000.00000" pt_clust_8="13000.00000" pt_clust_9="61.73688"></scales>
<clustering>
<clus scale="   61.737">  1  9  2 -1</clus>
<clus scale="   72.960">  7  8 -1 -1</clus>
<clus scale="   73.605">  2  7  1 -1</clus>
<clus scale="   84.496">  5  6 -1 -1</clus>
<clus scale="   61.737">  1  5  2 -1</clus>
</clustering>
</event>
<event>
 9    2  0.5615294E-005  0.8987561E+02  0.7546771E-02  0.1307580E+00
          2   -1    0    0  502    0 -0.00000000000E+00  0.00000000000E+00  0.20523086466E+03  0.20523086466E+03  0.00000000000E+00 0. -1.
         21   -1    0    0  501  502  0.00000000000E+00 -0.00000000000E+00 -0.10708265650E+03  0.10708265650E+03  0.00000000000E+00 0. -1.
         24    2    1    2    0    0 -0.44320150632E+01 -0.84561174608E-02  0.10211055209E+03  0.13157767412E+03  0.82864206074E+02 0.  0.
         23    2    1    2    0    0 -0.34547661036E+02 -0.10592644116E+02 -0.58290194056E+02  0.11303567146E+03  0.89853053959E+02 0.  0.
        -13    1    3    3    0    0 -0.37964008062E+02  0.15714539173E+02  0.31246189532E+02  0.51619153517E+02  0.00000000000E+00 0.  1.
         14    1    3    3    0    0  0.33531992999E+02 -0.15722995290E+02  0.70864362563E+02  0.79958520602E+02  0.00000000000E+00 0. -1.
        -11    1    4    4    0    0  0.28422483963E+02  0.10701809924E+02 -0.17858639289E+02  0.35232049721E+02  0.00000000000E+00 0.  1.
         11    1    4    4    0    0 -0.62970144999E+02 -0.21294454040E+02 -0.40431554768E+02  0.77803621734E+02  0.00000000000E+00 0. -1.
          1    1    1    2  501    0  0.38979676099E+02  0.10601100233E+02  0.54327850125E+02  0.67700175584E+02  0.00000000000E+00 0. -1.
<scales pt_clust_5="13000.00000" pt_clust_6="13000.00000" pt_clust_7="13000.00000" pt_clust_8="13000.00000" pt_clust_9="40.39555"></scales>
<clustering>
<clus scale="   40.396">  2  9  1 -1</clus>
<clus scale="   82.864">  5  6 -1 -1</clus>
<clus scale="   82.889">  1  5  2 -1</clus>
<clus scale="   89.853">  7  8 -1 -1</clus>
<clus scale="   40.396">  2  5  1 -1</clus>
</clustering>
</event>
<event>
 9    2  0.5615294E-005  0.1656819E+03  0.7546771E-02  0.1202309E+00
         21   -1    0    0  501  502  0.00000000000E+00  0.00000000000E+00  0.69693481892E+02  0.69693481892E+02  0.00000000000E+00 0. -1.
          2   -1    0    0  502    0 -0.00000000000E+00 -0.00000000000E+00 -0.81156825667E+03  0.81156825667E+03  0.00000000000E+00 0. -1.
         24    2    1    2    0    0  0.30900867449E+02  0.68543545631E+02 -0.86334865607E+02  0.13746471884E+03  0.76090463595E+02 0.  0.
         23    2    1    2    0    0  0.10719006765E+03 -0.99226001499E+02 -0.52104367915E+03  0.54860543346E+03  0.90254617987E+02 0.  0.
        -11    1    3    3    0    0  0.47149090972E+02  0.44186305650E+02 -0.86763644222E+02  0.10818223674E+03  0.00000000000E+00 0.  1.
         12    1    3    3    0    0 -0.16248223523E+02  0.24357239981E+02  0.42877861573E+00  0.29282482105E+02  0.00000000000E+00 0. -1.
        -13    1    4    4    0    0  0.21491615707E+02 -0.81289467213E+02 -0.26271964574E+03  0.27584684026E+03  0.00000000000E+00 0.  1.
         13    1    4    4    0    0  0.85698451945E+02 -0.17936534286E+02 -0.25832403341E+03  0.27275859320E+03  0.00000000000E+00 0. -1.
          1    1    1    2  501    0 -0.13809093510E+03  0.30682455868E+02 -0.13449623002E+03  0.19519158626E+03  0.00000000000E+00 0. -1.
<scales pt_clust_5="13000.00000" pt_clust_6="13000.00000" pt_clust_7="13000.00000" pt_clust_8="13000.00000" pt_clust_9="138.94101"></scales>
<clustering>
<clus scale="   76.090">  5  6 -1 -1</clus>
<clus scale="   90.255">  7  8 -1 -1</clus>
<clus scale="  106.971">  2  5  1 -1</clus>
<clus scale="  138.941">  1  9  2 -1</clus>
<clus scale="  138.941">  1  5  2 -1</clus>
</clustering>
</event>
<event>
 9    2  0.5615294E-005  0.2452383E+03  0.7546771E-02  0.1144380E+00
         -3   -1    0    0    0  501 -0.00000000000E+00  0.00000000000E+00  0.98922226391E+03  0.98922226391E+03  0.00000000000E+00 0.  1.
         21   -1    0    0  501  502  0.00000000000E+00 -0.00000000000E+00 -0.12716561767E+03  0.12716561767E+03  0.00000000000E+00 0.  1.
         23    2    1    2    0    0  0.79398920179E+02  0.15482638969E+02  0.68316558721E+02  0.14091933624E+03  0.92990357007E+02 0.  0.
         24    2    1    2    0    0  0.15155951879E+03 -0.10469525648E+03  0.66874423890E+03  0.69811560445E+03  0.78836258409E+02 0.  0.
        -13    1    4    4    0    0  0.10142368820E+03 -0.36929473364E+02  0.27447533053E+03  0.29493602290E+03  0.00000000000E+00 0.  1.
         14    1    4    4    0    0  0.50135830584E+02 -0.67765783116E+02  0.39426890837E+03  0.40317958155E+03  0.00000000000E+00 0. -1.
        -11    1    3    3    0    0  0.78865593383E+02  0.46888741907E+02  0.53217612077E+02  0.10606813929E+03  0.00000000000E+00 0. -1.
         11    1    3    3    0    0  0.53332679602E+00 -0.31406102938E+02  0.15098946643E+02  0.34851196952E+02  0.00000000000E+00 0.  1.
         -4    1    1    2    0  502 -0.23095843896E+03  0.89212617511E+02  0.12499584861E+03  0.27735294089E+03  0.00000000000E+00 0.  1.
<scales pt_clust_5="13000.00000" pt_clust_6="13000.00000" pt_clust_7="13000.00000" pt_clust_8="13000.00000" pt_clust_9="232.22119"></scales>
<clustering>
<clus scale="   78.836">  5  6 -1 -1</clus>
<clus scale="   92.990">  7  8 -1 -1</clus>
<clus scale="  123.252">  1  7  2 -1</clus>
<clus scale="  232.221">  2  9  1 -1</clus>
<clus scale="  232.221">  2  5  1 -1</clus>
</clustering>
</event>
<event>
 9    2  0.5615294E-005  0.1207666E+03  0.7546771E-02  0.1244838E+00
          2   -1    0    0  502    0 -0.00000000000E+00  0.00000000000E+00  0.55114573285E+03  0.55114573285E+03  0.00000000000E+00 0. -1.
         21   -1    0    0  501  502  0.00000000000E+00 -0.00000000000E+00 -0.27268250120E+03  0.27268250120E+03  0.00000000000E+00 0. -1.
         24    2    1    2    0    0 -0.29851519552E+02 -0.44260988463E+02  0.50095955016E+03  0.51402724251E+03  0.10204600351E+03 0.  0.
         23    2    1    2    0    0 -0.54765700574E+02  0.79954628267E+01 -0.11716786682E+03  0.16991051642E+03  0.10990025109E+03 0.  0.
        -13    1    3    3    0    0  0.30298430967E+02 -0.19000078356E+02  0.74878814038E+02  0.82980929666E+02  0.00000000000E+00 0.  1.
         14    1    3    3    0    0 -0.60149950519E+02 -0.25260910107E+02  0.42608073612E+03  0.43104631285E+03  0.00000000000E+00 0. -1.
        -11    1    4    4    0    0  0.26922531735E+01  0.25500931004E+02  0.11355116695E+02  0.28044328917E+02  0.00000000000E+00 0.  1.
         11    1    4    4    0    0 -0.57457953747E+02 -0.17505468177E+02 -0.12852298352E+03  0.14186618751E+03  0.00000000000E+00 0. -1.
          1    1    1    2  501    0  0.84617220126E+02  0.36265525637E+02 -0.10532845168E+03  0.13989047510E+03  0.00000000000E+00 0. -1.
<scales pt_clust_5="13000.00000" pt_clust_6="13000.00000" pt_clust_7="13000.00000" pt_clust_8="13000.00000" pt_clust_9="92.06119"></scales>
<clustering>
<clus scale="   92.061">  2  9  1 -1</clus>
<clus scale="  102.046">  5  6 -1 -1</clus>
<clus scale="  109.900">  7  8 -1 -1</clus>
<clus scale="  113.666">  1  5  2 -1</clus>
<clus scale="   92.061">  2  5  1 -1</clus>
</clustering>
</event>
<event>
 9    2  0.6566425E-005  0.1632400E+03  0.7546771E-02  0.1211030E+00
         21   -1    0    0  501  502  0.00000000000E+00  0.00000000000E+00  0.76150234260E+02  0.76150234260E+02  0.00000000000E+00 0.  1.
          2   -1    0    0  502    0 -0.00000000000E+00 -0.00000000000E+00 -0.92241385425E+03  0.92241385425E+03  0.00000000000E+00 0. -1.
         24    2    1    2    0    0  0.67344538611E+01 -0.46189576326E+02 -0.14061920690E+03  0.16844770782E+03  0.80137625945E+02 0.  0.
         23    2    1    2    0    0 -0.12994912154E+03 -0.36658413552E+02 -0.68898210066E+02  0.17628813808E+03  0.89999615593E+02 0.  0.
        -11    1    3    3    0    0 -0.32035521790E+02 -0.12495480194E+02 -0.89941829470E+02  0.96290936074E+02  0.00000000000E+00 0.  1.
         12    1    3    3    0    0  0.38769975651E+02 -0.33694096132E+02 -0.50677377426E+02  0.72156771747E+02  0.00000000000E+00 0. -1.
        -11    1    4    4    0    0 -0.11787584586E+03 -0.11378803727E+02 -0.20239212292E+02  0.12014082539E+03  0.00000000000E+00 0.  1.
         11    1    4    4    0    0 -0.12073275677E+02 -0.25279609826E+02 -0.48658997774E+02  0.56147312695E+02  0.00000000000E+00 0. -1.
          1    1    1    2  501    0  0.12321466767E+03  0.82847989879E+02 -0.63674620303E+03  0.65382824260E+03  0.00000000000E+00 0. -1.
<scales pt_clust_5="13000.00000" pt_clust_6="13000.00000" pt_clust_7="13000.00000" pt_clust_8="13000.00000" pt_clust_9="136.18880"></scales>
<clustering>
<clus scale="   80.138">  5  6 -1 -1</clus>
<clus scale="   90.000">  7  8 -1 -1</clus>
<clus scale="   92.741">  2  5  1 -1</clus>
<clus scale="  136.189">  1  9  2 -1</clus>
<clus scale="  136.189">  1  5  2 -1</clus>
</clustering>
</event>
<event>
 9    2  0.5615294E-005  0.9232319E+02  0.7546771E-02  0.1305403E+00
          2   -1    0    0  502    0 -0.00000000000E+00  0.00000000000E+00  0.48845890286E+02  0.48845890286E+02  0.00000000000E+00 0. -1.
         21   -1    0    0  501  502  0.00000000000E+00 -0.00000000000E+00 -0.31451380283E+03  0.31451380283E+03  0.00000000000E+00 0.  1.
         24    2    1    2    0    0  0.76970369489E+01 -0.22861613715E+02 -0.25861169371E+02  0.81649682360E+02  0.73593293097E+02 0.  0.
         23    2    1    2    0    0 -0.30697493988E+01  0.57379806138E+02 -0.21475328541E+03  0.23880787626E+03  0.87225928814E+02 0.  0.
        -13    1    3    3    0    0 -0.14068420014E+02  0.22560915715E+02 -0.46217646625E+01  0.26986590525E+02  0.00000000000E+00 0.  1.
         14    1    3    3    0    0  0.21765456963E+02 -0.45422529429E+02 -0.21239404708E+02  0.54663091835E+02  0.00000000000E+00 0. -1.
        -13    1    4    4    0    0 -0.25023702596E+02 -0.14448325496E+02 -0.50162057234E+02  0.57889306329E+02  0.00000000000E+00 0. -1.
         13    1    4    4    0    0  0.21953953197E+02  0.71828131634E+02 -0.16459122817E+03  0.18091856993E+03  0.00000000000E+00 0.  1.
          1    1    1    2  501    0 -0.46272875501E+01 -0.34518192423E+02 -0.25053457768E+02  0.42902134497E+02  0.00000000000E+00 0. -1.
<scales pt_clust_5="13000.00000" pt_clust_6="13000.00000" pt_clust_7="13000.00000" pt_clust_8="13000.00000" pt_clust_9="34.82698"></scales>
<clustering>
<clus scale="   34.827">  2  9  1 -1</clus>
<clus scale="   73.593">  5  6 -1 -1</clus>
<clus scale="   79.569">  1  5  2 -1</clus>
<clus scale="   87.226">  7  8 -1 -1</clus>
<clus scale="   34.827">  2  5  1 -1</clus>
</clustering>
</event>
<event>
 9    2  0.5615294E-005  0.1967052E+03  0.7546771E-02  0.1153127E+00
          2   -1    0    0  502    0 -0.00000000000E+00  0.00000000000E+00  0.36918408947E+03  0.36918408947E+03  0.00000000000E+00 0. -1.
         21   -1    0    0  501  502  0.00000000000E+00 -0.00000000000E+00 -0.18563022162E+03  0.18563022162E+03  0.00000000000E+00 0. -1.
         23    2    1    2    0    0  0.15235009015E+03 -0.11417262637E+03  0.24793185382E+03  0.32490697634E+03  0.88591199095E+02 0.  0.
         24    2    1    2    0    0 -0.11347692417E+03  0.66505495580E+02 -0.65180764986E+02  0.16839373589E+03  0.82510150298E+02 0.  0.
        -13    1    4    4    0    0 -0.59938711195E+02  0.56789643300E+02  0.11790618237E+01  0.82577859458E+02  0.00000000000E+00 0.  1.
         14    1    4    4    0    0 -0.53538212977E+02  0.97158522801E+01 -0.66359826810E+02  0.85815876436E+02  0.00000000000E+00 0. -1.
        -13    1    3    3    0    0  0.12642916546E+03 -0.46572670076E+02  0.13478074564E+03  0.19057596090E+03  0.00000000000E+00 0.  1.
         13    1    3    3    0    0  0.25920924683E+02 -0.67599956292E+02  0.11315110818E+03  0.13433101544E+03  0.00000000000E+00 0. -1.
          1    1    1    2  501    0 -0.38873165975E+02  0.47667130788E+02  0.80277902079E+00  0.61513598859E+02  0.00000000000E+00 0. -1.
<scales pt_clust_5="13000.00000" pt_clust_6="13000.00000" pt_clust_7="13000.00000" pt_clust_8="13000.00000" pt_clust_9="61.50836"></scales>
<clustering>
<clus scale="   61.508">  2  9  1 -1</clus>
<clus scale="   82.510">  5  6 -1 -1</clus>
<clus scale="   88.591">  7  8 -1 -1</clus>
<clus scale="  194.042">  2  5  1 -1</clus>
<clus scale="   61.508">  2  5  1 -1</clus>
</clustering>
</event>
<event>
 9    2  0.5615294E-005  0.2233765E+03  0.7546771E-02  0.1131914E+00
         -3   -1    0    0    0  501 -0.00000000000E+00  0.00000000000E+00  0.49319141207E+03  0.49319141207E+03  0.00000000000E+00 0.  1.
         21   -1    0    0  501  502  0.00000000000E+00 -0.00000000000E+00 -0.25854459391E+03  0.25854459391E+03  0.00000000000E+00 0. -1.
         24    2    1    2    0    0  0.17711429706E+03 -0.10034859543E+03  0.28772067164E+03  0.36172512077E+03  0.81379132933E+02 0.  0.
         23    2    1    2    0    0 -0.15518335301E+03  0.15573154723E+03 -0.14686347401E+03  0.27890404214E+03  0.88794126316E+02 0.  0.
        -11    1    3    3    0    0  0.13741086737E+03 -0.67468056286E+02  0.26356524350E+03  0.30479554241E+03  0.00000000000E+00 0.  1.
         12    1    3    3    0    0  0.39703429688E+02 -0.32880539140E+02  0.24155428137E+02  0.56929578354E+02  0.00000000000E+00 0. -1.
        -13    1    4    4    0    0 -0.27778460755E+02 -0.18349791612E+01  0.13212232883E+01  0.27870336586E+02  0.00000000000E+00 0.  1.
         13    1    4    4    0    0 -0.12740489225E+03  0.15756652640E+03 -0.14818469730E+03  0.25103370555E+03  0.00000000000E+00 0. -1.
         -4    1    1    2    0  502 -0.21930944052E+02 -0.55382951808E+02  0.93789620535E+02  0.11110684307E+03  0.00000000000E+00 0.  1.
<scales pt_clust_5="13000.00000" pt_clust_6="13000.00000" pt_clust_7="13000.00000" pt_clust_8="13000.00000" pt_clust_9="59.56712"></scales>
<clustering>
<clus scale="   59.567">  2  9  1 -1</clus>
<clus scale="   81.379">  5  6 -1 -1</clus>
<clus scale="   88.794">  7  8 -1 -1</clus>
<clus scale="  220.534">  1  5  2 -1</clus>
<clus scale="   59.567">  2  5  1 -1</clus>
</clustering>
</event>
<event>
 9    2  0.5615294E-005  0.1033740E+03  0.7546771E-02  0.1283476E+00
          2   -1    0    0  502    0 -0.00000000000E+00  0.00000000000E+00  0.38709162462E+03  0.38709162462E+03  0.00000000000E+00 0. -1.
         21   -1    0    0  501  502  0.00000000000E+00 -0.00000000000E+00 -0.43087933554E+02  0.43087933554E+02  0.00000000000E+00 0.  1.
         23    2    1    2    0    0  0.50362644106E+02  0.54467325521E+01  0.28990012679E+03  0.30882207139E+03  0.93610498597E+02 0.  0.
         24    2    1    2    0    0 -0.29097282195E+02 -0.72574541039E+01  0.60026565429E+02  0.99208530323E+02  0.73074082001E+02 0.  0.
        -13    1    4    4    0    0  0.21452700320E+02 -0.68908233566E+01  0.25681619887E+01  0.22678122796E+02  0.00000000000E+00 0.  1.
         14    1    4    4    0    0 -0.50549982515E+02 -0.36663074729E+00  0.57458403440E+02  0.76530407527E+02  0.00000000000E+00 0. -1.
        -11    1    3    3    0    0  0.34513926370E+02  0.47884793045E+02  0.13293409229E+03  0.14544977625E+03  0.00000000000E+00 0. -1.
         11    1    3    3    0    0  0.15848717736E+02 -0.42438060493E+02  0.15696603450E+03  0.16337229514E+03  0.00000000000E+00 0.  1.
          1    1    1    2  501    0 -0.21265361910E+02  0.18107215518E+01 -0.59230011518E+01  0.22148956462E+02  0.00000000000E+00 0. -1.
<scales pt_clust_5="13000.00000" pt_clust_6="13000.00000" pt_clust_7="13000.00000" pt_clust_8="13000.00000" pt_clust_9="21.34231"></scales>
<clustering>
<clus scale="   21.342">  2  9  1 -1</clus>
<clus scale="   73.074">  5  6 -1 -1</clus>
<clus scale="   85.224">  2  5  1 -1</clus>
<clus scale="   93.610">  7  8 -1 -1</clus>
<clus scale="   21.342">  2  5  1 -1</clus>
</clustering>
</event>
<event>
 9    2  0.5615294E-005  0.1363347E+03  0.7546771E-02  0.1235740E+00
          2   -1    0    0  502    0 -0.00000000000E+00  0.00000000000E+00  0.10312969203E+04  0.10312969203E+04  0.00000000000E+00 0. -1.
         21   -1    0    0  501  502  0.00000000000E+00 -0.00000000000E+00 -0.42913929352E+02  0.42913929352E+02  0.00000000000E+00 0. -1.
         24    2    1    2    0    0  0.63386778905E+01  0.53928552479E+02  0.54909094567E+03  0.55725350551E+03  0.77988045057E+02 0.  0.
         23    2    1    2    0    0  0.11454225085E+02  0.57207736057E+02  0.36807082940E+03  0.38376453796E+03  0.91625110135E+02 0.  0.
        -13    1    3    3    0    0  0.16086271405E+02  0.38540932481E+02  0.10810612459E+03  0.11589264764E+03  0.00000000000E+00 0.  1.
         14    1    3    3    0    0 -0.97475935149E+01  0.15387619997E+02  0.44098482109E+03  0.44136085787E+03  0.00000000000E+00 0. -1.
        -11    1    4    4    0    0  0.50218301327E+02  0.18855692645E+02  0.20002111532E+03  0.20708901832E+03  0.00000000000E+00 0.  1.
         11    1    4    4    0    0 -0.38764076242E+02  0.38352043412E+02  0.16804971407E+03  0.17667551964E+03  0.00000000000E+00 0. -1.
          1    1    1    2  501    0 -0.17792902975E+02 -0.11113628854E+03  0.71221215865E+02  0.13319280617E+03  0.00000000000E+00 0. -1.
<scales pt_clust_5="13000.00000" pt_clust_6="13000.00000" pt_clust_7="13000.00000" pt_clust_8="13000.00000" pt_clust_9="100.95540"></scales>
<clustering>
<clus scale="   77.988">  5  6 -1 -1</clus>
<clus scale="   91.625">  7  8 -1 -1</clus>
<clus scale="   95.029">  1  5  2 -1</clus>
<clus scale="  100.955">  2  9  1 -1</clus>
<clus scale="  100.955">  2  5  1 -1</clus>
</clustering>
</event>
<event>
 9    2  0.5615294E-005  0.1064877E+03  0.7546771E-02  0.1271639E+00
          2   -1    0    0  502    0 -0.00000000000E+00  0.00000000000E+00  0.83077315652E+03  0.83077315652E+03  0.00000000000E+00 0. -1.
         21   -1    0    0  501  502  0.00000000000E+00 -0.00000000000E+00 -0.33342699628E+02  0.33342699628E+02  0.00000000000E+00 0.  1.
         23    2    1    2    0    0 -0.21887149335E+02  0.34064560929E+02  0.29708887009E+03  0.31359149887E+03  0.91860708773E+02 0.  0.
         24    2    1    2    0    0  0.41141853754E+02 -0.82098947322E+02  0.13898995555E+03  0.18548593830E+03  0.81571663475E+02 0.  0.
        -13    1    4    4    0    0  0.57892467094E+02 -0.83045184390E+02  0.96727655904E+02  0.14001528421E+03  0.00000000000E+00 0.  1.
         14    1    4    4    0    0 -0.16750613341E+02  0.94623706847E+00  0.42262299642E+02  0.45470654085E+02  0.00000000000E+00 0. -1.
        -11    1    3    3    0    0 -0.51305229157E+02  0.56707403543E+01  0.22374150503E+03  0.22961847685E+03  0.00000000000E+00 0.  1.
         11    1    3    3    0    0  0.29418079822E+02  0.28393820575E+02  0.73347365054E+02  0.83973022022E+02  0.00000000000E+00 0. -1.
          1    1    1    2  501    0 -0.19254704418E+02  0.48034386392E+02  0.36135163126E+03  0.36503841898E+03  0.00000000000E+00 0. -1.
<scales pt_clust_5="13000.00000" pt_clust_6="13000.00000" pt_clust_7="13000.00000" pt_clust_8="13000.00000" pt_clust_9="51.74987"></scales>
<clustering>
<clus scale="   51.750">  2  9  1 -1</clus>
<clus scale="   81.572">  5  6 -1 -1</clus>
<clus scale="   91.861">  7  8 -1 -1</clus>
<clus scale="   97.751">  2  5  1 -1</clus>
<clus scale="   51.750">  2  5  1 -1</clus>
</clustering>
</event>
<event>
 9    2  0.5615294E-005  0.1079738E+03  0.7546771E-02  0.1269691E+00
         21   -1    0    0  501  502  0.00000000000E+00  0.00000000000E+00  0.28067183368E+03  0.28067183368E+03  0.00000000000E+00 0. -1.
          2   -1    0    0  502    0 -0.00000000000E+00 -0.00000000000E+00 -0.11965133104E+03  0.11965133104E+03  0.00000000000E+00 0. -1.
         24    2    1    2    0    0  0.24237748882E+02  0.50741910185E+02 -0.49200095250E+02  0.11055559911E+03  0.81484238976E+02 0.  0.
         23    2    1    2    0    0  0.29154852964E+02 -0.56486582999E+02  0.56011742122E+02  0.12647597859E+03  0.93904836904E+02 0.  0.
        -11    1    3    3    0    0  0.14481479283E+02 -0.21601323627E+02 -0.12943517194E+02  0.29049355622E+02  0.00000000000E+00 0.  1.
         12    1    3    3    0    0  0.97562695988E+01  0.72343233813E+02 -0.36256578056E+02  0.81506243487E+02  0.00000000000E+00 0. -1.
        -13    1    4    4    0    0  0.29899779370E+02 -0.79893190162E+02  0.57716277418E+02  0.10299556942E+03  0.00000000000E+00 0.  1.
         13    1    4    4    0    0 -0.74492640587E+00  0.23406607163E+02 -0.17045352955E+01  0.23480409171E+02  0.00000000000E+00 0. -1.
          1    1    1    2  501    0 -0.53392601846E+02  0.57446728131E+01  0.15420885576E+03  0.16329158702E+03  0.00000000000E+00 0. -1.
<scales pt_clust_5="13000.00000" pt_clust_6="13000.00000" pt_clust_7="13000.00000" pt_clust_8="13000.00000" pt_clust_9="53.70076"></scales>
<clustering>
<clus scale="   53.701">  1  9  2 -1</clus>
<clus scale="   81.484">  5  6 -1 -1</clus>
<clus scale="   93.905">  7  8 -1 -1</clus>
<clus scale="   97.365">  2  5  1 -1</clus>
<clus scale="   53.701">  1  5  2 -1</clus>
</clustering>
</event>
<event>
 9    2  0.5615294E-005  0.2168323E+03  0.7546771E-02  0.1137248E+00
          2   -1    0    0  502    0 -0.00000000000E+00  0.00000000000E+00  0.54880465348E+03  0.54880465348E+03  0.00000000000E+00 0. -1.
         21   -1    0    0  501  502  0.00000000000E+00 -0.00000000000E+00 -0.34605270398E+03  0.34605270398E+03  0.00000000000E+00 0. -1.
         24    2    1    2    0    0 -0.15818994769E+03  0.10919449341E+03  0.39655387602E+03  0.44751452649E+03  0.77889523639E+02 0.  0.
         23    2    1    2    0    0  0.12286120583E+03 -0.21285586722E+03 -0.50264750465E+02  0.26679720977E+03  0.90838922806E+02 0.  0.
        -11    1    3    3    0    0 -0.41762806839E+02  0.35167142442E+02  0.48183546092E+02  0.72818363457E+02  0.00000000000E+00 0.  1.
         12    1    3    3    0    0 -0.11642714086E+03  0.74027350966E+02  0.34837032993E+03  0.37469616304E+03  0.00000000000E+00 0. -1.
        -11    1    4    4    0    0  0.60475655465E+02 -0.40616689216E+02 -0.40494530263E+02  0.83347629409E+02  0.00000000000E+00 0.  1.
         11    1    4    4    0    0  0.62385550362E+02 -0.17223917800E+03 -0.97702202019E+01  0.18344958037E+03  0.00000000000E+00 0. -1.
          1    1    1    2  501    0  0.35328741868E+02  0.10366137381E+03 -0.14353717605E+03  0.18054562119E+03  0.00000000000E+00 0. -1.
<scales pt_clust_5="13000.00000" pt_clust_6="13000.00000" pt_clust_7="13000.00000" pt_clust_8="13000.00000" pt_clust_9="109.51621"></scales>
<clustering>
<clus scale="   77.890">  5  6 -1 -1</clus>
<clus scale="   90.839">  7  8 -1 -1</clus>
<clus scale="  109.516">  2  9  1 -1</clus>
<clus scale="  211.734">  1  5  2 -1</clus>
<clus scale="  109.516">  2  5  1 -1</clus>
</clustering>
</event>
<event>
 9    2  0.5615294E-005  0.9417700E+02  0.7546771E-02  0.1299316E+00
         -1   -1    0    0    0  501 -0.00000000000E+00  0.00000000000E+00  0.51292488761E+03  0.51292488761E+03  0.00000000000E+00 0.  1.
         21   -1    0    0  501  502  0.00000000000E+00 -0.00000000000E+00 -0.26910208767E+02  0.26910208767E+02  0.00000000000E+00 0. -1.
         24    2    1    2    0    0 -0.96252536137E+01 -0.26371811887E+02  0.22587658900E+03  0.24138527608E+03  0.80364793788E+02 0.  0.
         23    2    1    2    0    0  0.27304801167E+02  0.72105764827E+00  0.11138111801E+03  0.14646572816E+03  0.91106443156E+02 0.  0.
        -11    1    3    3    0    0  0.35352922677E+02 -0.14671005629E+02  0.11338205506E+03  0.11966853370E+03  0.00000000000E+00 0.  1.
         12    1    3    3    0    0 -0.44978176291E+02 -0.11700806258E+02  0.11249453394E+03  0.12171674238E+03  0.00000000000E+00 0. -1.
        -11    1    4    4    0    0 -0.25966553603E+02 -0.16563243873E+02  0.71084531839E+02  0.77470082098E+02  0.00000000000E+00 0.  1.
         11    1    4    4    0    0  0.53271354770E+02  0.17284301521E+02  0.40296586175E+02  0.68995646061E+02  0.00000000000E+00 0. -1.
         -2    1    1    2    0  502 -0.17679547554E+02  0.25650754239E+02  0.14875697183E+03  0.15198409213E+03  0.00000000000E+00 0.  1.
<scales pt_clust_5="13000.00000" pt_clust_6="13000.00000" pt_clust_7="13000.00000" pt_clust_8="13000.00000" pt_clust_9="31.15331"></scales>
<clustering>
<clus scale="   31.153">  2  9  1 -1</clus>
<clus scale="   80.365">  5  6 -1 -1</clus>
<clus scale="   83.830">  1  5  2 -1</clus>
<clus scale="   91.106">  7  8 -1 -1</clus>
<clus scale="   31.153">  2  5  1 -1</clus>
</clustering>
</event>
<event>
 9    2  0.5615294E-005  0.1084352E+03  0.7546771E-02  0.1271775E+00
         21   -1    0    0  501  502  0.00000000000E+00  0.00000000000E+00  0.56999035239E+02  0.56999035239E+02  0.00000000000E+00 0. -1.
          2   -1    0    0  502    0 -0.00000000000E+00 -0.00000000000E+00 -0.53949524384E+03  0.53949524384E+03  0.00000000000E+00 0. -1.
         23    2    1    2    0    0 -0.10169609542E+02  0.21786224424E+02 -0.42833497454E+03  0.43835497242E+03  0.90034276233E+02 0.  0.
         24    2    1    2    0    0 -0.13956957384E+02  0.54660203763E+01 -0.22419566459E+02  0.10984531593E+03  0.10648324954E+03 0.  0.
        -11    1    4    4    0    0 -0.36164942488E+02 -0.41817900331E+02 -0.10915656078E+02  0.56354160457E+02  0.00000000000E+00 0.  1.
         12    1    4    4    0    0  0.22207985104E+02  0.47283920707E+02 -0.11503910381E+02  0.53491155473E+02  0.00000000000E+00 0. -1.
        -11    1    3    3    0    0 -0.49329395046E+02  0.48126610456E+01 -0.19876879682E+03  0.20485503536E+03  0.00000000000E+00 0.  1.
         11    1    3    3    0    0  0.39159785504E+02  0.16973563379E+02 -0.22956617772E+03  0.23349993706E+03  0.00000000000E+00 0. -1.
          1    1    1    2  501    0  0.24126566926E+02 -0.27252244801E+02 -0.31741667596E+02  0.48293990724E+02  0.00000000000E+00 0. -1.
<scales pt_clust_5="13000.00000" pt_clust_6="13000.00000" pt_clust_7="13000.00000" pt_clust_8="13000.00000" pt_clust_9="36.39747"></scales>
<clustering>
<clus scale="   36.397">  1  9  2 -1</clus>
<clus scale="   90.034">  7  8 -1 -1</clus>
<clus scale="   92.335">  2  7  1 -1</clus>
<clus scale="  106.483">  5  6 -1 -1</clus>
<clus scale="   36.397">  1  5  2 -1</clus>
</clustering>
</event>
<event>
 9    2  0.5615294E-005  0.9277318E+02  0.7546771E-02  0.1303255E+00
         21   -1    0    0  501  502  0.00000000000E+00  0.00000000000E+00  0.29413014414E+02  0.29413014414E+02  0.00000000000E+00 0. -1.
          2   -1    0    0  502    0 -0.00000000000E+00 -0.00000000000E+00 -0.80869084241E+03  0.80869084241E+03  0.00000000000E+00 0. -1.
         24    2    1    2    0    0 -0.18652963823E+02  0.43349745224E+02 -0.24271910206E+03  0.25961185109E+03  0.79111423020E+02 0.  0.
         23    2    1    2    0    0  0.70543511950E+01  0.43867619622E+02 -0.14183865151E+03  0.17408461992E+03  0.90626265001E+02 0.  0.
        -13    1    3    3    0    0  0.30422333720E+02  0.25097951527E+02 -0.11509654229E+03  0.12166609884E+03  0.00000000000E+00 0.  1.
         14    1    3    3    0    0 -0.49075297543E+02  0.18251793697E+02 -0.12762255976E+03  0.13794575225E+03  0.00000000000E+00 0. -1.
        -13    1    4    4    0    0 -0.36600557195E+02  0.37175662711E+01 -0.81790871133E+02  0.89683709148E+02  0.00000000000E+00 0.  1.
         13    1    4    4    0    0  0.43654908390E+02  0.40150053350E+02 -0.60047780373E+02  0.84400910767E+02  0.00000000000E+00 0. -1.
          1    1    1    2  501    0  0.11598612628E+02 -0.87217364845E+02 -0.39472007443E+03  0.40440738582E+03  0.00000000000E+00 0. -1.
<scales pt_clust_5="13000.00000" pt_clust_6="13000.00000" pt_clust_7="13000.00000" pt_clust_8="13000.00000" pt_clust_9="87.98525"></scales>
<clustering>
<clus scale="   79.111">  5  6 -1 -1</clus>
<clus scale="   87.985">  1  9  2 -1</clus>
<clus scale="   81.562">  2  5  1 -1</clus>
<clus scale="   90.626">  7  8 -1 -1</clus>
<clus scale="   87.985">  1  5  2 -1</clus>
</clustering>
</event>
<event>
 9    2  0.5615294E-005  0.1083589E+03  0.7546771E-02  0.1267830E+00
         21   -1    0    0  501  502  0.00000000000E+00  0.00000000000E+00  0.16521675067E+03  0.16521675067E+03  0.00000000000E+00 0. -1.
          2   -1    0    0  502    0 -0.00000000000E+00 -0.00000000000E+00 -0.29415973606E+03  0.29415973606E+03  0.00000000000E+00 0. -1.
         24    2    1    2    0    0 -0.57084112486E+02  0.73887051322E+01 -0.16232266240E+03  0.19009230903E+03  0.80456512236E+02 0.  0.
         23    2    1    2    0    0  0.57974016611E+02 -0.27674257910E+02 -0.90728617798E+02  0.14352582044E+03  0.90780658148E+02 0.  0.
        -11    1    3    3    0    0 -0.32330259585E+02  0.38828315111E+02 -0.50974949900E+02  0.71772761243E+02  0.00000000000E+00 0.  1.
         12    1    3    3    0    0 -0.24753852900E+02 -0.31439609978E+02 -0.11134771250E+03  0.11831954779E+03  0.00000000000E+00 0. -1.
        -13    1    4    4    0    0  0.27421740025E+02 -0.18016292776E+02  0.12749134675E+02  0.35200554915E+02  0.00000000000E+00 0.  1.
         13    1    4    4    0    0  0.30552276586E+02 -0.96579651336E+01 -0.10347775247E+03  0.10832526553E+03  0.00000000000E+00 0. -1.
          1    1    1    2  501    0 -0.88990412524E+00  0.20285552777E+02  0.12410829480E+03  0.12575835726E+03  0.00000000000E+00 0. -1.
<scales pt_clust_5="13000.00000" pt_clust_6="13000.00000" pt_clust_7="13000.00000" pt_clust_8="13000.00000" pt_clust_9="20.30506"></scales>
<clustering>
<clus scale="   20.305">  1  9  2 -1</clus>
<clus scale="   80.457">  5  6 -1 -1</clus>
<clus scale="   90.781">  7  8 -1 -1</clus>
<clus scale="   99.869">  2  5  1 -1</clus>
<clus scale="   20.305">  1  5  2 -1</clus>
</clustering>
</event>
<event>
 9    2  0.5615294E-005  0.2289371E+03  0.7546771E-02  0.1127390E+00
          2   -1    0    0  502    0 -0.00000000000E+00  0.00000000000E+00  0.84308901118E+03  0.84308901118E+03  0.00000000000E+00 0. -1.
         21   -1    0    0  501  502  0.00000000000E+00 -0.00000000000E+00 -0.53893685245E+02  0.53893685245E+02  0.00000000000E+00 0. -1.
         24    2    1    2    0    0 -0.35996974852E+02 -0.53804467715E+02  0.30219345025E+03  0.31910098505E+03  0.79459765541E+02 0.  0.
         23    2    1    2    0    0 -0.35447930899E+02 -0.78800918854E+02  0.35767048926E+03  0.37934916840E+03  0.92257639597E+02 0.  0.
        -11    1    3    3    0    0 -0.42395544603E+02 -0.13276796790E+01  0.78298113791E+02  0.89049085109E+02  0.00000000000E+00 0.  1.
         12    1    3    3    0    0  0.63985697509E+01 -0.52476788036E+02  0.22389533646E+03  0.23005189994E+03  0.00000000000E+00 0. -1.
        -13    1    4    4    0    0  0.10364220888E+02 -0.70780808885E+02  0.14541806415E+03  0.16206095570E+03  0.00000000000E+00 0. -1.
         13    1    4    4    0    0 -0.45812151787E+02 -0.80201099691E+01  0.21225242511E+03  0.21728821270E+03  0.00000000000E+00 0.  1.
          1    1    1    2  501    0  0.71444905751E+02  0.13260538657E+03  0.12933138643E+03  0.19853254297E+03  0.00000000000E+00 0. -1.
<scales pt_clust_5="13000.00000" pt_clust_6="13000.00000" pt_clust_7="13000.00000" pt_clust_8="13000.00000" pt_clust_9="150.62723"></scales>
<clustering>
<clus scale="   79.460">  5  6 -1 -1</clus>
<clus scale="   92.258">  7  8 -1 -1</clus>
<clus scale="   93.097">  5  7 -1 -1</clus>
<clus scale="  150.627">  2  9  1 -1</clus>
<clus scale="  150.627">  2  5  1 -1</clus>
</clustering>
</event>
<event>
 9    2  0.5615294E-005  0.9588704E+02  0.7546771E-02  0.1312861E+00
          2   -1    0    0  502    0 -0.00000000000E+00  0.00000000000E+00  0.92077937378E+02  0.92077937378E+02  0.00000000000E+00 0. -1.
         21   -1    0    0  501  502  0.00000000000E+00 -0.00000000000E+00 -0.35460651948E+03  0.35460651948E+03  0.00000000000E+00 0.  1.
         24    2    1    2    0    0 -0.15626028767E+02  0.92245967669E+00 -0.50967151863E+02  0.81360329623E+02  0.61455910703E+02 0.  0.
         23    2    1    2    0    0 -0.30984580607E+02 -0.22170481297E+02 -0.26922214028E+03  0.28819576143E+03  0.95523094672E+02 0.  0.
        -13    1    3    3    0    0 -0.11013139812E+02  0.30653783225E+02 -0.20200513415E+02  0.38327593412E+02  0.00000000000E+00 0.  1.
         14    1    3    3    0    0 -0.46128889550E+01 -0.29731323548E+02 -0.30766638448E+02  0.43032736211E+02  0.00000000000E+00 0. -1.
        -13    1    4    4    0    0 -0.55771492805E+02  0.83489308077E+00 -0.90544220222E+02  0.10634572051E+03  0.00000000000E+00 0. -1.
         13    1    4    4    0    0  0.24786912198E+02 -0.23005374377E+02 -0.17867792005E+03  0.18185004092E+03  0.00000000000E+00 0.  1.
          1    1    1    2  501    0  0.46610609373E+02  0.21248021620E+02  0.57660710039E+02  0.77128365801E+02  0.00000000000E+00 0. -1.
<scales pt_clust_5="13000.00000" pt_clust_6="13000.00000" pt_clust_7="13000.00000" pt_clust_8="13000.00000" pt_clust_9="51.22529"></scales>
<clustering>
<clus scale="   51.225">  2  9  1 -1</clus>
<clus scale="   61.456">  5  6 -1 -1</clus>
<clus scale="   62.020">  1  5  2 -1</clus>
<clus scale="   95.523">  7  8 -1 -1</clus>
<clus scale="   51.225">  2  5  1 -1</clus>
</clustering>
</event>
<event>
 9    2  0.5615294E-005  0.1348749E+03  0.7546771E-02  0.1245988E+00
          2   -1    0    0  502    0 -0.00000000000E+00  0.00000000000E+00  0.27968490347E+03  0.27968490347E+03  0.00000000000E+00 0. -1.
         21   -1    0    0  501  502  0.00000000000E+00 -0.00000000000E+00 -0.14893463949E+03  0.14893463949E+03  0.00000000000E+00 0. -1.
         24    2    1    2    0    0 -0.76558478408E+01  0.87204704737E+01  0.14329281990E+03  0.16398107215E+03  0.78881564252E+02 0.  0.
         23    2    1    2    0    0  0.10178722409E+03  0.19328556215E+02  0.51493876701E+02  0.14738605678E+03  0.91306069464E+02 0.  0.
        -13    1    3    3    0    0 -0.27312660541E+02  0.16723205803E+02  0.13859088789E+03  0.14224303583E+03  0.00000000000E+00 0.  1.
         14    1    3    3    0    0  0.19656812701E+02 -0.80027353295E+01  0.47019320091E+01  0.21738036317E+02  0.00000000000E+00 0. -1.
        -13    1    4    4    0    0  0.47294144280E+02  0.36361074508E+02  0.65505115702E+02  0.88599006799E+02  0.00000000000E+00 0. -1.
         13    1    4    4    0    0  0.54493079811E+02 -0.17032518293E+02 -0.14011239002E+02  0.58787049978E+02  0.00000000000E+00 0.  1.
          1    1    1    2  501    0 -0.94131376251E+02 -0.28049026689E+02 -0.64036432616E+02  0.11725241403E+03  0.00000000000E+00 0. -1.
<scales pt_clust_5="13000.00000" pt_clust_6="13000.00000" pt_clust_7="13000.00000" pt_clust_8="13000.00000" pt_clust_9="99.26958"></scales>
<clustering>
<clus scale="   78.882">  5  6 -1 -1</clus>
<clus scale="   79.731">  1  5  2 -1</clus>
<clus scale="   91.306">  7  8 -1 -1</clus>
<clus scale="   99.270">  2  9  1 -1</clus>
<clus scale="   99.270">  2  5  1 -1</clus>
</clustering>
</event>
<event>
 9    2  0.5615294E-005  0.1647940E+03  0.7546771E-02  0.1185078E+00
         -1   -1    0    0    0  501 -0.00000000000E+00  0.00000000000E+00  0.90250332382E+02  0.90250332382E+02  0.00000000000E+00 0.  1.
         21   -1    0    0  501  502  0.00000000000E+00 -0.00000000000E+00 -0.41956151466E+03  0.41956151466E+03  0.00000000000E+00 0. -1.
         24    2    1    2    0    0  0.13929431824E+03 -0.40113559024E+02 -0.40571138761E+02  0.16950917930E+03  0.77944466497E+02 0.  0.
         23    2    1    2    0    0 -0.12077856448E+03  0.18454221208E+02 -0.24097541881E+03  0.28468415081E+03  0.89710051463E+02 0.  0.
        -13    1    3    3    0    0  0.14321463339E+03 -0.20790695291E+02 -0.38031049165E+02  0.14962969267E+03  0.00000000000E+00 0.  1.
         14    1    3    3    0    0 -0.39203151528E+01 -0.19322863733E+02 -0.25400895964E+01  0.19879486636E+02  0.00000000000E+00 0. -1.
        -11    1    4    4    0    0 -0.95188237711E+02  0.14352809792E+02 -0.90940515657E+02  0.13242726734E+03  0.00000000000E+00 0.  1.
         11    1    4    4    0    0 -0.25590326770E+02  0.41014114158E+01 -0.15003490315E+03  0.15225688347E+03  0.00000000000E+00 0. -1.
         -2    1    1    2    0  502 -0.18515753755E+02  0.21659337816E+02 -0.47764624710E+02  0.55618516929E+02  0.00000000000E+00 0.  1.
<scales pt_clust_5="13000.00000" pt_clust_6="13000.00000" pt_clust_7="13000.00000" pt_clust_8="13000.00000" pt_clust_9="28.49491"></scales>
<clustering>
<clus scale="   28.495">  2  9  1 -1</clus>
<clus scale="   77.944">  5  6 -1 -1</clus>
<clus scale="   89.710">  7  8 -1 -1</clus>
<clus scale="  158.696">  1  5  2 -1</clus>
<clus scale="   28.495">  2  5  1 -1</clus>
</clustering>
</event>
<event>
 9    2  0.5615294E-005  0.9862475E+02  0.7546771E-02  0.1289135E+00
         21   -1    0    0  501  502  0.00000000000E+00  0.00000000000E+00  0.52097090047E+03  0.52097090047E+03  0.00000000000E+00 0. -1.
          4   -1    0    0  502    0 -0.00000000000E+00 -0.00000000000E+00 -0.63443914787E+02  0.63443914787E+02  0.00000000000E+00 0. -1.
         24    2    1    2    0    0  0.42852912259E+02 -0.10952821926E+02  0.39883105841E+02  0.99730177362E+02  0.79994435730E+02 0.  0.
         23    2    1    2    0    0 -0.28060702554E+01 -0.41999468528E+02  0.40474224361E+03  0.41705219867E+03  0.91347814766E+02 0.  0.
        -11    1    3    3    0    0  0.44642973501E+02  0.24950218098E+02  0.38034839607E+02  0.63735056994E+02  0.00000000000E+00 0.  1.
         12    1    3    3    0    0 -0.17900612417E+01 -0.35903040024E+02  0.18482662343E+01  0.35995120368E+02  0.00000000000E+00 0. -1.
        -11    1    4    4    0    0  0.79032085331E+01 -0.67267159759E+02  0.34087117425E+03  0.34753487440E+03  0.00000000000E+00 0. -1.
         11    1    4    4    0    0 -0.10709278789E+02  0.25267691231E+02  0.63871069356E+02  0.69517324266E+02  0.00000000000E+00 0.  1.
          3    1    1    2  501    0 -0.40046842004E+02  0.52952290454E+02  0.12901636232E+02  0.67632439231E+02  0.00000000000E+00 0. -1.
<scales pt_clust_5="13000.00000" pt_clust_6="13000.00000" pt_clust_7="13000.00000" pt_clust_8="13000.00000" pt_clust_9="66.39050"></scales>
<clustering>
<clus scale="   66.391">  1  9  2 -1</clus>
<clus scale="   79.994">  5  6 -1 -1</clus>
<clus scale="   88.213">  2  5  1 -1</clus>
<clus scale="   91.348">  7  8 -1 -1</clus>
<clus scale="   66.391">  1  5  2 -1</clus>
</clustering>
</event>
<event>
 9    2  0.5615294E-005  0.9964853E+02  0.7546771E-02  0.1285787E+00
          2   -1    0    0  502    0 -0.00000000000E+00  0.00000000000E+00  0.15967191431E+03  0.15967191431E+03  0.00000000000E+00 0. -1.
         21   -1    0    0  501  502  0.00000000000E+00 -0.00000000000E+00 -0.12385493500E+03  0.12385493500E+03  0.00000000000E+00 0. -1.
         24    2    1    2    0    0  0.93104486647E+01  0.25185938947E+02  0.38583452949E+02  0.93752192031E+02  0.81115810383E+02 0.  0.
         23    2    1    2    0    0  0.34141585770E+02 -0.66732393299E+02  0.29899673260E+02  0.12135489173E+03  0.90631998162E+02 0.  0.
        -11    1    3    3    0    0  0.12298151261E+01  0.24530448002E+02  0.63216031386E+02  0.67819775499E+02  0.00000000000E+00 0.  1.
         12    1    3    3    0    0  0.80806335386E+01  0.65549094419E+00 -0.24632578437E+02  0.25932416532E+02  0.00000000000E+00 0. -1.
        -11    1    4    4    0    0 -0.13555156088E+02 -0.51216888362E+02  0.44420675522E+02  0.69138327460E+02  0.00000000000E+00 0. -1.
         11    1    4    4    0    0  0.47696741857E+02 -0.15515504936E+02 -0.14521002262E+02  0.52216564268E+02  0.00000000000E+00 0.  1.
          1    1    1    2  501    0 -0.43452034434E+02  0.41546454352E+02 -0.32666146900E+02  0.68419765558E+02  0.00000000000E+00 0. -1.
<scales pt_clust_5="13000.00000" pt_clust_6="13000.00000" pt_clust_7="13000.00000" pt_clust_8="13000.00000" pt_clust_9="60.11811"></scales>
<clustering>
<clus scale="   60.118">  2  9  1 -1</clus>
<clus scale="   81.116">  5  6 -1 -1</clus>
<clus scale="   90.632">  7  8 -1 -1</clus>
<clus scale="   91.079">  1  5  2 -1</clus>
<clus scale="   60.118">  2  5  1 -1</clus>
</clustering>
</event>
<event>
 9    2  0.5615294E-005  0.1080828E+03  0.7546771E-02  0.1268776E+00
          2   -1    0    0  502    0 -0.00000000000E+00  0.00000000000E+00  0.90898835743E+03  0.90898835743E+03  0.00000000000E+00 0. -1.
         21   -1    0    0  501  502  0.00000000000E+00 -0.00000000000E+00 -0.47594380600E+02  0.47594380600E+02  0.00000000000E+00 0.  1.
         24    2    1    2    0    0  0.39626147921E+02  0.37118592281E+02  0.72743014957E+03  0.73380426165E+03  0.79787533046E+02 0.  0.
         23    2    1    2    0    0 -0.77484940566E+02 -0.54969495005E+02  0.12154115054E+03  0.17911767238E+03  0.91023776505E+02 0.  0.
        -11    1    3    3    0    0  0.13170518094E+02  0.45320624776E+02  0.19410232271E+03  0.19975768636E+03  0.00000000000E+00 0.  1.
         12    1    3    3    0    0  0.26455629828E+02 -0.82020324955E+01  0.53332782685E+03  0.53404657529E+03  0.00000000000E+00 0. -1.
        -13    1    4    4    0    0 -0.49581246126E+02  0.18345276745E+02  0.54490678692E+02  0.75921559591E+02  0.00000000000E+00 0.  1.
         13    1    4    4    0    0 -0.27903694440E+02 -0.73314771750E+02  0.67050471843E+02  0.10319611279E+03  0.00000000000E+00 0. -1.
          1    1    1    2  501    0  0.37858792645E+02  0.17850902724E+02  0.12422676726E+02  0.43660803997E+02  0.00000000000E+00 0. -1.
<scales pt_clust_5="13000.00000" pt_clust_6="13000.00000" pt_clust_7="13000.00000" pt_clust_8="13000.00000" pt_clust_9="41.85622"></scales>
<clustering>
<clus scale="   41.856">  2  9  1 -1</clus>
<clus scale="   79.788">  5  6 -1 -1</clus>
<clus scale="   91.024">  7  8 -1 -1</clus>
<clus scale="   98.806">  1  5  2 -1</clus>
<clus scale="   41.856">  2  5  1 -1</clus>
</clustering>
</event>
<event>
 9    2  0.5615294E-005  0.2154151E+03  0.7546771E-02  0.1165182E+00
          2   -1    0    0  502    0 -0.00000000000E+00  0.00000000000E+00  0.15001264098E+03  0.15001264098E+03  0.00000000000E+00 0. -1.
         21   -1    0    0  501  502  0.00000000000E+00 -0.00000000000E+00 -0.52461906140E+03  0.52461906140E+03  0.00000000000E+00 0. -1.
         24    2    1    2    0    0  0.31441123843E+01 -0.75402066792E+02 -0.87349223146E+02  0.14167745897E+03  0.82141697558E+02 0.  0.
         23    2    1    2    0    0 -0.11473086584E+03 -0.10567915261E+03 -0.70166925371E+01  0.18113503976E+03  0.91811839016E+02 0.  0.
        -11    1    3    3    0    0 -0.36454317938E+02 -0.52590290361E+02 -0.63417324661E+02  0.90091137210E+02  0.00000000000E+00 0.  1.
         12    1    3    3    0    0  0.39598430323E+02 -0.22811776431E+02 -0.23931898485E+02  0.51586321763E+02  0.00000000000E+00 0. -1.
        -13    1    4    4    0    0 -0.47596176950E+02 -0.60196314376E+02  0.40886078104E+02  0.86952077074E+02  0.00000000000E+00 0. -1.
         13    1    4    4    0    0 -0.67134688885E+02 -0.45482838229E+02 -0.47902770641E+02  0.94182962685E+02  0.00000000000E+00 0.  1.
          1    1    1    2  501    0  0.11158675345E+03  0.18108121940E+03 -0.28024050474E+03  0.35181920365E+03  0.00000000000E+00 0. -1.
<scales pt_clust_5="13000.00000" pt_clust_6="13000.00000" pt_clust_7="13000.00000" pt_clust_8="13000.00000" pt_clust_9="194.86984"></scales>
<clustering>
<clus scale="   82.142">  5  6 -1 -1</clus>
<clus scale="   91.812">  7  8 -1 -1</clus>
<clus scale="  111.547">  1  5  2 -1</clus>
<clus scale="  194.870">  2  9  1 -1</clus>
<clus scale="  194.870">  2  5  1 -1</clus>
</clustering>
</event>
<event>
 9    2  0.5615294E-005  0.1501076E+03  0.7546771E-02  0.1202055E+00
          2   -1    0    0  502    0 -0.00000000000E+00  0.00000000000E+00  0.76333384703E+02  0.76333384703E+02  0.00000000000E+00 0. -1.
         21   -1    0    0  501  502  0.00000000000E+00 -0.00000000000E+00 -0.41406559912E+03  0.41406559912E+03  0.00000000000E+00 0. -1.
         23    2    1    2    0    0 -0.33602675241E+02  0.12284037406E+03 -0.11797935236E+03  0.19560780962E+03  0.90135399932E+02 0.  0.
         24    2    1    2    0    0  0.16840195262E+02 -0.10746493839E+03 -0.23223751513E+03  0.26884408728E+03  0.80688132151E+02 0.  0.
        -11    1    4    4    0    0  0.17794667715E+02 -0.23836396306E+02 -0.14489573061E+03  0.14791753356E+03  0.00000000000E+00 0.  1.
         12    1    4    4    0    0 -0.95447245339E+00 -0.83628542085E+02 -0.87341784527E+02  0.12092655372E+03  0.00000000000E+00 0. -1.
        -13    1    3    3    0    0 -0.47291256362E+02  0.40170387539E+02 -0.16896519357E+02  0.64308750025E+02  0.00000000000E+00 0. -1.
         13    1    3    3    0    0  0.13688581121E+02  0.82669986521E+02 -0.10108283300E+03  0.13129905960E+03  0.00000000000E+00 0.  1.
          1    1    1    2  501    0  0.16762479980E+02 -0.15375435668E+02  0.12484653075E+02  0.25947086917E+02  0.00000000000E+00 0. -1.
<scales pt_clust_5="13000.00000" pt_clust_6="13000.00000" pt_clust_7="13000.00000" pt_clust_8="13000.00000" pt_clust_9="22.74610"></scales>
<clustering>
<clus scale="   22.746">  2  9  1 -1</clus>
<clus scale="   80.688">  5  6 -1 -1</clus>
<clus scale="   90.135">  7  8 -1 -1</clus>
<clus scale="  144.632">  2  5  1 -1</clus>
<clus scale="   22.746">  2  5  1 -1</clus>
</clustering>
</event>
<event>
 9    2  0.5615294E-005  0.9447401E+02  0.7546771E-02  0.1297371E+00
          2   -1    0    0  502    0 -0.00000000000E+00  0.00000000000E+00  0.46631149370E+03  0.46631149370E+03  0.00000000000E+00 0. -1.
         21   -1    0    0  501  502  0.00000000000E+00 -0.00000000000E+00 -0.41501609018E+02  0.41501609018E+02  0.00000000000E+00 0.  1.
         24    2    1    2    0    0 -0.15314480149E+02 -0.25943839098E+02  0.35745248148E+03  0.36797916828E+03  0.82029114831E+02 0.  0.
         23    2    1    2    0    0  0.11608112289E+02 -0.33055990238E+01  0.41262305585E+02  0.10046108958E+03  0.90797452612E+02 0.  0.
        -13    1    3    3    0    0  0.32784899445E+02 -0.19217833578E+02  0.18223300647E+03  0.18615327933E+03  0.00000000000E+00 0.  1.
         14    1    3    3    0    0 -0.48099379595E+02 -0.67260055200E+01  0.17521947501E+03  0.18182588894E+03  0.00000000000E+00 0. -1.
        -13    1    4    4    0    0  0.21904742558E+02 -0.25954812066E+02 -0.16359413609E+02  0.37697485719E+02  0.00000000000E+00 0.  1.
         13    1    4    4    0    0 -0.10296630269E+02  0.22649213042E+02  0.57621719194E+02  0.62763603857E+02  0.00000000000E+00 0. -1.
          1    1    1    2  501    0  0.37063678602E+01  0.29249438122E+02  0.26095097616E+02  0.39372844865E+02  0.00000000000E+00 0. -1.
<scales pt_clust_5="13000.00000" pt_clust_6="13000.00000" pt_clust_7="13000.00000" pt_clust_8="13000.00000" pt_clust_9="29.48333"></scales>
<clustering>
<clus scale="   29.483">  2  9  1 -1</clus>
<clus scale="   82.029">  5  6 -1 -1</clus>
<clus scale="   86.081">  1  5  2 -1</clus>
<clus scale="   90.797">  7  8 -1 -1</clus>
<clus scale="   29.483">  2  5  1 -1</clus>
</clustering>
</event>
<event>
 9    2  0.5615294E-005  0.8935699E+02  0.7546771E-02  0.1309777E+00
         21   -1    0    0  501  502  0.00000000000E+00  0.00000000000E+00  0.35200787094E+03  0.35200787094E+03  0.00000000000E+00 0.  1.
         -1   -1    0    0    0  501 -0.00000000000E+00 -0.00000000000E+00 -0.43482451372E+02  0.43482451372E+02  0.00000000000E+00 0.  1.
         24    2    1    2    0    0  0.66074319185E+01 -0.65305387422E+01  0.35250083915E+02  0.88017023149E+02  0.80113181532E+02 0.  0.
         23    2    1    2    0    0  0.10649684999E+02  0.33712620072E+02  0.25053517712E+03  0.26805517592E+03  0.88519748203E+02 0.  0.
        -11    1    3    3    0    0 -0.47668493320E+01 -0.37817774138E+02  0.38978626689E+02  0.54518255950E+02  0.00000000000E+00 0.  1.
         12    1    3    3    0    0  0.11374281251E+02  0.31287235395E+02 -0.37285427738E+01  0.33498767199E+02  0.00000000000E+00 0. -1.
        -13    1    4    4    0    0  0.31584862433E+02  0.53508769148E+02  0.12946209874E+03  0.14360092938E+03  0.00000000000E+00 0.  1.
         13    1    4    4    0    0 -0.20935177434E+02 -0.19796149076E+02  0.12107307838E+03  0.12445424654E+03  0.00000000000E+00 0. -1.
         -2    1    1    2    0  502 -0.17257116918E+02 -0.27182081330E+02  0.22740158534E+02  0.39418123241E+02  0.00000000000E+00 0.  1.
<scales pt_clust_5="13000.00000" pt_clust_6="13000.00000" pt_clust_7="13000.00000" pt_clust_8="13000.00000" pt_clust_9="32.19743"></scales>
<clustering>
<clus scale="   32.197">  1  9  2 -1</clus>
<clus scale="   80.113">  5  6 -1 -1</clus>
<clus scale="   81.037">  2  5  1 -1</clus>
<clus scale="   88.520">  7  8 -1 -1</clus>
<clus scale="   32.197">  1  5  2 -1</clus>
</clustering>
</event>
<event>
 9    2  0.5615294E-005  0.1498227E+03  0.7546771E-02  0.1202881E+00
         -1   -1    0    0    0  501 -0.00000000000E+00  0.00000000000E+00  0.67359827872E+03  0.67359827872E+03  0.00000000000E+00 0.  1.
         21   -1    0    0  501  502  0.00000000000E+00 -0.00000000000E+00 -0.56272497573E+02  0.56272497573E+02  0.00000000000E+00 0.  1.
         23    2    1    2    0    0 -0.99349717455E+02 -0.47319547955E+02  0.30409348908E+03  0.33607689182E+03  0.91462129510E+02 0.  0.
         24    2    1    2    0    0  0.11123397677E+03  0.87145772424E+02  0.13570198280E+03  0.21146348524E+03  0.79588907620E+02 0.  0.
        -13    1    4    4    0    0  0.80639381966E+02  0.93492126498E+02  0.78567643372E+02  0.14634330263E+03  0.00000000000E+00 0.  1.
         14    1    4    4    0    0  0.30594594808E+02 -0.63463540744E+01  0.57134339425E+02  0.65120182609E+02  0.00000000000E+00 0. -1.
        -13    1    3    3    0    0 -0.16837819401E+02 -0.13486552978E+02  0.26697819772E+01  0.21737686381E+02  0.00000000000E+00 0. -1.
         13    1    3    3    0    0 -0.82511898054E+02 -0.33832994977E+02  0.30142370710E+03  0.31433920543E+03  0.00000000000E+00 0.  1.
         -2    1    1    2    0  502 -0.11884259320E+02 -0.39826224469E+02  0.17753030927E+03  0.18233039923E+03  0.00000000000E+00 0.  1.
<scales pt_clust_5="13000.00000" pt_clust_6="13000.00000" pt_clust_7="13000.00000" pt_clust_8="13000.00000" pt_clust_9="41.56159"></scales>
<clustering>
<clus scale="   41.562">  2  9  1 -1</clus>
<clus scale="   79.589">  5  6 -1 -1</clus>
<clus scale="   91.462">  7  8 -1 -1</clus>
<clus scale="  142.884">  2  5  1 -1</clus>
<clus scale="   41.562">  2  5  1 -1</clus>
</clustering>
</event>
<event>
 9    2  0.5615294E-005  0.1297643E+03  0.7546771E-02  0.1244305E+00
         21   -1    0    0  501  502  0.00000000000E+00  0.00000000000E+00  0.82531405997E+02  0.82531405997E+02  0.00000000000E+00 0. -1.
          2   -1    0    0  502    0 -0.00000000000E+00 -0.00000000000E+00 -0.12317018689E+04  0.12317018689E+04  0.00000000000E+00 0. -1.
         24    2    1    2    0    0  0.48139693825E+02 -0.98089869427E+01 -0.10616406550E+04  0.10656726121E+04  0.78508531598E+02 0.  0.
         23    2    1    2    0    0 -0.26127922850E+02 -0.86161247992E+02 -0.24190670445E+02  0.13148525806E+03  0.92718690364E+02 0.  0.
        -13    1    3    3    0    0  0.36610878130E+02 -0.67376782676E+01 -0.17335429914E+03  0.17730613564E+03  0.00000000000E+00 0.  1.
         14    1    3    3    0    0  0.11528815694E+02 -0.30713086752E+01 -0.88828635588E+03  0.88836647650E+03  0.00000000000E+00 0. -1.
        -11    1    4    4    0    0  0.27280512483E+02 -0.62950141776E+02 -0.47940262186E+00  0.68608866321E+02  0.00000000000E+00 0.  1.
         11    1    4    4    0    0 -0.53408435333E+02 -0.23211106217E+02 -0.23711267824E+02  0.62876391741E+02  0.00000000000E+00 0. -1.
          1    1    1    2  501    0 -0.22011770975E+02  0.95970234935E+02 -0.63339137460E+02  0.11707540471E+03  0.00000000000E+00 0. -1.
<scales pt_clust_5="13000.00000" pt_clust_6="13000.00000" pt_clust_7="13000.00000" pt_clust_8="13000.00000" pt_clust_9="90.78560"></scales>
<clustering>
<clus scale="   78.509">  5  6 -1 -1</clus>
<clus scale="   92.613">  2  5  1 -1</clus>
<clus scale="   90.786">  1  9  2 -1</clus>
<clus scale="   92.719">  7  8 -1 -1</clus>
<clus scale="   90.786">  1  5  2 -1</clus>
</clustering>
</event>
<event>
 9    2  0.5615294E-005  0.9460452E+02  0.7546771E-02  0.1298741E+00
         -3   -1    0    0    0  501 -0.00000000000E+00  0.00000000000E+00  0.42324311160E+03  0.42324311160E+03  0.00000000000E+00 0.  1.
         21   -1    0    0  501  502  0.00000000000E+00 -0.00000000000E+00 -0.35896578235E+02  0.35896578235E+02  0.00000000000E+00 0.  1.
         24    2    1    2    0    0 -0.29209252957E+02 -0.15846283301E+02  0.25519555375E+03  0.26963792684E+03  0.80470838098E+02 0.  0.
         23    2    1    2    0    0  0.25815764256E+01 -0.44644799917E+01  0.12507190105E+03  0.15527204468E+03  0.91868554504E+02 0.  0.
        -13    1    3    3    0    0 -0.26019397995E+02 -0.38409906756E+02  0.76303919464E+02  0.89300717436E+02  0.00000000000E+00 0.  1.
         14    1    3    3    0    0 -0.31898549622E+01  0.22563623455E+02  0.17889163429E+03  0.18033720941E+03  0.00000000000E+00 0. -1.
        -11    1    4    4    0    0 -0.91460000667E+01  0.25222155439E+02  0.66691401148E+00  0.26837496465E+02  0.00000000000E+00 0.  1.
         11    1    4    4    0    0  0.11727576492E+02 -0.29686635431E+02  0.12440498704E+03  0.12843454821E+03  0.00000000000E+00 0. -1.
         -4    1    1    2    0  502  0.26627676532E+02  0.20310763293E+02  0.70790785645E+01  0.34229718321E+02  0.00000000000E+00 0.  1.
<scales pt_clust_5="13000.00000" pt_clust_6="13000.00000" pt_clust_7="13000.00000" pt_clust_8="13000.00000" pt_clust_9="33.48970"></scales>
<clustering>
<clus scale="   33.490">  2  9  1 -1</clus>
<clus scale="   80.471">  5  6 -1 -1</clus>
<clus scale="   83.581">  1  5  2 -1</clus>
<clus scale="   91.869">  7  8 -1 -1</clus>
<clus scale="   33.490">  2  5  1 -1</clus>
</clustering>
</event>
<event>
 9    2  0.5615294E-005  0.1035960E+03  0.7546771E-02  0.1280829E+00
          2   -1    0    0  502    0 -0.00000000000E+00  0.00000000000E+00  0.10251931169E+04  0.10251931169E+04  0.00000000000E+00 0. -1.
         21   -1    0    0  501  502  0.00000000000E+00 -0.00000000000E+00 -0.29615515590E+02  0.29615515590E+02  0.00000000000E+00 0. -1.
         24    2    1    2    0    0 -0.78572357911E+01 -0.45334749521E+02  0.75719003927E+03  0.76278908276E+03  0.79959074161E+02 0.  0.
         23    2    1    2    0    0  0.24366306488E+02 -0.14788301188E+02  0.10643634132E+03  0.14607964671E+03  0.95907026265E+02 0.  0.
        -11    1    3    3    0    0 -0.22823274464E+02  0.12684908415E+02  0.12109684316E+03  0.12387999912E+03  0.00000000000E+00 0.  1.
         12    1    3    3    0    0  0.14966038673E+02 -0.58019657936E+02  0.63609319610E+03  0.63890908363E+03  0.00000000000E+00 0. -1.
        -13    1    4    4    0    0  0.25284604088E+01  0.40429410701E+02  0.47318180401E+02  0.62289168867E+02  0.00000000000E+00 0.  1.
         13    1    4    4    0    0  0.21837846079E+02 -0.55217711889E+02  0.59118160916E+02  0.83790477847E+02  0.00000000000E+00 0. -1.
          1    1    1    2  501    0 -0.16509070697E+02  0.60123050709E+02  0.13195122071E+03  0.14593990300E+03  0.00000000000E+00 0. -1.
<scales pt_clust_5="13000.00000" pt_clust_6="13000.00000" pt_clust_7="13000.00000" pt_clust_8="13000.00000" pt_clust_9="62.34846"></scales>
<clustering>
<clus scale="   62.348">  2  9  1 -1</clus>
<clus scale="   79.959">  5  6 -1 -1</clus>
<clus scale="   89.036">  1  5  2 -1</clus>
<clus scale="   95.907">  7  8 -1 -1</clus>
<clus scale="   62.348">  2  5  1 -1</clus>
</clustering>
</event>
<event>
 9    2  0.5615294E-005  0.1064773E+03  0.7546771E-02  0.1271646E+00
          4   -1    0    0  502    0 -0.00000000000E+00  0.00000000000E+00  0.14824925009E+03  0.14824925009E+03  0.00000000000E+00 0. -1.
         21   -1    0    0  501  502  0.00000000000E+00 -0.00000000000E+00 -0.13440013983E+03  0.13440013983E+03  0.00000000000E+00 0.  1.
         24    2    1    2    0    0 -0.53177715880E+02 -0.23908171479E+02  0.72730738269E+02  0.12378493322E+03  0.81446174087E+02 0.  0.
         23    2    1    2    0    0  0.46541349479E+02  0.44775373102E+01 -0.71416341767E+01  0.10319922639E+03  0.91722035727E+02 0.  0.
        -13    1    3    3    0    0  0.16251632015E+02  0.11736536505E+02  0.25958682286E+02  0.32798094736E+02  0.00000000000E+00 0.  1.
         14    1    3    3    0    0 -0.69429347895E+02 -0.35644707984E+02  0.46772055983E+02  0.90986838484E+02  0.00000000000E+00 0. -1.
        -11    1    4    4    0    0 -0.20283035958E+02  0.22599474309E+02 -0.14350715925E+02  0.33586914629E+02  0.00000000000E+00 0.  1.
         11    1    4    4    0    0  0.66824385437E+02 -0.18121936999E+02  0.72090817481E+01  0.69612311765E+02  0.00000000000E+00 0. -1.
          3    1    1    2  501    0  0.66363664014E+01  0.19430634169E+02 -0.51739993828E+02  0.55665230302E+02  0.00000000000E+00 0. -1.
<scales pt_clust_5="13000.00000" pt_clust_6="13000.00000" pt_clust_7="13000.00000" pt_clust_8="13000.00000" pt_clust_9="20.53268"></scales>
<clustering>
<clus scale="   20.533">  2  9  1 -1</clus>
<clus scale="   81.446">  5  6 -1 -1</clus>
<clus scale="   91.722">  7  8 -1 -1</clus>
<clus scale="   97.765">  1  5  2 -1</clus>
<clus scale="   20.533">  2  5  1 -1</clus>
</clustering>
</event>
<event>
 9    2  0.5615294E-005  0.2445350E+03  0.7546771E-02  0.1162758E+00
         21   -1    0    0  501  502  0.00000000000E+00  0.00000000000E+00  0.12163768146E+03  0.12163768146E+03  0.00000000000E+00 0.  1.
          2   -1    0    0  502    0 -0.00000000000E+00 -0.00000000000E+00 -0.72570720319E+03  0.72570720319E+03  0.00000000000E+00 0. -1.
         24    2    1    2    0    0  0.16943608603E+02  0.11027721889E+02 -0.20626951564E+03  0.22147576355E+03  0.78074991081E+02 0.  0.
         23    2    1    2    0    0 -0.23899644183E+03 -0.12690735296E+02 -0.26341767770E+03  0.36631404691E+03  0.86699216046E+02 0.  0.
        -11    1    3    3    0    0 -0.50144688081E+01  0.35835452533E+02 -0.16306339369E+03  0.16702992222E+03  0.00000000000E+00 0.  1.
         12    1    3    3    0    0  0.21958077411E+02 -0.24807730644E+02 -0.43206121951E+02  0.54445841323E+02  0.00000000000E+00 0. -1.
        -11    1    4    4    0    0 -0.90697750179E+01  0.19869427841E+02 -0.29464052821E+02  0.36676769081E+02  0.00000000000E+00 0. -1.
         11    1    4    4    0    0 -0.22992666682E+03 -0.32560163137E+02 -0.23395362488E+03  0.32963727782E+03  0.00000000000E+00 0.  1.
          1    1    1    2  501    0  0.22205283323E+03  0.16630134065E+01 -0.13438232838E+03  0.25955507420E+03  0.00000000000E+00 0. -1.
<scales pt_clust_5="13000.00000" pt_clust_6="13000.00000" pt_clust_7="13000.00000" pt_clust_8="13000.00000" pt_clust_9="228.64953"></scales>
<clustering>
<clus scale="   78.075">  5  6 -1 -1</clus>
<clus scale="   80.650">  2  5  1 -1</clus>
<clus scale="   86.699">  7  8 -1 -1</clus>
<clus scale="  228.650">  1  9  2 -1</clus>
<clus scale="  228.650">  1  5  2 -1</clus>
</clustering>
</event>
<event>
 9    2  0.5615294E-005  0.9389605E+02  0.7546771E-02  0.1298107E+00
         21   -1    0    0  501  502  0.00000000000E+00  0.00000000000E+00  0.67271399519E+02  0.67271399519E+02  0.00000000000E+00 0. -1.
          2   -1    0    0  502    0 -0.00000000000E+00 -0.00000000000E+00 -0.23272907153E+03  0.23272907153E+03  0.00000000000E+00 0. -1.
         23    2    1    2    0    0  0.27196307056E+01 -0.19907434685E+02 -0.11979822427E+03  0.15036692012E+03  0.88627838632E+02 0.  0.
         24    2    1    2    0    0 -0.25637300529E+02  0.44641413171E+02 -0.59986968401E+02  0.11299658695E+03  0.80744444615E+02 0.  0.
        -13    1    4    4    0    0 -0.47956766118E+02  0.46290547176E+01 -0.41507943451E+02  0.63593937868E+02  0.00000000000E+00 0.  1.
         14    1    4    4    0    0  0.22319465590E+02  0.40012358453E+02 -0.18479024950E+02  0.49402649082E+02  0.00000000000E+00 0. -1.
        -13    1    3    3    0    0 -0.36298114360E+02 -0.33266376189E+02 -0.72158391124E+02  0.87355814348E+02  0.00000000000E+00 0. -1.
         13    1    3    3    0    0  0.39017745066E+02  0.13358941504E+02 -0.47639833145E+02  0.63011105769E+02  0.00000000000E+00 0.  1.
          1    1    1    2  501    0  0.22917669823E+02 -0.24733978486E+02  0.14327520656E+02  0.36636963984E+02  0.00000000000E+00 0. -1.
<scales pt_clust_5="13000.00000" pt_clust_6="13000.00000" pt_clust_7="13000.00000" pt_clust_8="13000.00000" pt_clust_9="33.71927"></scales>
<clustering>
<clus scale="   33.719">  1  9  2 -1</clus>
<clus scale="   80.744">  5  6 -1 -1</clus>
<clus scale="   86.494">  1  5  2 -1</clus>
<clus scale="   88.628">  7  8 -1 -1</clus>
<clus scale="   33.719">  1  5  2 -1</clus>
</clustering>
</event>
<event>
 9    2  0.5615294E-005  0.1307794E+03  0.7546771E-02  0.1235062E+00
          2   -1    0    0  502    0 -0.00000000000E+00  0.00000000000E+00  0.38703022444E+03  0.38703022444E+03  0.00000000000E+00 0. -1.
         21   -1    0    0  501  502  0.00000000000E+00 -0.00000000000E+00 -0.93395621682E+02  0.93395621682E+02  0.00000000000E+00 0.  1.
         23    2    1    2    0    0  0.22012064043E+02 -0.55188203200E+02  0.21203454371E+02  0.11120568285E+03  0.91579739492E+02 0.  0.
         24    2    1    2    0    0 -0.62189532787E+02 -0.65245109661E+02  0.11133723126E+03  0.16411126055E+03  0.80075367312E+02 0.  0.
        -13    1    4    4    0    0 -0.14872886464E+02 -0.42173783160E+02  0.44201526008E+01  0.44937384067E+02  0.00000000000E+00 0.  1.
         14    1    4    4    0    0 -0.47316646323E+02 -0.23071326501E+02  0.10691707866E+03  0.11917387648E+03  0.00000000000E+00 0. -1.
        -11    1    3    3    0    0 -0.19291730365E+02 -0.38037615390E+02 -0.22887465355E+02  0.48403172576E+02  0.00000000000E+00 0.  1.
         11    1    3    3    0    0  0.41303794408E+02 -0.17150587810E+02  0.44090919726E+02  0.62802510276E+02  0.00000000000E+00 0. -1.
          1    1    1    2  501    0  0.40177468745E+02  0.12043331286E+03  0.16109391713E+03  0.20510890272E+03  0.00000000000E+00 0. -1.
<scales pt_clust_5="13000.00000" pt_clust_6="13000.00000" pt_clust_7="13000.00000" pt_clust_8="13000.00000" pt_clust_9="103.39830"></scales>
<clustering>
<clus scale="   80.075">  5  6 -1 -1</clus>
<clus scale="   91.580">  7  8 -1 -1</clus>
<clus scale="  109.166">  1  7  2 -1</clus>
<clus scale="  103.398">  2  9  1 -1</clus>
<clus scale="  103.398">  2  5  1 -1</clus>
</clustering>
</event>
<event>
 9    2  0.6294240E-005  0.1577023E+03  0.7546771E-02  0.1206278E+00
          2   -1    0    0  502    0 -0.00000000000E+00  0.00000000000E+00  0.53519715316E+03  0.53519715316E+03  0.00000000000E+00 0. -1.
         21   -1    0    0  501  502  0.00000000000E+00 -0.00000000000E+00 -0.10035402957E+03  0.10035402957E+03  0.00000000000E+00 0. -1.
         24    2    1    2    0    0 -0.37929942849E+02 -0.73054136461E+02  0.18109465187E+03  0.21391958726E+03  0.78681188721E+02 0.  0.
         23    2    1    2    0    0 -0.56403704319E+01 -0.10069520210E+03  0.48197297110E+02  0.14898073773E+03  0.98493366582E+02 0.  0.
        -11    1    3    3    0    0  0.19505389624E+02 -0.59115082722E+01  0.13460835148E+02  0.24425401477E+02  0.00000000000E+00 0.  1.
         12    1    3    3    0    0 -0.57435332473E+02 -0.67142628189E+02  0.16763381672E+03  0.18949418578E+03  0.00000000000E+00 0. -1.
        -13    1    4    4    0    0  0.88110664268E+01 -0.11764105852E+03  0.45922921404E+02  0.12659371331E+03  0.00000000000E+00 0. -1.
         13    1    4    4    0    0 -0.14451436859E+02  0.16945856421E+02  0.22743757061E+01  0.22387024411E+02  0.00000000000E+00 0.  1.
          1    1    1    2  501    0  0.43570313281E+02  0.17374933856E+03  0.20555117461E+03  0.27265085775E+03  0.00000000000E+00 0. -1.
<scales pt_clust_5="13000.00000" pt_clust_6="13000.00000" pt_clust_7="13000.00000" pt_clust_8="13000.00000" pt_clust_9="123.16289"></scales>
<clustering>
<clus scale="   78.681">  5  6 -1 -1</clus>
<clus scale="   98.493">  7  8 -1 -1</clus>
<clus scale="  113.870">  1  5  2 -1</clus>
<clus scale="  123.163">  2  9  1 -1</clus>
<clus scale="  123.163">  2  5  1 -1</clus>
</clustering>
</event>
<event>
 9    2  0.5615294E-005  0.9223196E+02  0.7546771E-02  0.1304176E+00
          2   -1    0    0  502    0 -0.00000000000E+00  0.00000000000E+00  0.22411530983E+03  0.22411530983E+03  0.00000000000E+00 0. -1.
         21   -1    0    0  501  502  0.00000000000E+00 -0.00000000000E+00 -0.72316098303E+02  0.72316098303E+02  0.00000000000E+00 0. -1.
         23    2    1    2    0    0  0.53279115105E+01 -0.24528662686E+02  0.10864877784E+03  0.14372813267E+03  0.90681736099E+02 0.  0.
         24    2    1    2    0    0  0.17742318410E+02  0.65898437729E+01  0.73785920142E+02  0.11036452533E+03  0.79860819789E+02 0.  0.
        -11    1    4    4    0    0  0.17487534618E+02  0.42392778056E+02  0.46864106075E+02  0.65568330287E+02  0.00000000000E+00 0.  1.
         12    1    4    4    0    0  0.25478379165E+00 -0.35802934283E+02  0.26921814067E+02  0.44796195047E+02  0.00000000000E+00 0. -1.
        -11    1    3    3    0    0 -0.39504863728E+02 -0.24412973081E+02  0.37767263856E+02  0.59858113334E+02  0.00000000000E+00 0.  1.
         11    1    3    3    0    0  0.44832775238E+02 -0.11568960532E+00  0.70881513981E+02  0.83870019339E+02  0.00000000000E+00 0. -1.
          1    1    1    2  501    0 -0.23070229921E+02  0.17938818913E+02 -0.30635486448E+02  0.42338750129E+02  0.00000000000E+00 0. -1.
<scales pt_clust_5="13000.00000" pt_clust_6="13000.00000" pt_clust_7="13000.00000" pt_clust_8="13000.00000" pt_clust_9="29.22391"></scales>
<clustering>
<clus scale="   29.224">  2  9  1 -1</clus>
<clus scale="   79.861">  5  6 -1 -1</clus>
<clus scale="   81.617">  2  5  1 -1</clus>
<clus scale="   90.682">  7  8 -1 -1</clus>
<clus scale="   29.224">  2  5  1 -1</clus>
</clustering>
</event>
<event>
 9    2  0.5615294E-005  0.1032740E+03  0.7546771E-02  0.1278350E+00
          2   -1    0    0  502    0 -0.00000000000E+00  0.00000000000E+00  0.61489885908E+02  0.61489885908E+02  0.00000000000E+00 0. -1.
         21   -1    0    0  501  502  0.00000000000E+00 -0.00000000000E+00 -0.30057240684E+03  0.30057240684E+03  0.00000000000E+00 0. -1.
         23    2    1    2    0    0 -0.68590062302E+02  0.26953457624E+02 -0.80440010828E+02  0.14150102430E+03  0.90115808895E+02 0.  0.
         24    2    1    2    0    0  0.28960322465E+02  0.21583662501E+02 -0.11392195520E+03  0.14357882668E+03  0.79574574006E+02 0.  0.
        -11    1    4    4    0    0  0.18179568275E+02  0.50048276151E+02 -0.51240748310E+02  0.73898179516E+02  0.00000000000E+00 0.  1.
         12    1    4    4    0    0  0.10780754191E+02 -0.28464613650E+02 -0.62681206892E+02  0.69680647160E+02  0.00000000000E+00 0. -1.
        -13    1    3    3    0    0 -0.35435463312E+02 -0.29020197359E+01 -0.89207705819E+02  0.96031810126E+02  0.00000000000E+00 0.  1.
         13    1    3    3    0    0 -0.33154598990E+02  0.29855477360E+02  0.87676949905E+01  0.45469214178E+02  0.00000000000E+00 0. -1.
          1    1    1    2  501    0  0.39629739836E+02 -0.48537120125E+02 -0.44720554897E+02  0.76982441763E+02  0.00000000000E+00 0. -1.
<scales pt_clust_5="13000.00000" pt_clust_6="13000.00000" pt_clust_7="13000.00000" pt_clust_8="13000.00000" pt_clust_9="62.66077"></scales>
<clustering>
<clus scale="   62.661">  2  9  1 -1</clus>
<clus scale="   79.575">  5  6 -1 -1</clus>
<clus scale="   90.116">  7  8 -1 -1</clus>
<clus scale="   94.217">  2  5  1 -1</clus>
<clus scale="   62.661">  2  5  1 -1</clus>
</clustering>
</event>
<event>
 9    2  0.5615294E-005  0.3248248E+03  0.7546771E-02  0.1106066E+00
          4   -1    0    0  502    0 -0.00000000000E+00  0.00000000000E+00  0.24883191634E+03  0.24883191634E+03  0.00000000000E+00 0. -1.
         21   -1    0    0  501  502  0.00000000000E+00 -0.00000000000E+00 -0.64737470067E+03  0.64737470067E+03  0.00000000000E+00 0. -1.
         24    2    1    2    0    0  0.10544042973E+03 -0.33999769251E+02 -0.12189614379E+03  0.18342991251E+03  0.80710559437E+02 0.  0.
         23    2    1    2    0    0 -0.11929959265E+03 -0.28551431340E+03 -0.66301504393E+02  0.32998903266E+03  0.93520351963E+02 0.  0.
        -13    1    3    3    0    0  0.69821309289E+02 -0.38953637389E+02 -0.31129740248E+02  0.85798961675E+02  0.00000000000E+00 0.  1.
         14    1    3    3    0    0  0.35619120438E+02  0.49538681377E+01 -0.90766403539E+02  0.97630950839E+02  0.00000000000E+00 0. -1.
        -13    1    4    4    0    0 -0.39642939072E+02 -0.21781821326E+02 -0.24173380726E+02  0.51287061666E+02  0.00000000000E+00 0.  1.
         13    1    4    4    0    0 -0.79656653574E+02 -0.26373249207E+03 -0.42128123667E+02  0.27870197100E+03  0.00000000000E+00 0. -1.
          3    1    1    2  501    0  0.13859162918E+02  0.31951408265E+03 -0.21034513615E+03  0.38278767183E+03  0.00000000000E+00 0. -1.
<scales pt_clust_5="13000.00000" pt_clust_6="13000.00000" pt_clust_7="13000.00000" pt_clust_8="13000.00000" pt_clust_9="311.07089"></scales>
<clustering>
<clus scale="   80.711">  5  6 -1 -1</clus>
<clus scale="   93.520">  7  8 -1 -1</clus>
<clus scale="  137.069">  1  5  2 -1</clus>
<clus scale="  311.071">  2  9  1 -1</clus>
<clus scale="  311.071">  2  5  1 -1</clus>
</clustering>
</event>
<event>
 9    2  0.5615294E-005  0.1130868E+03  0.7546771E-02  0.1257432E+00
          2   -1    0    0  502    0 -0.00000000000E+00  0.00000000000E+00  0.36942622849E+03  0.36942622849E+03  0.00000000000E+00 0. -1.
         21   -1    0    0  501  502  0.00000000000E+00 -0.00000000000E+00 -0.80723096364E+02  0.80723096364E+02  0.00000000000E+00 0.  1.
         24    2    1    2    0    0  0.43367637682E+02  0.54790073405E+02  0.28943135859E+03  0.30862327840E+03  0.81210297937E+02 0.  0.
         23    2    1    2    0    0 -0.63910798146E+02 -0.46053460456E+02 -0.64948835858E+01  0.11846950330E+03  0.88245840467E+02 0.  0.
        -13    1    3    3    0    0 -0.17790891306E+02  0.40123765468E+02  0.10685115770E+03  0.11551451109E+03  0.00000000000E+00 0.  1.
         14    1    3    3    0    0  0.61158528988E+02  0.14666307937E+02  0.18258020089E+03  0.19310876732E+03  0.00000000000E+00 0. -1.
        -11    1    4    4    0    0 -0.62678334934E+02 -0.69737934093E+02 -0.10731570981E+02  0.94377538310E+02  0.00000000000E+00 0. -1.
         11    1    4    4    0    0 -0.12324632120E+01  0.23684473637E+02  0.42366873952E+01  0.24091964991E+02  0.00000000000E+00 0.  1.
          1    1    1    2  501    0  0.20543160465E+02 -0.87366129490E+01  0.57666571127E+01  0.23056543148E+02  0.00000000000E+00 0. -1.
<scales pt_clust_5="13000.00000" pt_clust_6="13000.00000" pt_clust_7="13000.00000" pt_clust_8="13000.00000" pt_clust_9="22.32375"></scales>
<clustering>
<clus scale="   22.324">  2  9  1 -1</clus>
<clus scale="   81.210">  5  6 -1 -1</clus>
<clus scale="   88.246">  7  8 -1 -1</clus>
<clus scale="  107.687">  1  5  2 -1</clus>
<clus scale="   22.324">  2  5  1 -1</clus>
</clustering>
</event>
<event>
 9    2  0.5615294E-005  0.1061372E+03  0.7546771E-02  0.1275267E+00
          2   -1    0    0  502    0 -0.00000000000E+00  0.00000000000E+00  0.36835885834E+03  0.36835885834E+03  0.00000000000E+00 0. -1.
         21   -1    0    0  501  502  0.00000000000E+00 -0.00000000000E+00 -0.81499122220E+02  0.81499122220E+02  0.00000000000E+00 0.  1.
         24    2    1    2    0    0  0.31753001233E+02 -0.48457812293E+02  0.27867832738E+03  0.29521219925E+03  0.78308491103E+02 0.  0.
         23    2    1    2    0    0 -0.92389327366E+01  0.45480657093E+01  0.31463540509E+02  0.10008382767E+03  0.94449856541E+02 0.  0.
        -13    1    3    3    0    0 -0.18948476387E+02 -0.42251176574E+02  0.13578885183E+03  0.14346713547E+03  0.00000000000E+00 0.  1.
         14    1    3    3    0    0  0.50701477620E+02 -0.62066357189E+01  0.14288947555E+03  0.15174506378E+03  0.00000000000E+00 0. -1.
        -13    1    4    4    0    0 -0.14989548476E+02  0.29929876902E+02  0.55398272172E+02  0.64725981294E+02  0.00000000000E+00 0. -1.
         13    1    4    4    0    0  0.57506157390E+01 -0.25381811193E+02 -0.23934731663E+02  0.35357846379E+02  0.00000000000E+00 0.  1.
          1    1    1    2  501    0 -0.22514068496E+02  0.43909746584E+02 -0.23282131763E+02  0.54561953638E+02  0.00000000000E+00 0. -1.
<scales pt_clust_5="13000.00000" pt_clust_6="13000.00000" pt_clust_7="13000.00000" pt_clust_8="13000.00000" pt_clust_9="49.34520"></scales>
<clustering>
<clus scale="   49.345">  2  9  1 -1</clus>
<clus scale="   78.308">  5  6 -1 -1</clus>
<clus scale="   92.068">  1  5  2 -1</clus>
<clus scale="   94.450">  7  8 -1 -1</clus>
<clus scale="   49.345">  2  5  1 -1</clus>
</clustering>
</event>
<event>
 9    2  0.5615294E-005  0.1172114E+03  0.7546771E-02  0.1250920E+00
         21   -1    0    0  501  502  0.00000000000E+00  0.00000000000E+00  0.54061257412E+03  0.54061257412E+03  0.00000000000E+00 0.  1.
         -3   -1    0    0    0  501 -0.00000000000E+00 -0.00000000000E+00 -0.44192381761E+02  0.44192381761E+02  0.00000000000E+00 0.  1.
         24    2    1    2    0    0 -0.81962324896E+02 -0.24805132688E+02  0.73846814085E+02  0.13856893725E+03  0.80092952943E+02 0.  0.
         23    2    1    2    0    0  0.49431413545E+02  0.84189053889E+01  0.25851687707E+03  0.27818452585E+03  0.89673363254E+02 0.  0.
        -11    1    3    3    0    0 -0.82768719172E+02 -0.37123625590E+02  0.34035826802E+02  0.96887883435E+02  0.00000000000E+00 0.  1.
         12    1    3    3    0    0  0.80639427589E+00  0.12318492902E+02  0.39810987282E+02  0.41681053819E+02  0.00000000000E+00 0. -1.
        -13    1    4    4    0    0  0.25934057253E+02 -0.25393870245E+02  0.33374972504E+02  0.49308343729E+02  0.00000000000E+00 0.  1.
         13    1    4    4    0    0  0.23497356292E+02  0.33812775634E+02  0.22514190457E+03  0.22887618212E+03  0.00000000000E+00 0. -1.
         -4    1    1    2    0  502  0.32530911352E+02  0.16386227299E+02  0.16405650120E+03  0.16805149278E+03  0.00000000000E+00 0.  1.
<scales pt_clust_5="13000.00000" pt_clust_6="13000.00000" pt_clust_7="13000.00000" pt_clust_8="13000.00000" pt_clust_9="36.42484"></scales>
<clustering>
<clus scale="   36.425">  1  9  2 -1</clus>
<clus scale="   80.093">  5  6 -1 -1</clus>
<clus scale="   89.673">  7  8 -1 -1</clus>
<clus scale="  110.055">  2  5  1 -1</clus>
<clus scale="   36.425">  1  5  2 -1</clus>
</clustering>
</event>
<event>
 9    2  0.5615294E-005  0.9117491E+02  0.7546771E-02  0.1306877E+00
          4   -1    0    0  502    0 -0.00000000000E+00  0.00000000000E+00  0.34746777839E+03  0.34746777839E+03  0.00000000000E+00 0. -1.
         21   -1    0    0  501  502  0.00000000000E+00 -0.00000000000E+00 -0.89973699939E+02  0.89973699939E+02  0.00000000000E+00 0. -1.
         24    2    1    2    0    0  0.15840651992E+02  0.69160994328E+01  0.23389861754E+03  0.24778373608E+03  0.79934084646E+02 0.  0.
         23    2    1    2    0    0  0.31122256707E+02 -0.77074945521E+01  0.73518912647E+02  0.12111219439E+03  0.90747632355E+02 0.  0.
        -11    1    3    3    0    0 -0.90673205013E+00  0.41851302882E+02  0.10040492450E+03  0.10878190373E+03  0.00000000000E+00 0.  1.
         12    1    3    3    0    0  0.16747384042E+02 -0.34935203449E+02  0.13349369304E+03  0.13900183234E+03  0.00000000000E+00 0. -1.
        -11    1    4    4    0    0  0.45620466895E+02  0.23507734470E+02  0.15426258318E+02  0.53589271551E+02  0.00000000000E+00 0.  1.
         11    1    4    4    0    0 -0.14498210188E+02 -0.31215229022E+02  0.58092654330E+02  0.67522922838E+02  0.00000000000E+00 0. -1.
          3    1    1    2  501    0 -0.46962908699E+02  0.79139511926E+00 -0.49923451734E+02  0.68545547870E+02  0.00000000000E+00 0. -1.
<scales pt_clust_5="13000.00000" pt_clust_6="13000.00000" pt_clust_7="13000.00000" pt_clust_8="13000.00000" pt_clust_9="46.96958"></scales>
<clustering>
<clus scale="   46.970">  2  9  1 -1</clus>
<clus scale="   79.934">  5  6 -1 -1</clus>
<clus scale="   80.419">  1  5  2 -1</clus>
<clus scale="   90.748">  7  8 -1 -1</clus>
<clus scale="   46.970">  2  5  1 -1</clus>
</clustering>
</event>
<event>
 9    2  0.5615294E-005  0.1494325E+03  0.7546771E-02  0.1201302E+00
         21   -1    0    0  501  502  0.00000000000E+00  0.00000000000E+00  0.22678633797E+03  0.22678633797E+03  0.00000000000E+00 0.  1.
         -3   -1    0    0    0  501 -0.00000000000E+00 -0.00000000000E+00 -0.19841104461E+03  0.19841104461E+03  0.00000000000E+00 0.  1.
         24    2    1    2    0    0 -0.52080098865E+02 -0.72611903039E+02  0.34569029879E+02  0.12459137164E+03  0.79644001020E+02 0.  0.
         23    2    1    2    0    0  0.67717620745E+02  0.16776648587E+03  0.25738750303E+02  0.19902544963E+03  0.78850341744E+02 0.  0.
        -13    1    3    3    0    0 -0.63478969219E+02 -0.35065763978E+02  0.43203796085E+02  0.84414189166E+02  0.00000000000E+00 0.  1.
         14    1    3    3    0    0  0.11398870353E+02 -0.37546139061E+02 -0.86347662061E+01  0.40177182470E+02  0.00000000000E+00 0. -1.
        -11    1    4    4    0    0  0.81381717820E+02  0.10362686713E+03  0.16147745484E+02  0.13274886542E+03  0.00000000000E+00 0. -1.
         11    1    4    4    0    0 -0.13664097075E+02  0.64139618740E+02  0.95910048186E+01  0.66276584209E+02  0.00000000000E+00 0.  1.
         -4    1    1    2    0  502 -0.15637521880E+02 -0.95154582829E+02 -0.31932486817E+02  0.10158056132E+03  0.00000000000E+00 0.  1.
<scales pt_clust_5="13000.00000" pt_clust_6="13000.00000" pt_clust_7="13000.00000" pt_clust_8="13000.00000" pt_clust_9="96.43099"></scales>
<clustering>
<clus scale="   78.850">  7  8 -1 -1</clus>
<clus scale="   79.644">  5  6 -1 -1</clus>
<clus scale="   96.431">  1  9  2 -1</clus>
<clus scale="  149.011">  1  7  2 -1</clus>
<clus scale="   96.431">  1  5  2 -1</clus>
</clustering>
</event>
<event>
 9    2  0.5615294E-005  0.1435066E+03  0.7546771E-02  0.1210743E+00
         -1   -1    0    0    0  501 -0.00000000000E+00  0.00000000000E+00  0.18772933190E+03  0.18772933190E+03  0.00000000000E+00 0.  1.
         21   -1    0    0  501  502  0.00000000000E+00 -0.00000000000E+00 -0.31707602391E+03  0.31707602391E+03  0.00000000000E+00 0. -1.
         23    2    1    2    0    0  0.10176760218E+03  0.51789097226E+02  0.13177027532E+03  0.19645979188E+03  0.90522311733E+02 0.  0.
         24    2    1    2    0    0 -0.80688709947E+02 -0.53064328005E+02 -0.15204119865E+03  0.19724439730E+03  0.80388651930E+02 0.  0.
        -13    1    4    4    0    0 -0.51398269989E+02  0.73610318514E+01 -0.98555680005E+02  0.11139653948E+03  0.00000000000E+00 0.  1.
         14    1    4    4    0    0 -0.29290439958E+02 -0.60425359857E+02 -0.53485518650E+02  0.85847857818E+02  0.00000000000E+00 0. -1.
        -11    1    3    3    0    0  0.49602575921E+02  0.45877164918E+02  0.16135755687E+02  0.69465764305E+02  0.00000000000E+00 0. -1.
         11    1    3    3    0    0  0.52165026264E+02  0.59119323073E+01  0.11563451963E+03  0.12699402758E+03  0.00000000000E+00 0.  1.
         -2    1    1    2    0  502 -0.21078892238E+02  0.12752307796E+01 -0.10907576868E+03  0.11110116662E+03  0.00000000000E+00 0.  1.
<scales pt_clust_5="13000.00000" pt_clust_6="13000.00000" pt_clust_7="13000.00000" pt_clust_8="13000.00000" pt_clust_9="21.11743"></scales>
<clustering>
<clus scale="   21.117">  2  9  1 -1</clus>
<clus scale="   80.389">  5  6 -1 -1</clus>
<clus scale="   90.522">  7  8 -1 -1</clus>
<clus scale="  137.340">  2  5  1 -1</clus>
<clus scale="   21.117">  2  5  1 -1</clus>
</clustering>
</event>
<event>
 9    2  0.5615294E-005  0.1676057E+03  0.7546771E-02  0.1183610E+00
          2   -1    0    0  502    0 -0.00000000000E+00  0.00000000000E+00  0.28644412884E+03  0.28644412884E+03  0.00000000000E+00 0. -1.
         21   -1    0    0  501  502  0.00000000000E+00 -0.00000000000E+00 -0.26882148694E+03  0.26882148694E+03  0.00000000000E+00 0.  1.
         24    2    1    2    0    0  0.60259451240E+02  0.11855152854E+03  0.41316257243E+02  0.16124879124E+03  0.81292516140E+02 0.  0.
         23    2    1    2    0    0 -0.12947878627E+03  0.58219966167E+02 -0.95502578856E+02  0.19104883464E+03  0.84997612297E+02 0.  0.
        -11    1    3    3    0    0  0.40627792662E+02  0.12616843389E+03  0.44779936030E+02  0.13990830539E+03  0.00000000000E+00 0.  1.
         12    1    3    3    0    0  0.19631658578E+02 -0.76169053457E+01 -0.34636787871E+01  0.21340485850E+02  0.00000000000E+00 0. -1.
        -11    1    4    4    0    0 -0.23881862535E+01  0.26841798275E+02  0.31500553127E+01  0.27131318005E+02  0.00000000000E+00 0. -1.
         11    1    4    4    0    0 -0.12709060001E+03  0.31378167893E+02 -0.98652634168E+02  0.16391751664E+03  0.00000000000E+00 0.  1.
          1    1    1    2  501    0  0.69219335028E+02 -0.17677149471E+03  0.71808963516E+02  0.20296798990E+03  0.00000000000E+00 0. -1.
<scales pt_clust_5="13000.00000" pt_clust_6="13000.00000" pt_clust_7="13000.00000" pt_clust_8="13000.00000" pt_clust_9="144.45448"></scales>
<clustering>
<clus scale="   81.293">  5  6 -1 -1</clus>
<clus scale="   84.998">  7  8 -1 -1</clus>
<clus scale="  155.866">  1  5  2 -1</clus>
<clus scale="  144.454">  2  9  1 -1</clus>
<clus scale="  144.454">  2  5  1 -1</clus>
</clustering>
</event>
<event>
 9    2  0.5615294E-005  0.1007805E+03  0.7546771E-02  0.1279358E+00
          2   -1    0    0  502    0 -0.00000000000E+00  0.00000000000E+00  0.66963678801E+03  0.66963678801E+03  0.00000000000E+00 0. -1.
         21   -1    0    0  501  502  0.00000000000E+00 -0.00000000000E+00 -0.83580140536E+02  0.83580140536E+02  0.00000000000E+00 0.  1.
         24    2    1    2    0    0 -0.40272572718E+02 -0.29853562468E+01  0.62412384124E+03  0.63228622049E+03  0.92868202012E+02 0.  0.
         23    2    1    2    0    0  0.19386529838E+02  0.57748532190E+01 -0.29394188881E+02  0.98144109060E+02  0.91427902384E+02 0.  0.
        -11    1    3    3    0    0  0.24444869045E+02 -0.12487542811E+02  0.87870206149E+02  0.92057935436E+02  0.00000000000E+00 0.  1.
         12    1    3    3    0    0 -0.64717441763E+02  0.95021865640E+01  0.53625363509E+03  0.54022828505E+03  0.00000000000E+00 0. -1.
        -13    1    4    4    0    0  0.43442835505E+02 -0.13349245064E+02 -0.44757218643E+02  0.63786291013E+02  0.00000000000E+00 0.  1.
         13    1    4    4    0    0 -0.24056305666E+02  0.19124098283E+02  0.15363029763E+02  0.34357818047E+02  0.00000000000E+00 0. -1.
          1    1    1    2  501    0  0.20886042879E+02 -0.27894969722E+01 -0.86730048827E+01  0.22786599005E+02  0.00000000000E+00 0. -1.
<scales pt_clust_5="13000.00000" pt_clust_6="13000.00000" pt_clust_7="13000.00000" pt_clust_8="13000.00000" pt_clust_9="21.07150"></scales>
<clustering>
<clus scale="   21.071">  2  9  1 -1</clus>
<clus scale="   91.428">  7  8 -1 -1</clus>
<clus scale="   92.868">  5  6 -1 -1</clus>
<clus scale="   99.455">  2  7  1 -1</clus>
<clus scale="   21.071">  2  5  1 -1</clus>
</clustering>
</event>
<event>
 9    2  0.5615294E-005  0.9576576E+02  0.7546771E-02  0.1293983E+00
          2   -1    0    0  502    0 -0.00000000000E+00  0.00000000000E+00  0.31610254534E+03  0.31610254534E+03  0.00000000000E+00 0. -1.
         21   -1    0    0  501  502  0.00000000000E+00 -0.00000000000E+00 -0.38377573905E+02  0.38377573905E+02  0.00000000000E+00 0.  1.
         24    2    1    2    0    0  0.14370522099E+02 -0.40463953242E+02  0.17814431079E+03  0.19993527201E+03  0.79967956788E+02 0.  0.
         23    2    1    2    0    0 -0.22967984149E+02  0.16962307598E+02  0.82299070151E+02  0.12413272675E+03  0.88433866413E+02 0.  0.
        -11    1    3    3    0    0  0.81639620276E+01  0.21313729156E+02  0.21179626665E+02  0.31136825660E+02  0.00000000000E+00 0.  1.
         12    1    3    3    0    0  0.62065600716E+01 -0.61777682398E+02  0.15696468412E+03  0.16879844635E+03  0.00000000000E+00 0. -1.
        -13    1    4    4    0    0 -0.40281820945E+02  0.35798194514E+02  0.21230075635E+02  0.57921083731E+02  0.00000000000E+00 0.  1.
         13    1    4    4    0    0  0.17313836797E+02 -0.18835886916E+02  0.61068994516E+02  0.66211643022E+02  0.00000000000E+00 0. -1.
          1    1    1    2  501    0  0.85974620494E+01  0.23501645644E+02  0.17281590495E+02  0.30412120473E+02  0.00000000000E+00 0. -1.
<scales pt_clust_5="13000.00000" pt_clust_6="13000.00000" pt_clust_7="13000.00000" pt_clust_8="13000.00000" pt_clust_9="25.02486"></scales>
<clustering>
<clus scale="   25.025">  2  9  1 -1</clus>
<clus scale="   79.968">  5  6 -1 -1</clus>
<clus scale="   88.008">  1  5  2 -1</clus>
<clus scale="   88.434">  7  8 -1 -1</clus>
<clus scale="   25.025">  2  5  1 -1</clus>
</clustering>
</event>
<event>
 9    2  0.5615294E-005  0.1018614E+03  0.7546771E-02  0.1289340E+00
         21   -1    0    0  501  502  0.00000000000E+00  0.00000000000E+00  0.68410899515E+02  0.68410899515E+02  0.00000000000E+00 0.  1.
          2   -1    0    0  502    0 -0.00000000000E+00 -0.00000000000E+00 -0.26762927390E+03  0.26762927390E+03  0.00000000000E+00 0. -1.
         24    2    1    2    0    0  0.18610366816E+02 -0.33747982527E+02 -0.18884351794E+03  0.20558844050E+03  0.71550405460E+02 0.  0.
         23    2    1    2    0    0 -0.61447875616E+01  0.12403627649E+02  0.11751042490E+02  0.97277532774E+02  0.95567897277E+02 0.  0.
        -13    1    3    3    0    0  0.75646604612E+01  0.18554138908E+02 -0.19311029150E+02  0.27827971635E+02  0.00000000000E+00 0.  1.
         14    1    3    3    0    0  0.11045706355E+02 -0.52302121435E+02 -0.16953248879E+03  0.17776046887E+03  0.00000000000E+00 0. -1.
        -11    1    4    4    0    0  0.22928798414E+02  0.34811393947E+02  0.34486099577E+02  0.54100406738E+02  0.00000000000E+00 0.  1.
         11    1    4    4    0    0 -0.29073585975E+02 -0.22407766298E+02 -0.22735057088E+02  0.43177126035E+02  0.00000000000E+00 0. -1.
          1    1    1    2  501    0 -0.12465579254E+02  0.21344354878E+02 -0.22125898932E+02  0.33174200139E+02  0.00000000000E+00 0. -1.
<scales pt_clust_5="13000.00000" pt_clust_6="13000.00000" pt_clust_7="13000.00000" pt_clust_8="13000.00000" pt_clust_9="24.71786"></scales>
<clustering>
<clus scale="   24.718">  1  9  2 -1</clus>
<clus scale="   71.550">  5  6 -1 -1</clus>
<clus scale="   79.762">  2  5  1 -1</clus>
<clus scale="   95.568">  7  8 -1 -1</clus>
<clus scale="   24.718">  1  5  2 -1</clus>
</clustering>
</event>
<event>
 9    2  0.5615294E-005  0.9762856E+02  0.7546771E-02  0.1289515E+00
         21   -1    0    0  501  502  0.00000000000E+00  0.00000000000E+00  0.20155399271E+02  0.20155399271E+02  0.00000000000E+00 0. -1.
          2   -1    0    0  502    0 -0.00000000000E+00 -0.00000000000E+00 -0.72375602557E+03  0.72375602557E+03  0.00000000000E+00 0. -1.
         23    2    1    2    0    0 -0.38454879583E+02  0.40299257641E+02 -0.40939077777E+03  0.42299182389E+03  0.90655756731E+02 0.  0.
         24    2    1    2    0    0  0.86746528339E+01 -0.69507901120E+01 -0.18896484063E+03  0.20657147512E+03  0.82707316815E+02 0.  0.
        -13    1    4    4    0    0 -0.67041342174E+01 -0.40701145444E+02 -0.63353142370E+02  0.75598606496E+02  0.00000000000E+00 0.  1.
         14    1    4    4    0    0  0.15378787051E+02  0.33750355332E+02 -0.12561169826E+03  0.13097286863E+03  0.00000000000E+00 0. -1.
        -11    1    3    3    0    0  0.10490546579E+02  0.52850753487E+02 -0.25172195836E+03  0.25742415977E+03  0.00000000000E+00 0.  1.
         11    1    3    3    0    0 -0.48945426162E+02 -0.12551495846E+02 -0.15766881941E+03  0.16556766412E+03  0.00000000000E+00 0. -1.
          1    1    1    2  501    0  0.29780226749E+02 -0.33348467529E+02 -0.10524500790E+03  0.11434812582E+03  0.00000000000E+00 0. -1.
<scales pt_clust_5="13000.00000" pt_clust_6="13000.00000" pt_clust_7="13000.00000" pt_clust_8="13000.00000" pt_clust_9="44.70998"></scales>
<clustering>
<clus scale="   44.710">  1  9  2 -1</clus>
<clus scale="   82.707">  5  6 -1 -1</clus>
<clus scale="   90.296">  1  5  2 -1</clus>
<clus scale="   90.656">  7  8 -1 -1</clus>
<clus scale="   44.710">  1  5  2 -1</clus>
</clustering>
</event>
<event>
 9    2  0.5615294E-005  0.1026961E+03  0.7546771E-02  0.1280016E+00
          2   -1    0    0  502    0 -0.00000000000E+00  0.00000000000E+00  0.12082753315E+03  0.12082753315E+03  0.00000000000E+00 0. -1.
         21   -1    0    0  501  502  0.00000000000E+00 -0.00000000000E+00 -0.23687745116E+03  0.23687745116E+03  0.00000000000E+00 0. -1.
         24    2    1    2    0    0  0.13574114648E+02  0.47762044043E+02  0.78861964867E+02  0.12220098069E+03  0.79046826239E+02 0.  0.
         23    2    1    2    0    0  0.15797639699E+02 -0.46161280969E+02 -0.15064422489E+03  0.18235432876E+03  0.90437765575E+02 0.  0.
        -13    1    3    3    0    0 -0.16886965719E+02  0.25361156526E+02 -0.43721869054E+01  0.30781063820E+02  0.00000000000E+00 0.  1.
         14    1    3    3    0    0  0.30461080367E+02  0.22400887517E+02  0.83234151772E+02  0.91419916867E+02  0.00000000000E+00 0. -1.
        -11    1    4    4    0    0 -0.10277770725E+02 -0.67863221245E+02 -0.10602877807E+03  0.12630578430E+03  0.00000000000E+00 0.  1.
         11    1    4    4    0    0  0.26075410424E+02  0.21701940276E+02 -0.44615446828E+02  0.56048544461E+02  0.00000000000E+00 0. -1.
          1    1    1    2  501    0 -0.29371754347E+02 -0.16007630742E+01 -0.44267657981E+02  0.53149674872E+02  0.00000000000E+00 0. -1.
<scales pt_clust_5="13000.00000" pt_clust_6="13000.00000" pt_clust_7="13000.00000" pt_clust_8="13000.00000" pt_clust_9="29.41534"></scales>
<clustering>
<clus scale="   29.415">  2  9  1 -1</clus>
<clus scale="   79.047">  5  6 -1 -1</clus>
<clus scale="   90.438">  7  8 -1 -1</clus>
<clus scale="   92.822">  1  5  2 -1</clus>
<clus scale="   29.415">  2  5  1 -1</clus>
</clustering>
</event>
<event>
 9    2  0.5615294E-005  0.9262878E+02  0.7546771E-02  0.1303718E+00
         -1   -1    0    0    0  501 -0.00000000000E+00  0.00000000000E+00  0.44917710228E+02  0.44917710228E+02  0.00000000000E+00 0.  1.
         21   -1    0    0  501  502  0.00000000000E+00 -0.00000000000E+00 -0.67313972490E+03  0.67313972490E+03  0.00000000000E+00 0.  1.
         24    2    1    2    0    0  0.30429245082E+02 -0.23367215224E+02 -0.51974298336E+02  0.10277035459E+03  0.79927794858E+02 0.  0.
         23    2    1    2    0    0  0.19132343383E+02 -0.37879880512E+02 -0.14325521494E+03  0.17518474692E+03  0.91469705571E+02 0.  0.
        -11    1    3    3    0    0  0.36377731922E+02  0.23176298268E+01  0.79449653505E+01  0.37307281625E+02  0.00000000000E+00 0.  1.
         12    1    3    3    0    0 -0.59484868396E+01 -0.25684845051E+02 -0.59919263686E+02  0.65463072963E+02  0.00000000000E+00 0. -1.
        -13    1    4    4    0    0  0.46408392219E+02  0.83069557369E+01 -0.69745203485E+02  0.84185139966E+02  0.00000000000E+00 0.  1.
         13    1    4    4    0    0 -0.27276048836E+02 -0.46186836249E+02 -0.73510011452E+02  0.90999606958E+02  0.00000000000E+00 0. -1.
         -2    1    1    2    0  502 -0.49561588465E+02  0.61247095736E+02 -0.43299250140E+03  0.44010233362E+03  0.00000000000E+00 0.  1.
<scales pt_clust_5="13000.00000" pt_clust_6="13000.00000" pt_clust_7="13000.00000" pt_clust_8="13000.00000" pt_clust_9="78.78806"></scales>
<clustering>
<clus scale="   78.788">  2  9  1 -1</clus>
<clus scale="   79.928">  5  6 -1 -1</clus>
<clus scale="   81.252">  1  5  2 -1</clus>
<clus scale="   91.470">  7  8 -1 -1</clus>
<clus scale="   78.788">  2  5  1 -1</clus>
</clustering>
</event>
<event>
 9    2  0.5615294E-005  0.9300831E+02  0.7546771E-02  0.1303715E+00
         21   -1    0    0  501  502  0.00000000000E+00  0.00000000000E+00  0.94130241620E+02  0.94130241620E+02  0.00000000000E+00 0.  1.
          2   -1    0    0  502    0 -0.00000000000E+00 -0.00000000000E+00 -0.15724571569E+03  0.15724571569E+03  0.00000000000E+00 0. -1.
         24    2    1    2    0    0  0.17051385421E+02  0.17048523596E+02 -0.57488937022E+02  0.99433370992E+02  0.77463639763E+02 0.  0.
         23    2    1    2    0    0  0.41704860793E+01 -0.22616917606E+02 -0.47363656116E+02  0.10479004715E+03  0.90601987534E+02 0.  0.
        -11    1    3    3    0    0  0.27527863418E+02  0.15808794514E+02  0.82939649375E+01  0.32809923845E+02  0.00000000000E+00 0.  1.
         12    1    3    3    0    0 -0.10476477997E+02  0.12397290823E+01 -0.65782901960E+02  0.66623447146E+02  0.00000000000E+00 0. -1.
        -13    1    4    4    0    0  0.45836762927E+02 -0.87699057297E+01 -0.11415135480E+02  0.48043994423E+02  0.00000000000E+00 0.  1.
         13    1    4    4    0    0 -0.41666276847E+02 -0.13847011877E+02 -0.35948520637E+02  0.56746052728E+02  0.00000000000E+00 0. -1.
          1    1    1    2  501    0 -0.21221871500E+02  0.55683940100E+01  0.41737119068E+02  0.47152539167E+02  0.00000000000E+00 0. -1.
<scales pt_clust_5="13000.00000" pt_clust_6="13000.00000" pt_clust_7="13000.00000" pt_clust_8="13000.00000" pt_clust_9="21.94026"></scales>
<clustering>
<clus scale="   21.940">  1  9  2 -1</clus>
<clus scale="   77.464">  5  6 -1 -1</clus>
<clus scale="   80.265">  2  5  1 -1</clus>
<clus scale="   90.602">  7  8 -1 -1</clus>
<clus scale="   21.940">  1  5  2 -1</clus>
</clustering>
</event>
<event>
 9    2  0.5615294E-005  0.1421746E+03  0.7546771E-02  0.1212263E+00
         21   -1    0    0  501  502  0.00000000000E+00  0.00000000000E+00  0.14909148970E+03  0.14909148970E+03  0.00000000000E+00 0.  1.
          2   -1    0    0  502    0 -0.00000000000E+00 -0.00000000000E+00 -0.74084041315E+03  0.74084041315E+03  0.00000000000E+00 0. -1.
         24    2    1    2    0    0  0.70890666297E+02 -0.83378993128E+02 -0.58162977537E+03  0.59732472488E+03  0.80784208238E+02 0.  0.
         23    2    1    2    0    0 -0.13303848169E+03  0.34007584188E+02 -0.83916258833E+02  0.18422867211E+03  0.89680052056E+02 0.  0.
        -11    1    3    3    0    0 -0.15578285620E+02 -0.31303401097E+02 -0.13878181449E+03  0.14311875466E+03  0.00000000000E+00 0.  1.
         12    1    3    3    0    0  0.86468951918E+02 -0.52075592031E+02 -0.44284796088E+03  0.45420597022E+03  0.00000000000E+00 0. -1.
        -11    1    4    4    0    0  0.33545021625E+01  0.27205375133E+02 -0.12660300722E+02  0.30193845983E+02  0.00000000000E+00 0. -1.
         11    1    4    4    0    0 -0.13639298385E+03  0.68022090552E+01 -0.71255958111E+02  0.15403482612E+03  0.00000000000E+00 0.  1.
          1    1    1    2  501    0  0.62147815395E+02  0.49371408940E+02  0.73797110745E+02  0.10837850586E+03  0.00000000000E+00 0. -1.
<scales pt_clust_5="13000.00000" pt_clust_6="13000.00000" pt_clust_7="13000.00000" pt_clust_8="13000.00000" pt_clust_9="79.37183"></scales>
<clustering>
<clus scale="   79.372">  1  9  2 -1</clus>
<clus scale="   80.784">  5  6 -1 -1</clus>
<clus scale="   89.680">  7  8 -1 -1</clus>
<clus scale="  136.738">  2  5  1 -1</clus>
<clus scale="   79.372">  1  5  2 -1</clus>
</clustering>
</event>
<event>
 9    2  0.5615294E-005  0.2850867E+03  0.7546771E-02  0.1136352E+00
          2   -1    0    0  502    0 -0.00000000000E+00  0.00000000000E+00  0.20968296854E+04  0.20968296854E+04  0.00000000000E+00 0. -1.
         21   -1    0    0  501  502  0.00000000000E+00 -0.00000000000E+00 -0.80497635653E+02  0.80497635653E+02  0.00000000000E+00 0. -1.
         24    2    1    2    0    0  0.84726654819E+01  0.54877875280E+02  0.52317291713E+03  0.53176509166E+03  0.77335918130E+02 0.  0.
         23    2    1    2    0    0 -0.25447647317E+03  0.87299940737E+02  0.27429483143E+03  0.39401814728E+03  0.87367561413E+02 0.  0.
        -11    1    3    3    0    0 -0.32562884667E+02  0.14953585963E+02  0.14966159824E+03  0.15389134211E+03  0.00000000000E+00 0.  1.
         12    1    3    3    0    0  0.41035550148E+02  0.39924289317E+02  0.37351131889E+03  0.37787374954E+03  0.00000000000E+00 0. -1.
        -13    1    4    4    0    0 -0.15116491647E+03  0.58342689241E+02  0.10333564940E+03  0.19217949369E+03  0.00000000000E+00 0.  1.
         13    1    4    4    0    0 -0.10331155671E+03  0.28957251496E+02  0.17095918203E+03  0.20183865359E+03  0.00000000000E+00 0. -1.
          1    1    1    2  501    0  0.24600380769E+03 -0.14217781602E+03  0.12188643012E+04  0.12515440821E+04  0.00000000000E+00 0. -1.
<scales pt_clust_5="13000.00000" pt_clust_6="13000.00000" pt_clust_7="13000.00000" pt_clust_8="13000.00000" pt_clust_9="271.36954"></scales>
<clustering>
<clus scale="   77.336">  5  6 -1 -1</clus>
<clus scale="   87.368">  7  8 -1 -1</clus>
<clus scale="   95.206">  1  5  2 -1</clus>
<clus scale="  271.370">  2  9  1 -1</clus>
<clus scale="  271.370">  2  5  1 -1</clus>
</clustering>
</event>
<event>
 9    2  0.5615294E-005  0.1149422E+03  0.7546771E-02  0.1255466E+00
         21   -1    0    0  501  502  0.00000000000E+00  0.00000000000E+00  0.53938059456E+03  0.53938059456E+03  0.00000000000E+00 0. -1.
          2   -1    0    0  502    0 -0.00000000000E+00 -0.00000000000E+00 -0.29864541282E+03  0.29864541282E+03  0.00000000000E+00 0. -1.
         24    2    1    2    0    0 -0.29755813729E+02 -0.62022109521E+02 -0.19612245361E+03  0.22241520892E+03  0.79198218591E+02 0.  0.
         23    2    1    2    0    0  0.98646566267E+02  0.13857059179E+03  0.46962513489E+03  0.50753991918E+03  0.90089113088E+02 0.  0.
        -11    1    3    3    0    0 -0.21338390992E+02  0.15653583593E+02 -0.42499980474E+02  0.50066055863E+02  0.00000000000E+00 0.  1.
         12    1    3    3    0    0 -0.84174227369E+01 -0.77675693114E+02 -0.15362247314E+03  0.17234915306E+03  0.00000000000E+00 0. -1.
        -13    1    4    4    0    0  0.16298409595E+02  0.68482922436E+02  0.99103315310E+02  0.12156074994E+03  0.00000000000E+00 0.  1.
         13    1    4    4    0    0  0.82348156672E+02  0.70087669350E+02  0.37052181958E+03  0.38597916924E+03  0.00000000000E+00 0. -1.
          1    1    1    2  501    0 -0.68890752538E+02 -0.76548482264E+02 -0.32767499533E+02  0.10807087928E+03  0.00000000000E+00 0. -1.
<scales pt_clust_5="13000.00000" pt_clust_6="13000.00000" pt_clust_7="13000.00000" pt_clust_8="13000.00000" pt_clust_9="102.98357"></scales>
<clustering>
<clus scale="   79.198">  5  6 -1 -1</clus>
<clus scale="   90.089">  7  8 -1 -1</clus>
<clus scale="  102.984">  1  9  2 -1</clus>
<clus scale="  106.621">  2  5  1 -1</clus>
<clus scale="  102.984">  1  5  2 -1</clus>
</clustering>
</event>
<event>
 9    2  0.5615294E-005  0.1367870E+03  0.7546771E-02  0.1220368E+00
         21   -1    0    0  501  502  0.00000000000E+00  0.00000000000E+00  0.27590032545E+03  0.27590032545E+03  0.00000000000E+00 0.  1.
         -1   -1    0    0    0  501 -0.00000000000E+00 -0.00000000000E+00 -0.89036014845E+02  0.89036014845E+02  0.00000000000E+00 0.  1.
         24    2    1    2    0    0  0.97747133353E+02  0.28512633207E+02  0.48624881364E+02  0.13853765531E+03  0.80379291608E+02 0.  0.
         23    2    1    2    0    0 -0.10448539145E+03  0.77817182345E+01  0.12500385668E+03  0.18718307011E+03  0.91835643343E+02 0.  0.
        -11    1    3    3    0    0  0.10687467427E+03  0.81324447918E+01  0.43166305100E+02  0.11554939444E+03  0.00000000000E+00 0.  1.
         12    1    3    3    0    0 -0.91275409176E+01  0.20380188415E+02  0.54585762636E+01  0.22988260871E+02  0.00000000000E+00 0. -1.
        -11    1    4    4    0    0 -0.90804832169E+02 -0.73135120471E+01  0.13626016512E+03  0.16390801567E+03  0.00000000000E+00 0.  1.
         11    1    4    4    0    0 -0.13680559283E+02  0.15095230282E+02 -0.11256308442E+02  0.23275054443E+02  0.00000000000E+00 0. -1.
         -2    1    1    2    0  502  0.67382580987E+01 -0.36294351442E+02  0.13235572567E+02  0.39215614874E+02  0.00000000000E+00 0.  1.
<scales pt_clust_5="13000.00000" pt_clust_6="13000.00000" pt_clust_7="13000.00000" pt_clust_8="13000.00000" pt_clust_9="36.91457"></scales>
<clustering>
<clus scale="   36.915">  1  9  2 -1</clus>
<clus scale="   80.379">  5  6 -1 -1</clus>
<clus scale="   91.836">  7  8 -1 -1</clus>
<clus scale="  129.374">  2  5  1 -1</clus>
<clus scale="   36.915">  1  5  2 -1</clus>
</clustering>
</event>
<event>
 9    2  0.5615294E-005  0.3125596E+03  0.7546771E-02  0.1079125E+00
          2   -1    0    0  502    0 -0.00000000000E+00  0.00000000000E+00  0.64632712959E+03  0.64632712959E+03  0.00000000000E+00 0. -1.
         21   -1    0    0  501  502  0.00000000000E+00 -0.00000000000E+00 -0.24152762182E+03  0.24152762182E+03  0.00000000000E+00 0. -1.
         24    2    1    2    0    0  0.10225442821E+03  0.56924512714E+02  0.25160402486E+03  0.28858517333E+03  0.79249282035E+02 0.  0.
         23    2    1    2    0    0  0.93663107635E+02  0.11008635891E+03  0.26768891507E+03  0.31751603667E+03  0.90924661893E+02 0.  0.
        -13    1    3    3    0    0  0.86303380777E+02  0.34079260905E+02  0.24189223839E+03  0.25907822091E+03  0.00000000000E+00 0.  1.
         14    1    3    3    0    0  0.15951047437E+02  0.22845251809E+02  0.97117864685E+01  0.29506952417E+02  0.00000000000E+00 0. -1.
        -11    1    4    4    0    0  0.93737124755E+02  0.87573588152E+02  0.26553835448E+03  0.29490066056E+03  0.00000000000E+00 0. -1.
         11    1    4    4    0    0 -0.74017120682E-01  0.22512770756E+02  0.21505605911E+01  0.22615376108E+02  0.00000000000E+00 0.  1.
          1    1    1    2  501    0 -0.19591753585E+03 -0.16701087162E+03 -0.11449343215E+03  0.28175354141E+03  0.00000000000E+00 0. -1.
<scales pt_clust_5="13000.00000" pt_clust_6="13000.00000" pt_clust_7="13000.00000" pt_clust_8="13000.00000" pt_clust_9="257.44186"></scales>
<clustering>
<clus scale="   79.249">  5  6 -1 -1</clus>
<clus scale="   90.925">  7  8 -1 -1</clus>
<clus scale="  101.265">  5  7 -1 -1</clus>
<clus scale="  257.442">  2  9  1 -1</clus>
<clus scale="  257.442">  2  5  1 -1</clus>
</clustering>
</event>
<event>
 9    2  0.5615294E-005  0.1106181E+03  0.7546771E-02  0.1270672E+00
         21   -1    0    0  501  502  0.00000000000E+00  0.00000000000E+00  0.27679557388E+02  0.27679557388E+02  0.00000000000E+00 0. -1.
          4   -1    0    0  502    0 -0.00000000000E+00 -0.00000000000E+00 -0.50246599307E+03  0.50246599307E+03  0.00000000000E+00 0. -1.
         23    2    1    2    0    0 -0.26740995566E+01  0.37316146744E+02 -0.33041660859E+03  0.34844565711E+03  0.10411337622E+03 0.  0.
         24    2    1    2    0    0  0.22426928086E+02 -0.33779369389E+02 -0.11979355876E+03  0.14997173560E+03  0.80604043694E+02 0.  0.
        -11    1    4    4    0    0 -0.30035457942E+02 -0.10764854514E+02 -0.32383227241E+02  0.45460798861E+02  0.00000000000E+00 0.  1.
         12    1    4    4    0    0  0.52462386028E+02 -0.23014514876E+02 -0.87410331514E+02  0.10451093674E+03  0.00000000000E+00 0. -1.
        -11    1    3    3    0    0 -0.24758551920E+02  0.68216043325E+02 -0.21051499823E+03  0.22267235783E+03  0.00000000000E+00 0. -1.
         11    1    3    3    0    0  0.22084452363E+02 -0.30899896582E+02 -0.11990161036E+03  0.12577329928E+03  0.00000000000E+00 0.  1.
          3    1    1    2  501    0 -0.19752828530E+02 -0.35367773542E+01 -0.24576268339E+02  0.31728157754E+02  0.00000000000E+00 0. -1.
<scales pt_clust_5="13000.00000" pt_clust_6="13000.00000" pt_clust_7="13000.00000" pt_clust_8="13000.00000" pt_clust_9="20.06696"></scales>
<clustering>
<clus scale="   20.067">  1  9  2 -1</clus>
<clus scale="   80.604">  5  6 -1 -1</clus>
<clus scale="   88.847">  1  5  2 -1</clus>
<clus scale="  104.113">  7  8 -1 -1</clus>
<clus scale="   20.067">  1  5  2 -1</clus>
</clustering>
</event>
<event>
 9    2  0.5615294E-005  0.1288229E+03  0.7546771E-02  0.1235348E+00
          2   -1    0    0  502    0 -0.00000000000E+00  0.00000000000E+00  0.32677518241E+03  0.32677518241E+03  0.00000000000E+00 0. -1.
         21   -1    0    0  501  502  0.00000000000E+00 -0.00000000000E+00 -0.80516148913E+02  0.80516148913E+02  0.00000000000E+00 0.  1.
         23    2    1    2    0    0 -0.13260189917E+02 -0.84491268501E+02  0.24238862236E+03  0.27589989741E+03  0.10026914806E+03 0.  0.
         24    2    1    2    0    0 -0.18125633600E+01  0.69147732710E+02  0.15940505557E+02  0.10672771234E+03  0.79699501504E+02 0.  0.
        -11    1    4    4    0    0  0.24796771612E+02  0.29860393710E+02 -0.23198472053E+02  0.45218271755E+02  0.00000000000E+00 0.  1.
         12    1    4    4    0    0 -0.26609334972E+02  0.39287338999E+02  0.39138977610E+02  0.61509440589E+02  0.00000000000E+00 0. -1.
        -13    1    3    3    0    0 -0.28417892946E+02  0.13042276542E+02  0.40419014297E+02  0.51101607935E+02  0.00000000000E+00 0.  1.
         13    1    3    3    0    0  0.15157703029E+02 -0.97533545043E+02  0.20196960806E+03  0.22479828948E+03  0.00000000000E+00 0. -1.
          1    1    1    2  501    0  0.15072753277E+02  0.15343535791E+02 -0.12070094424E+02  0.24663721563E+02  0.00000000000E+00 0. -1.
<scales pt_clust_5="13000.00000" pt_clust_6="13000.00000" pt_clust_7="13000.00000" pt_clust_8="13000.00000" pt_clust_9="21.50842"></scales>
<clustering>
<clus scale="   21.508">  2  9  1 -1</clus>
<clus scale="   79.700">  5  6 -1 -1</clus>
<clus scale="  100.269">  7  8 -1 -1</clus>
<clus scale="  113.549">  2  5  1 -1</clus>
<clus scale="   21.508">  2  5  1 -1</clus>
</clustering>
</event>
<event>
 9    2  0.5615294E-005  0.1502067E+03  0.7546771E-02  0.1207973E+00
         21   -1    0    0  501  502  0.00000000000E+00  0.00000000000E+00  0.80562216301E+02  0.80562216301E+02  0.00000000000E+00 0. -1.
          2   -1    0    0  502    0 -0.00000000000E+00 -0.00000000000E+00 -0.75975882142E+03  0.75975882142E+03  0.00000000000E+00 0. -1.
         23    2    1    2    0    0  0.86682119012E+02  0.18803434772E+02 -0.34374306912E+02  0.13164307933E+03  0.90999716731E+02 0.  0.
         24    2    1    2    0    0  0.45818756490E+01 -0.12303775417E+03 -0.41226252081E+03  0.43797893710E+03  0.81889442209E+02 0.  0.
        -11    1    4    4    0    0  0.13196708232E+02 -0.42073674622E+02 -0.49941495296E+02  0.66622069592E+02  0.00000000000E+00 0.  1.
         12    1    4    4    0    0 -0.86148325831E+01 -0.80964079547E+02 -0.36232102551E+03  0.37135686751E+03  0.00000000000E+00 0. -1.
        -11    1    3    3    0    0  0.88967841589E+02  0.45097954373E+02 -0.33550375470E+02  0.10523654318E+03  0.00000000000E+00 0. -1.
         11    1    3    3    0    0 -0.22857225770E+01 -0.26294519601E+02 -0.82393144171E+00  0.26406536156E+02  0.00000000000E+00 0.  1.
          1    1    1    2  501    0 -0.91263994661E+02  0.10423431940E+03 -0.23255977740E+03  0.27069902129E+03  0.00000000000E+00 0. -1.
<scales pt_clust_5="13000.00000" pt_clust_6="13000.00000" pt_clust_7="13000.00000" pt_clust_8="13000.00000" pt_clust_9="125.92131"></scales>
<clustering>
<clus scale="   81.889">  5  6 -1 -1</clus>
<clus scale="   91.000">  7  8 -1 -1</clus>
<clus scale="  127.076">  2  7  1 -1</clus>
<clus scale="  125.921">  1  9  2 -1</clus>
<clus scale="  125.921">  1  5  2 -1</clus>
</clustering>
</event>
<event>
 9    2  0.5615294E-005  0.9833206E+02  0.7546771E-02  0.1292102E+00
          2   -1    0    0  502    0 -0.00000000000E+00  0.00000000000E+00  0.90531049266E+03  0.90531049266E+03  0.00000000000E+00 0. -1.
         21   -1    0    0  501  502  0.00000000000E+00 -0.00000000000E+00 -0.64709869100E+02  0.64709869100E+02  0.00000000000E+00 0. -1.
         24    2    1    2    0    0 -0.46362739541E+02 -0.37849365337E+01  0.57692971218E+03  0.58437601706E+03  0.80520849194E+02 0.  0.
         23    2    1    2    0    0 -0.21687936323E+02 -0.14743325824E+01  0.29485426861E+03  0.31060464744E+03  0.95203293322E+02 0.  0.
        -11    1    3    3    0    0 -0.43256151867E+02  0.12312499384E+02  0.13807131275E+03  0.14521149995E+03  0.00000000000E+00 0.  1.
         12    1    3    3    0    0 -0.31065876739E+01 -0.16097435918E+02  0.43885839944E+03  0.43916451711E+03  0.00000000000E+00 0. -1.
        -11    1    4    4    0    0  0.30170040265E+02 -0.13087614372E+02  0.19237622977E+03  0.19516693050E+03  0.00000000000E+00 0.  1.
         11    1    4    4    0    0 -0.51857976588E+02  0.11613281790E+02  0.10247803884E+03  0.11543771695E+03  0.00000000000E+00 0. -1.
          1    1    1    2  501    0  0.68050675864E+02  0.52592691161E+01 -0.31183357224E+02  0.75039697260E+02  0.00000000000E+00 0. -1.
<scales pt_clust_5="13000.00000" pt_clust_6="13000.00000" pt_clust_7="13000.00000" pt_clust_8="13000.00000" pt_clust_9="68.25360"></scales>
<clustering>
<clus scale="   68.254">  2  9  1 -1</clus>
<clus scale="   80.521">  5  6 -1 -1</clus>
<clus scale="   84.197">  1  5  2 -1</clus>
<clus scale="   95.203">  7  8 -1 -1</clus>
<clus scale="   68.254">  2  5  1 -1</clus>
</clustering>
</event>
<event>
 9    2  0.5615294E-005  0.1361180E+03  0.7546771E-02  0.1220091E+00
         21   -1    0    0  501  502  0.00000000000E+00  0.00000000000E+00  0.19327531524E+02  0.19327531524E+02  0.00000000000E+00 0.  1.
         -3   -1    0    0    0  501 -0.00000000000E+00 -0.00000000000E+00 -0.15803178073E+04  0.15803178073E+04  0.00000000000E+00 0.  1.
         24    2    1    2    0    0 -0.13459349955E+03  0.11754578469E+02 -0.90558219516E+03  0.91914225877E+03  0.80559291438E+02 0.  0.
         23    2    1    2    0    0  0.66547776068E+02 -0.28084330334E+02 -0.40533268698E+03  0.42082138300E+03  0.87055804777E+02 0.  0.
        -13    1    3    3    0    0 -0.95271022611E+02  0.30485506194E+02 -0.42601047122E+03  0.43759668123E+03  0.00000000000E+00 0.  1.
         14    1    3    3    0    0 -0.39322476938E+02 -0.18730927725E+02 -0.47957172394E+03  0.48154557754E+03  0.00000000000E+00 0. -1.
        -13    1    4    4    0    0  0.24082905299E+02 -0.47479474444E+02 -0.31150092308E+03  0.31601758163E+03  0.00000000000E+00 0.  1.
         13    1    4    4    0    0  0.42464870770E+02  0.19395144110E+02 -0.93831763908E+02  0.10480380137E+03  0.00000000000E+00 0. -1.
         -4    1    1    2    0  502  0.68045723481E+02  0.16329751865E+02 -0.25007539359E+03  0.25968169701E+03  0.00000000000E+00 0.  1.
<scales pt_clust_5="13000.00000" pt_clust_6="13000.00000" pt_clust_7="13000.00000" pt_clust_8="13000.00000" pt_clust_9="69.97772"></scales>
<clustering>
<clus scale="   69.978">  1  9  2 -1</clus>
<clus scale="   80.559">  5  6 -1 -1</clus>
<clus scale="   87.056">  7  8 -1 -1</clus>
<clus scale="  132.058">  2  5  1 -1</clus>
<clus scale="   69.978">  1  5  2 -1</clus>
</clustering>
</event>
<event>
 9    2  0.5615294E-005  0.1534592E+03  0.7546771E-02  0.1198442E+00
          2   -1    0    0  502    0 -0.00000000000E+00  0.00000000000E+00  0.11482188980E+04  0.11482188980E+04  0.00000000000E+00 0. -1.
         21   -1    0    0  501  502  0.00000000000E+00 -0.00000000000E+00 -0.25207491548E+02  0.25207491548E+02  0.00000000000E+00 0. -1.
         24    2    1    2    0    0  0.46573393463E+02  0.12051514821E+03  0.66206403044E+03  0.67933741936E+03  0.80483333767E+02 0.  0.
         23    2    1    2    0    0 -0.34219391293E+02 -0.10423584268E+03  0.30869582864E+03  0.34047200877E+03  0.92693022908E+02 0.  0.
        -11    1    3    3    0    0  0.37359889804E+02  0.24414681324E+02  0.10690833306E+03  0.11585003111E+03  0.00000000000E+00 0.  1.
         12    1    3    3    0    0  0.92135036595E+01  0.96100466886E+02  0.55515569738E+03  0.56348738825E+03  0.00000000000E+00 0. -1.
        -11    1    4    4    0    0 -0.28047337160E+02 -0.12599798725E+02  0.17857511405E+03  0.18120286810E+03  0.00000000000E+00 0.  1.
         11    1    4    4    0    0 -0.61720541325E+01 -0.91636043955E+02  0.13012071459E+03  0.15926914067E+03  0.00000000000E+00 0. -1.
          1    1    1    2  501    0 -0.12354002171E+02 -0.16279305529E+02  0.15225154737E+03  0.15361696142E+03  0.00000000000E+00 0. -1.
<scales pt_clust_5="13000.00000" pt_clust_6="13000.00000" pt_clust_7="13000.00000" pt_clust_8="13000.00000" pt_clust_9="20.43618"></scales>
<clustering>
<clus scale="   20.436">  2  9  1 -1</clus>
<clus scale="   80.483">  5  6 -1 -1</clus>
<clus scale="   92.693">  7  8 -1 -1</clus>
<clus scale="  146.408">  1  5  2 -1</clus>
<clus scale="   20.436">  2  5  1 -1</clus>
</clustering>
</event>
<event>
 9    2  0.5615294E-005  0.9922181E+02  0.7546771E-02  0.1288953E+00
          4   -1    0    0  502    0 -0.00000000000E+00  0.00000000000E+00  0.11581821318E+03  0.11581821318E+03  0.00000000000E+00 0. -1.
         21   -1    0    0  501  502  0.00000000000E+00 -0.00000000000E+00 -0.16583086870E+03  0.16583086870E+03  0.00000000000E+00 0. -1.
         24    2    1    2    0    0  0.11052186580E+02 -0.25820271929E+02  0.38596156830E+02  0.92703759299E+02  0.79470034575E+02 0.  0.
         23    2    1    2    0    0 -0.49701473853E+02  0.31288930119E+02 -0.22345328849E+02  0.11203938735E+03  0.92759241833E+02 0.  0.
        -11    1    3    3    0    0 -0.44622151651E+01 -0.26466538044E+02 -0.19107926958E+02  0.32946955441E+02  0.00000000000E+00 0.  1.
         12    1    3    3    0    0  0.15514401745E+02  0.64626611506E+00  0.57704083788E+02  0.59756803858E+02  0.00000000000E+00 0. -1.
        -11    1    4    4    0    0 -0.37370622517E+02  0.58350257971E+02 -0.37364398793E+02  0.78723658006E+02  0.00000000000E+00 0. -1.
         11    1    4    4    0    0 -0.12330851336E+02 -0.27061327852E+02  0.15019069944E+02  0.33315729345E+02  0.00000000000E+00 0.  1.
          3    1    1    2  501    0  0.38649287273E+02 -0.54686581900E+01 -0.66263483495E+02  0.76905935232E+02  0.00000000000E+00 0. -1.
<scales pt_clust_5="13000.00000" pt_clust_6="13000.00000" pt_clust_7="13000.00000" pt_clust_8="13000.00000" pt_clust_9="39.03426"></scales>
<clustering>
<clus scale="   39.034">  2  9  1 -1</clus>
<clus scale="   79.470">  5  6 -1 -1</clus>
<clus scale="   86.926">  1  5  2 -1</clus>
<clus scale="   92.759">  7  8 -1 -1</clus>
<clus scale="   39.034">  2  5  1 -1</clus>
</clustering>
</event>
<event>
 9    2  0.5615294E-005  0.2293122E+03  0.7546771E-02  0.1128040E+00
          2   -1    0    0  502    0 -0.00000000000E+00  0.00000000000E+00  0.63517745817E+03  0.63517745817E+03  0.00000000000E+00 0. -1.
         21   -1    0    0  501  502  0.00000000000E+00 -0.00000000000E+00 -0.15081378603E+03  0.15081378603E+03  0.00000000000E+00 0.  1.
         23    2    1    2    0    0  0.21247284433E+03  0.15512413090E+03  0.23580054633E+03  0.36517198348E+03  0.92414686621E+02 0.  0.
         24    2    1    2    0    0 -0.13188134275E+03 -0.74001748678E+02  0.28634482808E+02  0.17293937239E+03  0.78861559350E+02 0.  0.
        -11    1    4    4    0    0 -0.83111956008E+02 -0.84204105853E+02  0.33262903495E+02  0.12289975355E+03  0.00000000000E+00 0.  1.
         12    1    4    4    0    0 -0.48769386745E+02  0.10202357176E+02 -0.46284206864E+01  0.50039618838E+02  0.00000000000E+00 0. -1.
        -13    1    3    3    0    0  0.47260612831E+02  0.41703445359E+02  0.11511121218E+03  0.13123770056E+03  0.00000000000E+00 0. -1.
         13    1    3    3    0    0  0.16521223150E+03  0.11342068555E+03  0.12068933415E+03  0.23393428292E+03  0.00000000000E+00 0.  1.
          1    1    1    2  501    0 -0.80591501578E+02 -0.81122382227E+02  0.21992864300E+03  0.24787988833E+03  0.00000000000E+00 0. -1.
<scales pt_clust_5="13000.00000" pt_clust_6="13000.00000" pt_clust_7="13000.00000" pt_clust_8="13000.00000" pt_clust_9="114.34966"></scales>
<clustering>
<clus scale="   78.862">  5  6 -1 -1</clus>
<clus scale="   92.415">  7  8 -1 -1</clus>
<clus scale="  114.350">  2  9  1 -1</clus>
<clus scale="  224.194">  2  5  1 -1</clus>
<clus scale="  114.350">  2  5  1 -1</clus>
</clustering>
</event>
<event>
 9    2  0.5615294E-005  0.9155594E+02  0.7546771E-02  0.1304152E+00
         21   -1    0    0  501  502  0.00000000000E+00  0.00000000000E+00  0.33680842255E+03  0.33680842255E+03  0.00000000000E+00 0. -1.
          2   -1    0    0  502    0 -0.00000000000E+00 -0.00000000000E+00 -0.96452547962E+02  0.96452547962E+02  0.00000000000E+00 0. -1.
         24    2    1    2    0    0  0.88079131085E+01 -0.14099748594E+02 -0.51750725026E+02  0.97497089897E+02  0.80939253480E+02 0.  0.
         23    2    1    2    0    0  0.12430973682E+01  0.66291688447E+02  0.21598985059E+03  0.24292649117E+03  0.89249825239E+02 0.  0.
        -11    1    3    3    0    0 -0.15605679618E+02 -0.19887721955E+02  0.12732130488E+02  0.28304873567E+02  0.00000000000E+00 0.  1.
         12    1    3    3    0    0  0.24413592727E+02  0.57879733611E+01 -0.64482855514E+02  0.69192216330E+02  0.00000000000E+00 0. -1.
        -11    1    4    4    0    0 -0.24023207421E+02 -0.13447172244E+02  0.52385755449E+02  0.59179458515E+02  0.00000000000E+00 0.  1.
         11    1    4    4    0    0  0.25266304790E+02  0.79738860691E+02  0.16360409514E+03  0.18374703266E+03  0.00000000000E+00 0. -1.
          1    1    1    2  501    0 -0.10051010477E+02 -0.52191939854E+02  0.76116749020E+02  0.92837389444E+02  0.00000000000E+00 0. -1.
<scales pt_clust_5="13000.00000" pt_clust_6="13000.00000" pt_clust_7="13000.00000" pt_clust_8="13000.00000" pt_clust_9="53.15093"></scales>
<clustering>
<clus scale="   53.151">  1  9  2 -1</clus>
<clus scale="   80.939">  5  6 -1 -1</clus>
<clus scale="   83.475">  2  5  1 -1</clus>
<clus scale="   89.250">  7  8 -1 -1</clus>
<clus scale="   53.151">  1  5  2 -1</clus>
</clustering>
</event>
<event>
 9    2  0.5615294E-005  0.3082682E+03  0.7546771E-02  0.1119082E+00
         21   -1    0    0  501  502  0.00000000000E+00  0.00000000000E+00  0.16082997063E+03  0.16082997063E+03  0.00000000000E+00 0.  1.
          2   -1    0    0  502    0 -0.00000000000E+00 -0.00000000000E+00 -0.10660441088E+04  0.10660441088E+04  0.00000000000E+00 0. -1.
         24    2    1    2    0    0 -0.71761457070E+02  0.41224091462E+02 -0.45064596781E+03  0.46515944376E+03  0.80264483895E+02 0.  0.
         23    2    1    2    0    0 -0.24970823793E+03 -0.80849643434E+02 -0.27917260387E+03  0.39337165158E+03  0.88955295413E+02 0.  0.
        -11    1    3    3    0    0 -0.42362540656E+02 -0.20098323866E+02 -0.20310356770E+03  0.20844564444E+03  0.00000000000E+00 0.  1.
         12    1    3    3    0    0 -0.29398916413E+02  0.61322415328E+02 -0.24754240011E+03  0.25671379932E+03  0.00000000000E+00 0. -1.
        -11    1    4    4    0    0 -0.63230658890E+02 -0.60132147437E+01 -0.22455641450E+02  0.67368618868E+02  0.00000000000E+00 0.  1.
         11    1    4    4    0    0 -0.18647757904E+03 -0.74836428691E+02 -0.25671696242E+03  0.32600303271E+03  0.00000000000E+00 0. -1.
          1    1    1    2  501    0  0.32146969500E+03  0.39625551972E+02 -0.17539556644E+03  0.36834298405E+03  0.00000000000E+00 0. -1.
<scales pt_clust_5="13000.00000" pt_clust_6="13000.00000" pt_clust_7="13000.00000" pt_clust_8="13000.00000" pt_clust_9="295.15457"></scales>
<clustering>
<clus scale="   80.264">  5  6 -1 -1</clus>
<clus scale="   88.955">  7  8 -1 -1</clus>
<clus scale="  115.289">  2  5  1 -1</clus>
<clus scale="  295.155">  1  9  2 -1</clus>
<clus scale="  295.155">  1  5  2 -1</clus>
</clustering>
</event>
<event>
 9    2  0.5615294E-005  0.1122022E+03  0.7546771E-02  0.1260388E+00
         -1   -1    0    0    0  501 -0.00000000000E+00  0.00000000000E+00  0.20961834321E+03  0.20961834321E+03  0.00000000000E+00 0.  1.
         21   -1    0    0  501  502  0.00000000000E+00 -0.00000000000E+00 -0.14138344917E+03  0.14138344917E+03  0.00000000000E+00 0. -1.
         23    2    1    2    0    0  0.57742064182E+02 -0.26946600977E+02  0.14243105256E+03  0.18046143733E+03  0.90661239513E+02 0.  0.
         24    2    1    2    0    0 -0.57876813991E+02  0.50596028294E+02 -0.22133701886E+02  0.11335807666E+03  0.80314812505E+02 0.  0.
        -13    1    4    4    0    0 -0.23499970530E+02  0.37226668820E+02  0.27208634179E+02  0.51753099040E+02  0.00000000000E+00 0.  1.
         14    1    4    4    0    0 -0.34376843461E+02  0.13369359474E+02 -0.49342336065E+02  0.61604977619E+02  0.00000000000E+00 0. -1.
        -11    1    3    3    0    0  0.36995648154E+02 -0.60630239896E+02  0.85851890968E+02  0.11142374592E+03  0.00000000000E+00 0.  1.
         11    1    3    3    0    0  0.20746416029E+02  0.33683638919E+02  0.56579161596E+02  0.69037691414E+02  0.00000000000E+00 0. -1.
         -2    1    1    2    0  502  0.13474980871E+00 -0.23649427317E+02 -0.52062456637E+02  0.57182278383E+02  0.00000000000E+00 0.  1.
<scales pt_clust_5="13000.00000" pt_clust_6="13000.00000" pt_clust_7="13000.00000" pt_clust_8="13000.00000" pt_clust_9="23.64981"></scales>
<clustering>
<clus scale="   23.650">  2  9  1 -1</clus>
<clus scale="   80.315">  5  6 -1 -1</clus>
<clus scale="   90.661">  7  8 -1 -1</clus>
<clus scale="  104.021">  2  5  1 -1</clus>
<clus scale="   23.650">  2  5  1 -1</clus>
</clustering>
</event>
<event>
 9    2  0.5615294E-005  0.1014877E+03  0.7546771E-02  0.1281629E+00
         21   -1    0    0  501  502  0.00000000000E+00  0.00000000000E+00  0.19935136189E+03  0.19935136189E+03  0.00000000000E+00 0.  1.
         -1   -1    0    0    0  501 -0.00000000000E+00 -0.00000000000E+00 -0.32568446574E+03  0.32568446574E+03  0.00000000000E+00 0.  1.
         24    2    1    2    0    0 -0.24248667034E+01 -0.50867445418E+02 -0.16978137469E+03  0.19461753787E+03  0.80354799950E+02 0.  0.
         23    2    1    2    0    0 -0.26464234269E+02 -0.34624193081E+01  0.16752509051E+03  0.19192146114E+03  0.89759942356E+02 0.  0.
        -13    1    3    3    0    0  0.22776849963E+02 -0.63052268562E+02 -0.11562931633E+03  0.13365819189E+03  0.00000000000E+00 0.  1.
         14    1    3    3    0    0 -0.25201716666E+02  0.12184823144E+02 -0.54152058358E+02  0.60959345981E+02  0.00000000000E+00 0. -1.
        -11    1    4    4    0    0 -0.58350990194E+02 -0.14096635164E+02  0.10694687428E+03  0.12264251750E+03  0.00000000000E+00 0.  1.
         11    1    4    4    0    0  0.31886755926E+02  0.10634215856E+02  0.60578216230E+02  0.69278943641E+02  0.00000000000E+00 0. -1.
         -2    1    1    2    0  502  0.28889100972E+02  0.54329864726E+02 -0.12407681968E+03  0.13849682862E+03  0.00000000000E+00 0.  1.
<scales pt_clust_5="13000.00000" pt_clust_6="13000.00000" pt_clust_7="13000.00000" pt_clust_8="13000.00000" pt_clust_9="61.53307"></scales>
<clustering>
<clus scale="   61.533">  1  9  2 -1</clus>
<clus scale="   80.355">  5  6 -1 -1</clus>
<clus scale="   89.760">  7  8 -1 -1</clus>
<clus scale="   93.273">  2  5  1 -1</clus>
<clus scale="   61.533">  1  5  2 -1</clus>
</clustering>
</event>
<event>
 9    2  0.5615294E-005  0.1807091E+03  0.7546771E-02  0.1167666E+00
         21   -1    0    0  501  502  0.00000000000E+00  0.00000000000E+00  0.27865883074E+02  0.27865883074E+02  0.00000000000E+00 0.  1.
          2   -1    0    0  502    0 -0.00000000000E+00 -0.00000000000E+00 -0.21879207660E+04  0.21879207660E+04  0.00000000000E+00 0. -1.
         24    2    1    2    0    0 -0.33405960517E+02  0.14940468417E+03 -0.75472478835E+03  0.77438145808E+03  0.81359809507E+02 0.  0.
         23    2    1    2    0    0 -0.80831565532E+02 -0.16730396816E+03 -0.90085023538E+03  0.92384309322E+03  0.86200664512E+02 0.  0.
        -11    1    3    3    0    0 -0.46547508546E+02  0.49514558314E+02 -0.22034113822E+03  0.23058312867E+03  0.00000000000E+00 0.  1.
         12    1    3    3    0    0  0.13141548029E+02  0.99890125857E+02 -0.53438365014E+03  0.54379832940E+03  0.00000000000E+00 0. -1.
        -11    1    4    4    0    0 -0.12584359782E+02 -0.54611582518E+02 -0.12640492241E+03  0.13827145572E+03  0.00000000000E+00 0.  1.
         11    1    4    4    0    0 -0.68247205751E+02 -0.11269238564E+03 -0.77444531296E+03  0.78557163750E+03  0.00000000000E+00 0. -1.
          1    1    1    2  501    0  0.11423752605E+03  0.17899283987E+02 -0.50447985917E+03  0.51756209776E+03  0.00000000000E+00 0. -1.
<scales pt_clust_5="13000.00000" pt_clust_6="13000.00000" pt_clust_7="13000.00000" pt_clust_8="13000.00000" pt_clust_9="115.63130"></scales>
<clustering>
<clus scale="   81.360">  5  6 -1 -1</clus>
<clus scale="   86.201">  7  8 -1 -1</clus>
<clus scale="  115.631">  1  9  2 -1</clus>
<clus scale="  178.451">  2  5  1 -1</clus>
<clus scale="  115.631">  1  5  2 -1</clus>
</clustering>
</event>
<event>
 9    2  0.6306565E-005  0.1539968E+03  0.7546771E-02  0.1225681E+00
         21   -1    0    0  501  502  0.00000000000E+00  0.00000000000E+00  0.11041754882E+03  0.11041754882E+03  0.00000000000E+00 0. -1.
          2   -1    0    0  502    0 -0.00000000000E+00 -0.00000000000E+00 -0.70840421706E+03  0.70840421706E+03  0.00000000000E+00 0. -1.
         24    2    1    2    0    0 -0.90820438250E+01  0.82458877422E+01 -0.45934658597E+02  0.93241813058E+02  0.80209504782E+02 0.  0.
         23    2    1    2    0    0  0.85789370268E+02  0.90317829994E+02 -0.57792163724E+03  0.59803365528E+03  0.90187069973E+02 0.  0.
        -13    1    3    3    0    0 -0.38335998763E+02  0.25619963552E+02 -0.19098072510E+02  0.49907591679E+02  0.00000000000E+00 0.  1.
         14    1    3    3    0    0  0.29253954938E+02 -0.17374075810E+02 -0.26836586087E+02  0.43334221380E+02  0.00000000000E+00 0. -1.
        -13    1    4    4    0    0 -0.19113978583E+02  0.95316807328E+01 -0.76659044949E+02  0.79578931177E+02  0.00000000000E+00 0.  1.
         13    1    4    4    0    0  0.10490334885E+03  0.80786149261E+02 -0.50126259229E+03  0.51845472410E+03  0.00000000000E+00 0. -1.
          1    1    1    2  501    0 -0.76707326443E+02 -0.98563717736E+02  0.25869627601E+02  0.12754629754E+03  0.00000000000E+00 0. -1.
<scales pt_clust_5="13000.00000" pt_clust_6="13000.00000" pt_clust_7="13000.00000" pt_clust_8="13000.00000" pt_clust_9="124.82506"></scales>
<clustering>
<clus scale="   80.210">  5  6 -1 -1</clus>
<clus scale="   81.142">  2  5  1 -1</clus>
<clus scale="   90.187">  7  8 -1 -1</clus>
<clus scale="  124.825">  1  9  2 -1</clus>
<clus scale="  124.825">  1  5  2 -1</clus>
</clustering>
</event>
<event>
 9    2  0.5615294E-005  0.1084870E+03  0.7546771E-02  0.1266871E+00
         21   -1    0    0  501  502  0.00000000000E+00  0.00000000000E+00  0.40349209915E+02  0.40349209915E+02  0.00000000000E+00 0.  1.
         -1   -1    0    0    0  501 -0.00000000000E+00 -0.00000000000E+00 -0.52209848202E+03  0.52209848202E+03  0.00000000000E+00 0.  1.
         24    2    1    2    0    0 -0.29839351219E+02  0.53367930977E+02 -0.29539556656E+03  0.31245442214E+03  0.81429123959E+02 0.  0.
         23    2    1    2    0    0  0.69206195239E+02 -0.21506028101E+02 -0.13692301441E+03  0.17922376727E+03  0.90117923717E+02 0.  0.
        -13    1    3    3    0    0 -0.32008565218E+02  0.54094317257E+02 -0.30042465164E+03  0.30692949471E+03  0.00000000000E+00 0.  1.
         14    1    3    3    0    0  0.21692139994E+01 -0.72638627957E+00  0.50290850767E+01  0.55249274304E+01  0.00000000000E+00 0. -1.
        -13    1    4    4    0    0  0.48350037274E+02  0.32007852388E+02 -0.74356346254E+02  0.94292602823E+02  0.00000000000E+00 0.  1.
         13    1    4    4    0    0  0.20856157965E+02 -0.53513880489E+02 -0.62566668152E+02  0.84931164443E+02  0.00000000000E+00 0. -1.
         -2    1    1    2    0  502 -0.39366844020E+02 -0.31861902876E+02 -0.49430691139E+02  0.70769502538E+02  0.00000000000E+00 0.  1.
<scales pt_clust_5="13000.00000" pt_clust_6="13000.00000" pt_clust_7="13000.00000" pt_clust_8="13000.00000" pt_clust_9="50.64513"></scales>
<clustering>
<clus scale="   50.645">  1  9  2 -1</clus>
<clus scale="   81.429">  5  6 -1 -1</clus>
<clus scale="   90.118">  7  8 -1 -1</clus>
<clus scale="  101.385">  2  5  1 -1</clus>
<clus scale="   50.645">  1  5  2 -1</clus>
</clustering>
</event>
<event>
 9    2  0.5615294E-005  0.1000440E+03  0.7546771E-02  0.1289701E+00
          2   -1    0    0  502    0 -0.00000000000E+00  0.00000000000E+00  0.15581708893E+03  0.15581708893E+03  0.00000000000E+00 0. -1.
         21   -1    0    0  501  502  0.00000000000E+00 -0.00000000000E+00 -0.18825557291E+03  0.18825557291E+03  0.00000000000E+00 0. -1.
         24    2    1    2    0    0  0.23832315983E+02  0.28836818588E+02  0.10158105361E+03  0.13356878619E+03  0.78245567287E+02 0.  0.
         23    2    1    2    0    0 -0.34397166950E+01  0.85461761489E+01 -0.34144468078E+02  0.10192958812E+03  0.95597737715E+02 0.  0.
        -13    1    3    3    0    0  0.14418554723E+02 -0.24717020873E+02  0.17833106774E+02  0.33717140127E+02  0.00000000000E+00 0.  1.
         14    1    3    3    0    0  0.94137612600E+01  0.53553839460E+02  0.83747946839E+02  0.99851646064E+02  0.00000000000E+00 0. -1.
        -13    1    4    4    0    0  0.30977394138E+02  0.58154410712E+01  0.20279017829E+02  0.37478752201E+02  0.00000000000E+00 0. -1.
         13    1    4    4    0    0 -0.34417110833E+02  0.27307350778E+01 -0.54423485908E+02  0.64450835918E+02  0.00000000000E+00 0.  1.
          1    1    1    2  501    0 -0.20392599288E+02 -0.37382994737E+02 -0.99875069516E+02  0.10857428753E+03  0.00000000000E+00 0. -1.
<scales pt_clust_5="13000.00000" pt_clust_6="13000.00000" pt_clust_7="13000.00000" pt_clust_8="13000.00000" pt_clust_9="42.58341"></scales>
<clustering>
<clus scale="   42.583">  2  9  1 -1</clus>
<clus scale="   78.246">  5  6 -1 -1</clus>
<clus scale="   83.620">  1  5  2 -1</clus>
<clus scale="   95.598">  7  8 -1 -1</clus>
<clus scale="   42.583">  2  5  1 -1</clus>
</clustering>
</event>
<event>
 9    2  0.5615294E-005  0.1991776E+03  0.7546771E-02  0.1151964E+00
         -3   -1    0    0    0  501 -0.00000000000E+00  0.00000000000E+00  0.10924193141E+04  0.10924193141E+04  0.00000000000E+00 0.  1.
         21   -1    0    0  501  502  0.00000000000E+00 -0.00000000000E+00 -0.48714646523E+02  0.48714646523E+02  0.00000000000E+00 0.  1.
         23    2    1    2    0    0  0.39110936855E+02  0.14582630649E+03  0.31316412948E+03  0.35929513132E+03  0.90698634760E+02 0.  0.
         24    2    1    2    0    0 -0.69210871094E+02 -0.19121447417E+03  0.49736373212E+03  0.54238629820E+03  0.73885686309E+02 0.  0.
        -11    1    4    4    0    0 -0.26073003093E+02 -0.15090055638E+03  0.30696053690E+03  0.34303870134E+03  0.00000000000E+00 0.  1.
         12    1    4    4    0    0 -0.43137868001E+02 -0.40313917785E+02  0.19040319522E+03  0.19934759686E+03  0.00000000000E+00 0. -1.
        -13    1    3    3    0    0  0.53265034593E+00  0.75773178726E+02  0.23714260594E+03  0.24895476273E+03  0.00000000000E+00 0. -1.
         13    1    3    3    0    0  0.38578286509E+02  0.70053127766E+02  0.76021523542E+02  0.11034036859E+03  0.00000000000E+00 0.  1.
         -4    1    1    2    0  502  0.30099934239E+02  0.45388167676E+02  0.23317680593E+03  0.23945253106E+03  0.00000000000E+00 0.  1.
<scales pt_clust_5="13000.00000" pt_clust_6="13000.00000" pt_clust_7="13000.00000" pt_clust_8="13000.00000" pt_clust_9="54.46187"></scales>
<clustering>
<clus scale="   54.462">  2  9  1 -1</clus>
<clus scale="   73.886">  5  6 -1 -1</clus>
<clus scale="   90.699">  7  8 -1 -1</clus>
<clus scale="  192.106">  2  5  1 -1</clus>
<clus scale="   54.462">  2  5  1 -1</clus>
</clustering>
</event>
<event>
 9    2  0.5615294E-005  0.1051491E+03  0.7546771E-02  0.1272351E+00
         21   -1    0    0  501  502  0.00000000000E+00  0.00000000000E+00  0.28659556235E+02  0.28659556235E+02  0.00000000000E+00 0.  1.
          2   -1    0    0  502    0 -0.00000000000E+00 -0.00000000000E+00 -0.11228473629E+04  0.11228473629E+04  0.00000000000E+00 0. -1.
         24    2    1    2    0    0  0.50512934509E+02  0.25526575446E+02 -0.96753402817E+03  0.97290271671E+03  0.84937847360E+02 0.  0.
         23    2    1    2    0    0 -0.25902744417E+02 -0.67661342384E+01 -0.89643622354E+02  0.13036140744E+03  0.90782073005E+02 0.  0.
        -13    1    3    3    0    0  0.13337278559E+02 -0.16863926409E+02 -0.62134263190E+02  0.65749081176E+02  0.00000000000E+00 0.  1.
         14    1    3    3    0    0  0.37175655950E+02  0.42390501855E+02 -0.90539976498E+03  0.90715363554E+03  0.00000000000E+00 0. -1.
        -11    1    4    4    0    0 -0.47715693762E+01  0.38000906223E+02 -0.15734629208E+02  0.41405498480E+02  0.00000000000E+00 0.  1.
         11    1    4    4    0    0 -0.21131175041E+02 -0.44767040462E+02 -0.73908993146E+02  0.88955908956E+02  0.00000000000E+00 0. -1.
          1    1    1    2  501    0 -0.24610190092E+02 -0.18760441207E+02 -0.37010156147E+02  0.48242794993E+02  0.00000000000E+00 0. -1.
<scales pt_clust_5="13000.00000" pt_clust_6="13000.00000" pt_clust_7="13000.00000" pt_clust_8="13000.00000" pt_clust_9="30.94536"></scales>
<clustering>
<clus scale="   30.945">  1  9  2 -1</clus>
<clus scale="   84.938">  5  6 -1 -1</clus>
<clus scale="   90.782">  7  8 -1 -1</clus>
<clus scale="  100.147">  2  5  1 -1</clus>
<clus scale="   30.945">  1  5  2 -1</clus>
</clustering>
</event>
<event>
 9    2  0.5615294E-005  0.1341520E+03  0.7546771E-02  0.1224268E+00
          2   -1    0    0  502    0 -0.00000000000E+00  0.00000000000E+00  0.38376740345E+03  0.38376740345E+03  0.00000000000E+00 0. -1.
         21   -1    0    0  501  502  0.00000000000E+00 -0.00000000000E+00 -0.14896470895E+03  0.14896470895E+03  0.00000000000E+00 0. -1.
         23    2    1    2    0    0 -0.33874428215E+02 -0.60092524269E+02  0.11408776849E+03  0.16202684642E+03  0.92076553384E+02 0.  0.
         24    2    1    2    0    0  0.48275000922E+02  0.11626095204E+03  0.21394166829E+03  0.26091685927E+03  0.80370923450E+02 0.  0.
        -11    1    4    4    0    0 -0.15055039461E+02  0.65248957733E+02  0.81240999460E+02  0.10528143565E+03  0.00000000000E+00 0.  1.
         12    1    4    4    0    0  0.63330040383E+02  0.51011994310E+02  0.13270066883E+03  0.15563542362E+03  0.00000000000E+00 0. -1.
        -13    1    3    3    0    0 -0.58759974462E+02 -0.66989233669E+02  0.91464325191E+02  0.12769500699E+03  0.00000000000E+00 0.  1.
         13    1    3    3    0    0  0.24885546246E+02  0.68967093995E+01  0.22623443296E+02  0.34331839436E+02  0.00000000000E+00 0. -1.
          1    1    1    2  501    0 -0.14400572707E+02 -0.56168427773E+02 -0.93226742273E+02  0.10978840671E+03  0.00000000000E+00 0. -1.
<scales pt_clust_5="13000.00000" pt_clust_6="13000.00000" pt_clust_7="13000.00000" pt_clust_8="13000.00000" pt_clust_9="57.98507"></scales>
<clustering>
<clus scale="   57.985">  2  9  1 -1</clus>
<clus scale="   80.371">  5  6 -1 -1</clus>
<clus scale="   92.077">  7  8 -1 -1</clus>
<clus scale="  126.405">  2  5  1 -1</clus>
<clus scale="   57.985">  2  5  1 -1</clus>
</clustering>
</event>
<event>
 9    2  0.5615294E-005  0.1156864E+03  0.7546771E-02  0.1254273E+00
         21   -1    0    0  501  502  0.00000000000E+00  0.00000000000E+00  0.64872288944E+02  0.64872288944E+02  0.00000000000E+00 0. -1.
          2   -1    0    0  502    0 -0.00000000000E+00 -0.00000000000E+00 -0.38544470299E+03  0.38544470299E+03  0.00000000000E+00 0. -1.
         24    2    1    2    0    0  0.66927277004E+02  0.20822026606E+02 -0.12219608450E+03  0.16272970381E+03  0.81463220148E+02 0.  0.
         23    2    1    2    0    0 -0.25894784374E+02 -0.87343944638E+02 -0.11715159841E+03  0.17486511649E+03  0.92486795984E+02 0.  0.
        -13    1    3    3    0    0 -0.59822387202E+01 -0.20671969831E+02 -0.39217350243E+02  0.44733858283E+02  0.00000000000E+00 0.  1.
         14    1    3    3    0    0  0.72909515724E+02  0.41493996438E+02 -0.82978734257E+02  0.11799584553E+03  0.00000000000E+00 0. -1.
        -11    1    4    4    0    0 -0.19007307340E+02  0.69941765646E+01 -0.62328977482E+02  0.65536994683E+02  0.00000000000E+00 0.  1.
         11    1    4    4    0    0 -0.68874770342E+01 -0.94338121202E+02 -0.54822620930E+02  0.10932812181E+03  0.00000000000E+00 0. -1.
          1    1    1    2  501    0 -0.41032492630E+02  0.66521918031E+02 -0.81224731133E+02  0.11272217163E+03  0.00000000000E+00 0. -1.
<scales pt_clust_5="13000.00000" pt_clust_6="13000.00000" pt_clust_7="13000.00000" pt_clust_8="13000.00000" pt_clust_9="78.15905"></scales>
<clustering>
<clus scale="   78.159">  1  9  2 -1</clus>
<clus scale="   81.463">  5  6 -1 -1</clus>
<clus scale="   92.487">  7  8 -1 -1</clus>
<clus scale="  107.078">  2  5  1 -1</clus>
<clus scale="   78.159">  1  5  2 -1</clus>
</clustering>
</event>
<event>
 9    2  0.5615294E-005  0.1397173E+03  0.7546771E-02  0.1217049E+00
         21   -1    0    0  501  502  0.00000000000E+00  0.00000000000E+00  0.14248073593E+03  0.14248073593E+03  0.00000000000E+00 0.  1.
          2   -1    0    0  502    0 -0.00000000000E+00 -0.00000000000E+00 -0.24659405209E+03  0.24659405209E+03  0.00000000000E+00 0. -1.
         23    2    1    2    0    0  0.10052146362E+03 -0.42392904485E+01 -0.14821394788E+03  0.20165427589E+03  0.92598792690E+02 0.  0.
         24    2    1    2    0    0 -0.11839875859E+03 -0.28968126153E+02  0.33974860479E+02  0.14837103792E+03  0.77474223971E+02 0.  0.
        -11    1    4    4    0    0 -0.47349698513E+02 -0.46536899376E+02  0.35255857008E+02  0.75170821508E+02  0.00000000000E+00 0.  1.
         12    1    4    4    0    0 -0.71049060078E+02  0.17568773223E+02 -0.12809965295E+01  0.73200216411E+02  0.00000000000E+00 0. -1.
        -11    1    3    3    0    0  0.39677123789E+02 -0.22462416235E+02 -0.12660436943E+03  0.13456411354E+03  0.00000000000E+00 0. -1.
         11    1    3    3    0    0  0.60844339835E+02  0.18223125786E+02 -0.21609578450E+02  0.67090162351E+02  0.00000000000E+00 0.  1.
          1    1    1    2  501    0  0.17877294966E+02  0.33207416601E+02  0.10125771244E+02  0.39049474208E+02  0.00000000000E+00 0. -1.
<scales pt_clust_5="13000.00000" pt_clust_6="13000.00000" pt_clust_7="13000.00000" pt_clust_8="13000.00000" pt_clust_9="37.71379"></scales>
<clustering>
<clus scale="   37.714">  1  9  2 -1</clus>
<clus scale="   77.474">  5  6 -1 -1</clus>
<clus scale="   92.599">  7  8 -1 -1</clus>
<clus scale="  130.187">  1  5  2 -1</clus>
<clus scale="   37.714">  1  5  2 -1</clus>
</clustering>
</event>
<event>
 9    2  0.5615294E-005  0.1924064E+03  0.7546771E-02  0.1158087E+00
         21   -1    0    0  501  502  0.00000000000E+00  0.00000000000E+00  0.78978489013E+02  0.78978489013E+02  0.00000000000E+00 0. -1.
          2   -1    0    0  502    0 -0.00000000000E+00 -0.00000000000E+00 -0.10276927948E+04  0.10276927948E+04  0.00000000000E+00 0. -1.
         24    2    1    2    0    0  0.19917557533E+03  0.37868913581E+02 -0.58196408600E+03  0.62154240056E+03  0.80794763854E+02 0.  0.
         23    2    1    2    0    0 -0.67637182665E+02 -0.70335450407E+02 -0.61097699643E+02  0.15079388984E+03  0.97385852408E+02 0.  0.
        -11    1    3    3    0    0  0.12860834993E+03 -0.13719195160E+02 -0.38216764492E+03  0.40346057157E+03  0.00000000000E+00 0.  1.
         12    1    3    3    0    0  0.70567225399E+02  0.51588108741E+02 -0.19979644108E+03  0.21808182899E+03  0.00000000000E+00 0. -1.
        -13    1    4    4    0    0 -0.65487173656E+02 -0.21348183397E+01 -0.48224701376E+02  0.81355695471E+02  0.00000000000E+00 0.  1.
         13    1    4    4    0    0 -0.21500090091E+01 -0.68200632067E+02 -0.12872998267E+02  0.69438194371E+02  0.00000000000E+00 0. -1.
          1    1    1    2  501    0 -0.13153839266E+03  0.32466536826E+02 -0.30565252018E+03  0.33433499346E+03  0.00000000000E+00 0. -1.
<scales pt_clust_5="13000.00000" pt_clust_6="13000.00000" pt_clust_7="13000.00000" pt_clust_8="13000.00000" pt_clust_9="135.48595"></scales>
<clustering>
<clus scale="   80.795">  5  6 -1 -1</clus>
<clus scale="   97.386">  7  8 -1 -1</clus>
<clus scale="  135.486">  1  9  2 -1</clus>
<clus scale="  184.564">  2  5  1 -1</clus>
<clus scale="  135.486">  1  5  2 -1</clus>
</clustering>
</event>
<event>
 9    2  0.5615294E-005  0.9123249E+02  0.7546771E-02  0.1326200E+00
         -1   -1    0    0    0  501 -0.00000000000E+00  0.00000000000E+00  0.31433753472E+02  0.31433753472E+02  0.00000000000E+00 0.  1.
         21   -1    0    0  501  502  0.00000000000E+00 -0.00000000000E+00 -0.23904800242E+03  0.23904800242E+03  0.00000000000E+00 0.  1.
         23    2    1    2    0    0  0.37306447919E+01  0.10139152112E+01 -0.95830372688E+02  0.13191667776E+03  0.90573747891E+02 0.  0.
         24    2    1    2    0    0 -0.26524857175E+01  0.20523811757E+02 -0.90669013040E+02  0.10838439625E+03  0.55660083505E+02 0.  0.
        -13    1    4    4    0    0 -0.19987632946E+02 -0.53317649127E+01 -0.64438009955E+02  0.67677103328E+02  0.00000000000E+00 0.  1.
         14    1    4    4    0    0  0.17335147229E+02  0.25855576670E+02 -0.26231003084E+02  0.40707292924E+02  0.00000000000E+00 0. -1.
        -11    1    3    3    0    0  0.30160765686E+02  0.24289541131E+02 -0.87558968465E+02  0.95740412333E+02  0.00000000000E+00 0.  1.
         11    1    3    3    0    0 -0.26430120894E+02 -0.23275625920E+02 -0.82714042233E+01  0.36176265427E+02  0.00000000000E+00 0. -1.
         -2    1    1    2    0  502 -0.10781590745E+01 -0.21537726968E+02 -0.21114863216E+02  0.30180681877E+02  0.00000000000E+00 0.  1.
<scales pt_clust_5="13000.00000" pt_clust_6="13000.00000" pt_clust_7="13000.00000" pt_clust_8="13000.00000" pt_clust_9="21.56471"></scales>
<clustering>
<clus scale="   21.565">  2  9  1 -1</clus>
<clus scale="   55.660">  5  6 -1 -1</clus>
<clus scale="   56.726">  2  5  1 -1</clus>
<clus scale="   90.574">  7  8 -1 -1</clus>
<clus scale="   21.565">  2  5  1 -1</clus>
</clustering>
</event>
<event>
 9    2  0.5615294E-005  0.1502429E+03  0.7546771E-02  0.1201352E+00
         21   -1    0    0  501  502  0.00000000000E+00  0.00000000000E+00  0.10648578907E+03  0.10648578907E+03  0.00000000000E+00 0. -1.
          2   -1    0    0  502    0 -0.00000000000E+00 -0.00000000000E+00 -0.39154614559E+03  0.39154614559E+03  0.00000000000E+00 0. -1.
         24    2    1    2    0    0  0.95608362674E+02  0.85853118864E+02 -0.23181120590E+03  0.27748942616E+03  0.82171950326E+02 0.  0.
         23    2    1    2    0    0 -0.54347697669E+02 -0.82727546371E+02  0.21919104514E+02  0.13473762367E+03  0.88748300937E+02 0.  0.
        -13    1    3    3    0    0 -0.99855172156E+01  0.27743406757E+02 -0.27740720048E+02  0.40484005747E+02  0.00000000000E+00 0.  1.
         14    1    3    3    0    0  0.10559387989E+03  0.58109712107E+02 -0.20407048585E+03  0.23700542042E+03  0.00000000000E+00 0. -1.
        -11    1    4    4    0    0 -0.26933953959E+02 -0.75436023578E+02  0.50321745636E+02  0.94595505247E+02  0.00000000000E+00 0. -1.
         11    1    4    4    0    0 -0.27413743711E+02 -0.72915227934E+01 -0.28402641122E+02  0.40142118424E+02  0.00000000000E+00 0.  1.
          1    1    1    2  501    0 -0.41260665005E+02 -0.31255724929E+01 -0.75168255136E+02  0.85804884827E+02  0.00000000000E+00 0. -1.
<scales pt_clust_5="13000.00000" pt_clust_6="13000.00000" pt_clust_7="13000.00000" pt_clust_8="13000.00000" pt_clust_9="41.37890"></scales>
<clustering>
<clus scale="   41.379">  1  9  2 -1</clus>
<clus scale="   82.172">  5  6 -1 -1</clus>
<clus scale="   88.748">  7  8 -1 -1</clus>
<clus scale="  146.454">  2  5  1 -1</clus>
<clus scale="   41.379">  1  5  2 -1</clus>
</clustering>
</event>
<event>
 9    2  0.5615294E-005  0.3958633E+03  0.7546771E-02  0.1100389E+00
          2   -1    0    0  502    0 -0.00000000000E+00  0.00000000000E+00  0.41247639260E+03  0.41247639260E+03  0.00000000000E+00 0. -1.
         21   -1    0    0  501  502  0.00000000000E+00 -0.00000000000E+00 -0.50278867594E+03  0.50278867594E+03  0.00000000000E+00 0.  1.
         24    2    1    2    0    0  0.10480488659E+02 -0.33208856610E+02 -0.13909622088E+02  0.88764248227E+02  0.80454616876E+02 0.  0.
         23    2    1    2    0    0  0.36280687576E+03 -0.10687030295E+03 -0.15722963515E+03  0.41968559556E+03  0.91459008314E+02 0.  0.
        -11    1    3    3    0    0  0.27529478526E+02 -0.53744779054E+02 -0.48572270400E+01  0.60580245278E+02  0.00000000000E+00 0.  1.
         12    1    3    3    0    0 -0.17048989866E+02  0.20535922444E+02 -0.90523950485E+01  0.28184002948E+02  0.00000000000E+00 0. -1.
        -13    1    4    4    0    0  0.17433595755E+03 -0.52609977857E+02 -0.12513295168E+03  0.22095042761E+03  0.00000000000E+00 0.  1.
         13    1    4    4    0    0  0.18847091822E+03 -0.54260325093E+02 -0.32096683464E+02  0.19873516796E+03  0.00000000000E+00 0. -1.
          1    1    1    2  501    0 -0.37328736442E+03  0.14007915956E+03  0.80826973892E+02  0.40681522475E+03  0.00000000000E+00 0. -1.
<scales pt_clust_5="13000.00000" pt_clust_6="13000.00000" pt_clust_7="13000.00000" pt_clust_8="13000.00000" pt_clust_9="385.15344"></scales>
<clustering>
<clus scale="   80.455">  5  6 -1 -1</clus>
<clus scale="   87.668">  1  5  2 -1</clus>
<clus scale="   91.459">  7  8 -1 -1</clus>
<clus scale="  385.153">  2  9  1 -1</clus>
<clus scale="  385.153">  2  5  1 -1</clus>
</clustering>
</event>
<event>
 9    2  0.5615294E-005  0.1520733E+03  0.7546771E-02  0.1200068E+00
          2   -1    0    0  502    0 -0.00000000000E+00  0.00000000000E+00  0.91966541724E+03  0.91966541724E+03  0.00000000000E+00 0. -1.
         21   -1    0    0  501  502  0.00000000000E+00 -0.00000000000E+00 -0.64723784152E+02  0.64723784152E+02  0.00000000000E+00 0. -1.
         24    2    1    2    0    0 -0.13554196867E+03  0.63661935089E+01  0.66422766035E+03  0.68263220963E+03  0.79851081094E+02 0.  0.
         23    2    1    2    0    0  0.50172097455E+02 -0.37080289456E+02  0.26356663271E+02  0.11402128452E+03  0.91727816910E+02 0.  0.
        -13    1    3    3    0    0 -0.16022568754E+02  0.21819016033E+02  0.51664725923E+02  0.58326975533E+02  0.00000000000E+00 0.  1.
         14    1    3    3    0    0 -0.11951939992E+03 -0.15452822524E+02  0.61256293443E+03  0.62430523409E+03  0.00000000000E+00 0. -1.
        -11    1    4    4    0    0  0.71243452968E+02 -0.48654964343E+02  0.25511210224E+02  0.89965309943E+02  0.00000000000E+00 0. -1.
         11    1    4    4    0    0 -0.21071355513E+02  0.11574674887E+02  0.84545304699E+00  0.24055974575E+02  0.00000000000E+00 0.  1.
          1    1    1    2  501    0  0.85369871215E+02  0.30714095947E+02  0.16435730946E+03  0.18773570725E+03  0.00000000000E+00 0. -1.
<scales pt_clust_5="13000.00000" pt_clust_6="13000.00000" pt_clust_7="13000.00000" pt_clust_8="13000.00000" pt_clust_9="90.72695"></scales>
<clustering>
<clus scale="   79.851">  5  6 -1 -1</clus>
<clus scale="   90.727">  2  9  1 -1</clus>
<clus scale="   91.728">  7  8 -1 -1</clus>
<clus scale="  145.219">  1  5  2 -1</clus>
<clus scale="   90.727">  2  5  1 -1</clus>
</clustering>
</event>
<event>
 9    2  0.5615294E-005  0.2229895E+03  0.7546771E-02  0.1132315E+00
          2   -1    0    0  502    0 -0.00000000000E+00  0.00000000000E+00  0.17057919444E+04  0.17057919444E+04  0.00000000000E+00 0. -1.
         21   -1    0    0  501  502  0.00000000000E+00 -0.00000000000E+00 -0.46734134424E+02  0.46734134424E+02  0.00000000000E+00 0.  1.
         24    2    1    2    0    0  0.67817965604E+02 -0.20960777401E+03  0.98612056870E+03  0.10137886042E+04  0.82455215605E+02 0.  0.
         23    2    1    2    0    0  0.18962507936E+02  0.18817788021E+03  0.53070688438E+03  0.57075067350E+03  0.91301932417E+02 0.  0.
        -11    1    3    3    0    0  0.70368959895E+02 -0.21108981629E+03  0.88227133861E+03  0.90989747553E+03  0.00000000000E+00 0.  1.
         12    1    3    3    0    0 -0.25509942912E+01  0.14820422846E+01  0.10384923010E+03  0.10389112865E+03  0.00000000000E+00 0. -1.
        -13    1    4    4    0    0  0.12279998708E+02  0.13212044532E+03  0.23653780448E+03  0.27121346461E+03  0.00000000000E+00 0.  1.
         13    1    4    4    0    0  0.66825092279E+01  0.56057434885E+02  0.29416907990E+03  0.29953720888E+03  0.00000000000E+00 0. -1.
          1    1    1    2  501    0 -0.86780473540E+02  0.21429893800E+02  0.14223035692E+03  0.16798680117E+03  0.00000000000E+00 0. -1.
<scales pt_clust_5="13000.00000" pt_clust_6="13000.00000" pt_clust_7="13000.00000" pt_clust_8="13000.00000" pt_clust_9="89.38731"></scales>
<clustering>
<clus scale="   82.455">  5  6 -1 -1</clus>
<clus scale="   89.387">  2  9  1 -1</clus>
<clus scale="   91.302">  7  8 -1 -1</clus>
<clus scale="  219.516">  1  5  2 -1</clus>
<clus scale="   89.387">  2  5  1 -1</clus>
</clustering>
</event>
<event>
 9    2  0.5615294E-005  0.9415529E+02  0.7546771E-02  0.1295980E+00
         21   -1    0    0  501  502  0.00000000000E+00  0.00000000000E+00  0.16838189539E+02  0.16838189539E+02  0.00000000000E+00 0. -1.
          2   -1    0    0  502    0 -0.00000000000E+00 -0.00000000000E+00 -0.95080814951E+03  0.95080814951E+03  0.00000000000E+00 0. -1.
         23    2    1    2    0    0  0.20200718532E+02  0.40300768738E+01 -0.35047406618E+03  0.36277874511E+03  0.91389475827E+02 0.  0.
         24    2    1    2    0    0  0.25957831939E+02 -0.42064606176E+02 -0.37457878202E+03  0.38755768437E+03  0.86304430070E+02 0.  0.
        -13    1    4    4    0    0 -0.30790658408E+02 -0.10339129895E+02 -0.16342703099E+03  0.16662339785E+03  0.00000000000E+00 0.  1.
         14    1    4    4    0    0  0.56748490347E+02 -0.31725476281E+02 -0.21115175103E+03  0.22093428653E+03  0.00000000000E+00 0. -1.
        -13    1    3    3    0    0  0.52253145662E+02  0.20264629168E+02 -0.24585084869E+03  0.25215805803E+03  0.00000000000E+00 0.  1.
         13    1    3    3    0    0 -0.32052427130E+02 -0.16234552294E+02 -0.10462321749E+03  0.11062068708E+03  0.00000000000E+00 0. -1.
          1    1    1    2  501    0 -0.46158550471E+02  0.38034529302E+02 -0.20891711177E+03  0.21730990956E+03  0.00000000000E+00 0. -1.
<scales pt_clust_5="13000.00000" pt_clust_6="13000.00000" pt_clust_7="13000.00000" pt_clust_8="13000.00000" pt_clust_9="59.81001"></scales>
<clustering>
<clus scale="   59.810">  1  9  2 -1</clus>
<clus scale="   86.304">  5  6 -1 -1</clus>
<clus scale="   89.228">  1  5  2 -1</clus>
<clus scale="   91.389">  7  8 -1 -1</clus>
<clus scale="   59.810">  1  5  2 -1</clus>
</clustering>
</event>
<event>
 9    2  0.5615294E-005  0.1345224E+03  0.7546771E-02  0.1241627E+00
         -1   -1    0    0    0  501 -0.00000000000E+00  0.00000000000E+00  0.64271607414E+03  0.64271607414E+03  0.00000000000E+00 0.  1.
         21   -1    0    0  501  502  0.00000000000E+00 -0.00000000000E+00 -0.62727311871E+02  0.62727311871E+02  0.00000000000E+00 0.  1.
         24    2    1    2    0    0  0.33519075652E+02  0.43968199455E+01  0.22892916793E+03  0.24517130911E+03  0.80978678811E+02 0.  0.
         23    2    1    2    0    0  0.25245816830E+02 -0.88385280516E+02  0.33203880799E+03  0.35601679209E+03  0.89715534652E+02 0.  0.
        -13    1    3    3    0    0  0.29943658977E+02  0.37689791627E+02  0.17662573556E+03  0.18306772946E+03  0.00000000000E+00 0.  1.
         14    1    3    3    0    0  0.35754166750E+01 -0.33292971682E+02  0.52303432365E+02  0.62103579647E+02  0.00000000000E+00 0. -1.
        -13    1    4    4    0    0  0.56118140290E+02 -0.38101738750E+02  0.20531518850E+03  0.21622977315E+03  0.00000000000E+00 0.  1.
         13    1    4    4    0    0 -0.30872323460E+02 -0.50283541767E+02  0.12672361949E+03  0.13978701894E+03  0.00000000000E+00 0. -1.
         -2    1    1    2    0  502 -0.58764892482E+02  0.83988460571E+02  0.19020786342E+02  0.10425528481E+03  0.00000000000E+00 0.  1.
<scales pt_clust_5="13000.00000" pt_clust_6="13000.00000" pt_clust_7="13000.00000" pt_clust_8="13000.00000" pt_clust_9="100.23673"></scales>
<clustering>
<clus scale="   80.979">  5  6 -1 -1</clus>
<clus scale="   87.752">  1  5  2 -1</clus>
<clus scale="   89.716">  7  8 -1 -1</clus>
<clus scale="  100.237">  2  9  1 -1</clus>
<clus scale="  100.237">  2  5  1 -1</clus>
</clustering>
</event>
<event>
 9    2  0.5615294E-005  0.9702252E+02  0.7546771E-02  0.1293665E+00
          2   -1    0    0  502    0 -0.00000000000E+00  0.00000000000E+00  0.11887348039E+04  0.11887348039E+04  0.00000000000E+00 0. -1.
         21   -1    0    0  501  502  0.00000000000E+00 -0.00000000000E+00 -0.26068130870E+02  0.26068130870E+02  0.00000000000E+00 0.  1.
         24    2    1    2    0    0  0.34507327036E+02 -0.88046312698E+01  0.62062554073E+03  0.62653616479E+03  0.78123151720E+02 0.  0.
         23    2    1    2    0    0 -0.28737237047E+02 -0.49884942731E+02  0.11628510579E+03  0.15844593039E+03  0.90931571655E+02 0.  0.
        -11    1    3    3    0    0  0.17318693595E+02  0.30181209390E+02  0.14987831847E+03  0.15386472271E+03  0.00000000000E+00 0.  1.
         12    1    3    3    0    0  0.17188633440E+02 -0.38985840660E+02  0.47074722226E+03  0.47267144208E+03  0.00000000000E+00 0. -1.
        -13    1    4    4    0    0  0.11812434718E+02 -0.61401605942E+02  0.50781499001E+02  0.80550924681E+02  0.00000000000E+00 0.  1.
         13    1    4    4    0    0 -0.40549671765E+02  0.11516663211E+02  0.65503606787E+02  0.77895005706E+02  0.00000000000E+00 0. -1.
          1    1    1    2  501    0 -0.57700899884E+01  0.58689574000E+02  0.42575602648E+03  0.42982083956E+03  0.00000000000E+00 0. -1.
<scales pt_clust_5="13000.00000" pt_clust_6="13000.00000" pt_clust_7="13000.00000" pt_clust_8="13000.00000" pt_clust_9="58.97257"></scales>
<clustering>
<clus scale="   58.973">  2  9  1 -1</clus>
<clus scale="   78.123">  5  6 -1 -1</clus>
<clus scale="   85.135">  1  5  2 -1</clus>
<clus scale="   90.932">  7  8 -1 -1</clus>
<clus scale="   58.973">  2  5  1 -1</clus>
</clustering>
</event>
<event>
 9    2  0.5615294E-005  0.1056019E+03  0.7546771E-02  0.1273811E+00
          4   -1    0    0  502    0 -0.00000000000E+00  0.00000000000E+00  0.40698737003E+03  0.40698737003E+03  0.00000000000E+00 0. -1.
         21   -1    0    0  501  502  0.00000000000E+00 -0.00000000000E+00 -0.71540459483E+02  0.71540459483E+02  0.00000000000E+00 0.  1.
         24    2    1    2    0    0 -0.37579048676E+02 -0.43009512675E+02  0.33391326439E+03  0.34802554429E+03  0.79760317569E+02 0.  0.
         23    2    1    2    0    0  0.32560608271E+02  0.10175528811E+02 -0.14273786196E+01  0.97155277740E+02  0.90958100164E+02 0.  0.
        -11    1    3    3    0    0 -0.29526490486E+02 -0.90649456695E+01  0.33393106695E+02  0.45487211996E+02  0.00000000000E+00 0.  1.
         12    1    3    3    0    0 -0.80525581903E+01 -0.33944567005E+02  0.30052015770E+03  0.30253833229E+03  0.00000000000E+00 0. -1.
        -13    1    4    4    0    0  0.38179361666E+02 -0.21774599128E+02 -0.30577307584E+02  0.53542212912E+02  0.00000000000E+00 0.  1.
         13    1    4    4    0    0 -0.56187533950E+01  0.31950127938E+02  0.29149928965E+02  0.43613064828E+02  0.00000000000E+00 0. -1.
          3    1    1    2  501    0  0.50184404050E+01  0.32833983864E+02  0.29610247727E+01  0.33347007485E+02  0.00000000000E+00 0. -1.
<scales pt_clust_5="13000.00000" pt_clust_6="13000.00000" pt_clust_7="13000.00000" pt_clust_8="13000.00000" pt_clust_9="33.21529"></scales>
<clustering>
<clus scale="   33.215">  2  9  1 -1</clus>
<clus scale="   79.760">  5  6 -1 -1</clus>
<clus scale="   90.958">  7  8 -1 -1</clus>
<clus scale="   96.125">  1  5  2 -1</clus>
<clus scale="   33.215">  2  5  1 -1</clus>
</clustering>
</event>
<event>
 9    2  0.5615294E-005  0.1184339E+03  0.7546771E-02  0.1257717E+00
         21   -1    0    0  501  502  0.00000000000E+00  0.00000000000E+00  0.96333611770E+02  0.96333611770E+02  0.00000000000E+00 0.  1.
         -1   -1    0    0    0  501 -0.00000000000E+00 -0.00000000000E+00 -0.43042692935E+03  0.43042692935E+03  0.00000000000E+00 0.  1.
         23    2    1    2    0    0 -0.19044442214E+02  0.93514821765E+01 -0.26086171698E+03  0.27701887740E+03  0.90777100918E+02 0.  0.
         24    2    1    2    0    0 -0.17936015702E+02  0.80903601034E+02  0.17314795868E+02  0.11665453351E+03  0.80258237669E+02 0.  0.
        -13    1    4    4    0    0 -0.20452850482E+02  0.42863551497E+02  0.48142879901E+02  0.67626474290E+02  0.00000000000E+00 0.  1.
         14    1    4    4    0    0  0.25168347804E+01  0.38040049537E+02 -0.30828084033E+02  0.49028059223E+02  0.00000000000E+00 0. -1.
        -11    1    3    3    0    0 -0.50609019034E+02  0.26669158061E+02 -0.15771440498E+03  0.16776874064E+03  0.00000000000E+00 0.  1.
         11    1    3    3    0    0  0.31564576820E+02 -0.17317675884E+02 -0.10314731201E+03  0.10925013676E+03  0.00000000000E+00 0. -1.
         -2    1    1    2    0  502  0.36980457916E+02 -0.90255083211E+02 -0.90546396462E+02  0.13308713020E+03  0.00000000000E+00 0.  1.
<scales pt_clust_5="13000.00000" pt_clust_6="13000.00000" pt_clust_7="13000.00000" pt_clust_8="13000.00000" pt_clust_9="87.09318"></scales>
<clustering>
<clus scale="   80.258">  5  6 -1 -1</clus>
<clus scale="   90.777">  7  8 -1 -1</clus>
<clus scale="   93.224">  2  7  1 -1</clus>
<clus scale="   87.093">  1  9  2 -1</clus>
<clus scale="   87.093">  1  5  2 -1</clus>
</clustering>
</event>
<event>
 9    2  0.5615294E-005  0.1011394E+03  0.7546771E-02  0.1283516E+00
          2   -1    0    0  502    0 -0.00000000000E+00  0.00000000000E+00  0.37659173995E+02  0.37659173995E+02  0.00000000000E+00 0. -1.
         21   -1    0    0  501  502  0.00000000000E+00 -0.00000000000E+00 -0.59911442528E+03  0.59911442528E+03  0.00000000000E+00 0.  1.
         24    2    1    2    0    0 -0.25070009582E+02 -0.31494091394E+02 -0.38869571468E+02  0.97638673055E+02  0.80013022170E+02 0.  0.
         23    2    1    2    0    0  0.41673674199E+02  0.45788098746E+02 -0.42427957571E+03  0.43841705080E+03  0.91450024364E+02 0.  0.
        -13    1    3    3    0    0 -0.37471543194E+02 -0.45751742383E+01 -0.52786370032E+02  0.64895682675E+02  0.00000000000E+00 0.  1.
         14    1    3    3    0    0  0.12401533612E+02 -0.26918917156E+02  0.13916798565E+02  0.32742990381E+02  0.00000000000E+00 0. -1.
        -11    1    4    4    0    0 -0.11772542428E+02  0.54349089875E+02 -0.23960951090E+03  0.24597791372E+03  0.00000000000E+00 0.  1.
         11    1    4    4    0    0  0.53446216626E+02 -0.85609911293E+01 -0.18467006481E+03  0.19243913707E+03  0.00000000000E+00 0. -1.
          1    1    1    2  501    0 -0.16603664617E+02 -0.14294007352E+02 -0.98306104107E+02  0.10071787542E+03  0.00000000000E+00 0. -1.
<scales pt_clust_5="13000.00000" pt_clust_6="13000.00000" pt_clust_7="13000.00000" pt_clust_8="13000.00000" pt_clust_9="21.90891"></scales>
<clustering>
<clus scale="   21.909">  2  9  1 -1</clus>
<clus scale="   80.013">  5  6 -1 -1</clus>
<clus scale="   90.929">  1  5  2 -1</clus>
<clus scale="   91.450">  7  8 -1 -1</clus>
<clus scale="   21.909">  2  5  1 -1</clus>
</clustering>
</event>
<event>
 9    2  0.5615294E-005  0.1083889E+03  0.7546771E-02  0.1267911E+00
         21   -1    0    0  501  502  0.00000000000E+00  0.00000000000E+00  0.34722519761E+03  0.34722519761E+03  0.00000000000E+00 0. -1.
         -1   -1    0    0    0  501 -0.00000000000E+00 -0.00000000000E+00 -0.21709065759E+03  0.21709065759E+03  0.00000000000E+00 0.  1.
         24    2    1    2    0    0 -0.47843226101E+02 -0.24318594206E+02 -0.14946570587E+03  0.17768140372E+03  0.79688868034E+02 0.  0.
         23    2    1    2    0    0  0.10991161175E+03  0.93427310681E+02  0.14815925085E+03  0.22568342053E+03  0.90402532643E+02 0.  0.
        -13    1    3    3    0    0 -0.51323198003E+02 -0.18162684065E+02 -0.15769673391E+03  0.16682989430E+03  0.00000000000E+00 0.  1.
         14    1    3    3    0    0  0.34799719019E+01 -0.61559101402E+01  0.82310280406E+01  0.10851509420E+02  0.00000000000E+00 0. -1.
        -11    1    4    4    0    0  0.55474836412E+02 -0.17045677622E+01  0.77322475969E+02  0.95179453225E+02  0.00000000000E+00 0. -1.
         11    1    4    4    0    0  0.54436775334E+02  0.95131878443E+02  0.70836774886E+02  0.13050396730E+03  0.00000000000E+00 0.  1.
         -2    1    1    2    0  502 -0.62068385645E+02 -0.69108716476E+02  0.13144099504E+03  0.16095103096E+03  0.00000000000E+00 0.  1.
<scales pt_clust_5="13000.00000" pt_clust_6="13000.00000" pt_clust_7="13000.00000" pt_clust_8="13000.00000" pt_clust_9="92.88972"></scales>
<clustering>
<clus scale="   79.689">  5  6 -1 -1</clus>
<clus scale="   90.403">  7  8 -1 -1</clus>
<clus scale="   92.890">  1  9  2 -1</clus>
<clus scale="   99.629">  2  5  1 -1</clus>
<clus scale="   92.890">  1  5  2 -1</clus>
</clustering>
</event>
<event>
 9    2  0.5615294E-005  0.9338527E+02  0.7546771E-02  0.1299884E+00
         21   -1    0    0  501  502  0.00000000000E+00  0.00000000000E+00  0.46428767876E+02  0.46428767876E+02  0.00000000000E+00 0.  1.
          2   -1    0    0  502    0 -0.00000000000E+00 -0.00000000000E+00 -0.43516033097E+03  0.43516033097E+03  0.00000000000E+00 0. -1.
         23    2    1    2    0    0 -0.18483893590E+02  0.40009792956E+01 -0.34219020443E+03  0.35463618317E+03  0.91186754797E+02 0.  0.
         24    2    1    2    0    0  0.17534891216E+02 -0.26115860926E+02 -0.53959903751E+02  0.10360760766E+03  0.82664106787E+02 0.  0.
        -11    1    4    4    0    0  0.35512198027E+02 -0.24025988803E+02  0.38329954992E+01  0.43047139291E+02  0.00000000000E+00 0.  1.
         12    1    4    4    0    0 -0.17977306811E+02 -0.20898721232E+01 -0.57792899250E+02  0.60560468371E+02  0.00000000000E+00 0. -1.
        -11    1    3    3    0    0 -0.35067420644E+02  0.39830717846E+02 -0.17639015454E+03  0.18420015390E+03  0.00000000000E+00 0. -1.
         11    1    3    3    0    0  0.16583527054E+02 -0.35829738551E+02 -0.16580004988E+03  0.17043602928E+03  0.00000000000E+00 0.  1.
          1    1    1    2  501    0  0.94900237412E+00  0.22114881630E+02  0.74185450840E+01  0.23345308012E+02  0.00000000000E+00 0. -1.
<scales pt_clust_5="13000.00000" pt_clust_6="13000.00000" pt_clust_7="13000.00000" pt_clust_8="13000.00000" pt_clust_9="22.13523"></scales>
<clustering>
<clus scale="   22.135">  1  9  2 -1</clus>
<clus scale="   82.664">  5  6 -1 -1</clus>
<clus scale="   85.083">  1  5  2 -1</clus>
<clus scale="   91.187">  7  8 -1 -1</clus>
<clus scale="   22.135">  1  5  2 -1</clus>
</clustering>
</event>
<event>
 9    2  0.5615294E-005  0.3024200E+03  0.7546771E-02  0.1084482E+00
          2   -1    0    0  502    0 -0.00000000000E+00  0.00000000000E+00  0.23102190971E+03  0.23102190971E+03  0.00000000000E+00 0. -1.
         21   -1    0    0  501  502  0.00000000000E+00 -0.00000000000E+00 -0.55587698702E+03  0.55587698702E+03  0.00000000000E+00 0. -1.
         23    2    1    2    0    0  0.22502451736E+03  0.17518830713E+03  0.21231654363E+02  0.30135949350E+03  0.95077782947E+02 0.  0.
         24    2    1    2    0    0 -0.24699906526E+03 -0.15838365638E+03 -0.34092013040E+03  0.45739742726E+03  0.83017771028E+02 0.  0.
        -11    1    4    4    0    0 -0.14235059521E+03 -0.98425528306E+02 -0.25936558465E+03  0.31180407804E+03  0.00000000000E+00 0.  1.
         12    1    4    4    0    0 -0.10464847005E+03 -0.59958128076E+02 -0.81554545744E+02  0.14559334922E+03  0.00000000000E+00 0. -1.
        -11    1    3    3    0    0  0.16530698213E+01  0.37862961346E+02 -0.30962250218E+01  0.38025295411E+02  0.00000000000E+00 0. -1.
         11    1    3    3    0    0  0.22337144754E+03  0.13732534578E+03  0.24327879385E+02  0.26333419809E+03  0.00000000000E+00 0.  1.
          1    1    1    2  501    0  0.21974547905E+02 -0.16804650748E+02 -0.51666012763E+01  0.28141975963E+02  0.00000000000E+00 0. -1.
<scales pt_clust_5="13000.00000" pt_clust_6="13000.00000" pt_clust_7="13000.00000" pt_clust_8="13000.00000" pt_clust_9="27.66365"></scales>
<clustering>
<clus scale="   27.664">  2  9  1 -1</clus>
<clus scale="   83.018">  5  6 -1 -1</clus>
<clus scale="   95.078">  7  8 -1 -1</clus>
<clus scale="  298.848">  2  5  1 -1</clus>
<clus scale="   27.664">  2  5  1 -1</clus>
</clustering>
</event>
<event>
 9    2  0.5615294E-005  0.1828646E+03  0.7546771E-02  0.1165485E+00
         21   -1    0    0  501  502  0.00000000000E+00  0.00000000000E+00  0.11109225281E+03  0.11109225281E+03  0.00000000000E+00 0.  1.
          2   -1    0    0  502    0 -0.00000000000E+00 -0.00000000000E+00 -0.78276163914E+03  0.78276163914E+03  0.00000000000E+00 0. -1.
         23    2    1    2    0    0  0.13002492049E+03  0.96796952352E+02 -0.67034139870E+03  0.69538565910E+03  0.89036476421E+02 0.  0.
         24    2    1    2    0    0 -0.10123883521E+03 -0.10364688611E+03  0.49988709173E+01  0.16820952440E+03  0.85308127584E+02 0.  0.
        -13    1    4    4    0    0 -0.50962258427E+02 -0.10454880759E+03 -0.69808454103E+01  0.11651754012E+03  0.00000000000E+00 0.  1.
         14    1    4    4    0    0 -0.50276576781E+02  0.90192147857E+00  0.11979716328E+02  0.51691984277E+02  0.00000000000E+00 0. -1.
        -13    1    3    3    0    0  0.41879417474E+01  0.23227911926E+02 -0.27567349354E+02  0.36290956158E+02  0.00000000000E+00 0.  1.
         13    1    3    3    0    0  0.12583697875E+03  0.73569040426E+02 -0.64277404935E+03  0.65909470294E+03  0.00000000000E+00 0. -1.
          1    1    1    2  501    0 -0.28786085285E+02  0.68499337604E+01 -0.63268585474E+01  0.30258708459E+02  0.00000000000E+00 0. -1.
<scales pt_clust_5="13000.00000" pt_clust_6="13000.00000" pt_clust_7="13000.00000" pt_clust_8="13000.00000" pt_clust_9="29.58987"></scales>
<clustering>
<clus scale="   29.590">  1  9  2 -1</clus>
<clus scale="   85.308">  5  6 -1 -1</clus>
<clus scale="   89.036">  7  8 -1 -1</clus>
<clus scale="  181.079">  1  5  2 -1</clus>
<clus scale="   29.590">  1  5  2 -1</clus>
</clustering>
</event>
<event>
 9    2  0.5615294E-005  0.1232248E+03  0.7546771E-02  0.1248679E+00
         -3   -1    0    0    0  501 -0.00000000000E+00  0.00000000000E+00  0.10478961442E+03  0.10478961442E+03  0.00000000000E+00 0.  1.
         21   -1    0    0  501  502  0.00000000000E+00 -0.00000000000E+00 -0.24090697252E+03  0.24090697252E+03  0.00000000000E+00 0.  1.
         23    2    1    2    0    0 -0.11511203381E+02 -0.51272812935E+02  0.22613549405E+02  0.12489814727E+03  0.11102596735E+03 0.  0.
         24    2    1    2    0    0  0.51413290969E+02  0.42134487243E+02 -0.13943857597E+03  0.17554493542E+03  0.83392244123E+02 0.  0.
        -13    1    4    4    0    0  0.48838049731E+02  0.59700313194E+00 -0.12010493821E+03  0.12965611322E+03  0.00000000000E+00 0.  1.
         14    1    4    4    0    0  0.25752412375E+01  0.41537484111E+02 -0.19333637766E+02  0.45888822201E+02  0.00000000000E+00 0. -1.
        -13    1    3    3    0    0  0.20877882698E+02  0.21307649431E+02  0.33295079183E+02  0.44704185576E+02  0.00000000000E+00 0. -1.
         13    1    3    3    0    0 -0.32389086079E+02 -0.72580462366E+02 -0.10681529778E+02  0.80193961698E+02  0.00000000000E+00 0.  1.
         -4    1    1    2    0  502 -0.39902087587E+02  0.91383256925E+01 -0.19292331527E+02  0.45253504241E+02  0.00000000000E+00 0.  1.
<scales pt_clust_5="13000.00000" pt_clust_6="13000.00000" pt_clust_7="13000.00000" pt_clust_8="13000.00000" pt_clust_9="40.93514"></scales>
<clustering>
<clus scale="   40.935">  2  9  1 -1</clus>
<clus scale="   83.392">  5  6 -1 -1</clus>
<clus scale="   99.055">  2  5  1 -1</clus>
<clus scale="  111.026">  7  8 -1 -1</clus>
<clus scale="   40.935">  2  5  1 -1</clus>
</clustering>
</event>
<event>
 9    2  0.5615294E-005  0.2198047E+03  0.7546771E-02  0.1161295E+00
         21   -1    0    0  501  502  0.00000000000E+00  0.00000000000E+00  0.66516664410E+02  0.66516664410E+02  0.00000000000E+00 0. -1.
          2   -1    0    0  502    0 -0.00000000000E+00 -0.00000000000E+00 -0.13248551748E+04  0.13248551748E+04  0.00000000000E+00 0. -1.
         24    2    1    2    0    0 -0.28712912102E+02 -0.76607141494E+02 -0.51095343348E+03  0.52370876668E+03  0.80649709652E+02 0.  0.
         23    2    1    2    0    0  0.46132074585E+02 -0.16622927995E+03 -0.29240232538E+03  0.35163762839E+03  0.91594541320E+02 0.  0.
        -11    1    3    3    0    0 -0.51370132595E+02 -0.22348760600E+02 -0.25777327580E+03  0.26379048379E+03  0.00000000000E+00 0.  1.
         12    1    3    3    0    0  0.22657220493E+02 -0.54258380894E+02 -0.25318015768E+03  0.25991828289E+03  0.00000000000E+00 0. -1.
        -11    1    4    4    0    0 -0.23176531534E+02 -0.37221771401E+02 -0.37659699768E+02  0.57800215110E+02  0.00000000000E+00 0.  1.
         11    1    4    4    0    0  0.69308606119E+02 -0.12900750855E+03 -0.25474262561E+03  0.29383741328E+03  0.00000000000E+00 0. -1.
          1    1    1    2  501    0 -0.17419162482E+02  0.24283642144E+03 -0.45498275156E+03  0.51602544416E+03  0.00000000000E+00 0. -1.
<scales pt_clust_5="13000.00000" pt_clust_6="13000.00000" pt_clust_7="13000.00000" pt_clust_8="13000.00000" pt_clust_9="199.81133"></scales>
<clustering>
<clus scale="   80.650">  5  6 -1 -1</clus>
<clus scale="   91.595">  7  8 -1 -1</clus>
<clus scale="  114.880">  2  5  1 -1</clus>
<clus scale="  199.811">  1  9  2 -1</clus>
<clus scale="  199.811">  1  5  2 -1</clus>
</clustering>
</event>
<event>
 9    2  0.5615294E-005  0.9709842E+02  0.7546771E-02  0.1293030E+00
         21   -1    0    0  501  502  0.00000000000E+00  0.00000000000E+00  0.21940201807E+03  0.21940201807E+03  0.00000000000E+00 0.  1.
          4   -1    0    0  502    0 -0.00000000000E+00 -0.00000000000E+00 -0.28628321129E+03  0.28628321129E+03  0.00000000000E+00 0. -1.
         24    2    1    2    0    0  0.32380518078E+02  0.61333413769E+01 -0.25669539144E+03  0.27064249791E+03  0.79175260417E+02 0.  0.
         23    2    1    2    0    0 -0.49762076074E+02  0.12614598390E+02  0.17889920484E+03  0.20724451416E+03  0.91159041505E+02 0.  0.
        -13    1    3    3    0    0 -0.19514354643E+02  0.20063997787E+02 -0.13078395718E+03  0.13374534571E+03  0.00000000000E+00 0.  1.
         14    1    3    3    0    0  0.51894872721E+02 -0.13930656410E+02 -0.12591143426E+03  0.13689715220E+03  0.00000000000E+00 0. -1.
        -11    1    4    4    0    0 -0.27820856652E+02  0.51866164589E+02  0.11387701724E+03  0.12818765210E+03  0.00000000000E+00 0.  1.
         11    1    4    4    0    0 -0.21941219422E+02 -0.39251566199E+02  0.65022187596E+02  0.79056862059E+02  0.00000000000E+00 0. -1.
          3    1    1    2  501    0  0.17381557996E+02 -0.18747939767E+02  0.10914993385E+02  0.27798217289E+02  0.00000000000E+00 0. -1.
<scales pt_clust_5="13000.00000" pt_clust_6="13000.00000" pt_clust_7="13000.00000" pt_clust_8="13000.00000" pt_clust_9="25.56568"></scales>
<clustering>
<clus scale="   25.566">  1  9  2 -1</clus>
<clus scale="   79.175">  5  6 -1 -1</clus>
<clus scale="   85.947">  2  5  1 -1</clus>
<clus scale="   91.159">  7  8 -1 -1</clus>
<clus scale="   25.566">  1  5  2 -1</clus>
</clustering>
</event>
<event>
 9    2  0.5615294E-005  0.2818550E+03  0.7546771E-02  0.1094680E+00
         21   -1    0    0  501  502  0.00000000000E+00  0.00000000000E+00  0.18861346517E+03  0.18861346517E+03  0.00000000000E+00 0. -1.
          2   -1    0    0  502    0 -0.00000000000E+00 -0.00000000000E+00 -0.34084904108E+03  0.34084904108E+03  0.00000000000E+00 0. -1.
         24    2    1    2    0    0 -0.14116773649E+02 -0.59390901076E+02 -0.58284294715E+02  0.11638380534E+03  0.80134691031E+02 0.  0.
         23    2    1    2    0    0 -0.19704384298E+02 -0.15433374375E+03 -0.76361139838E+02  0.19598077921E+03  0.91489206584E+02 0.  0.
        -11    1    3    3    0    0 -0.25055540856E+02 -0.28041416922E+02 -0.71389427756E+02  0.80687989106E+02  0.00000000000E+00 0.  1.
         12    1    3    3    0    0  0.10938767207E+02 -0.31349484154E+02  0.13105133041E+02  0.35695816236E+02  0.00000000000E+00 0. -1.
        -13    1    4    4    0    0  0.17145282040E+02 -0.17990769245E+02 -0.44847025342E+02  0.51272645303E+02  0.00000000000E+00 0.  1.
         13    1    4    4    0    0 -0.36849666338E+02 -0.13634297451E+03 -0.31514114496E+02  0.14470813391E+03  0.00000000000E+00 0. -1.
          1    1    1    2  501    0  0.33821157946E+02  0.21372464483E+03 -0.17590141362E+02  0.21709792169E+03  0.00000000000E+00 0. -1.
<scales pt_clust_5="13000.00000" pt_clust_6="13000.00000" pt_clust_7="13000.00000" pt_clust_8="13000.00000" pt_clust_9="216.38414"></scales>
<clustering>
<clus scale="   80.135">  5  6 -1 -1</clus>
<clus scale="   91.489">  7  8 -1 -1</clus>
<clus scale="   93.295">  5  7 -1 -1</clus>
<clus scale="  216.384">  1  9  2 -1</clus>
<clus scale="  216.384">  1  5  2 -1</clus>
</clustering>
</event>
<event>
 9    2  0.5615294E-005  0.1028969E+03  0.7546771E-02  0.1281325E+00
         21   -1    0    0  501  502  0.00000000000E+00  0.00000000000E+00  0.32145606678E+02  0.32145606678E+02  0.00000000000E+00 0. -1.
          4   -1    0    0  502    0 -0.00000000000E+00 -0.00000000000E+00 -0.95113295236E+03  0.95113295236E+03  0.00000000000E+00 0. -1.
         24    2    1    2    0    0  0.30339320960E+02 -0.20601353341E+02 -0.47679577058E+03  0.48447059508E+03  0.77670203437E+02 0.  0.
         23    2    1    2    0    0 -0.57207128964E+02  0.22687177837E+02 -0.45545689097E+03  0.46877134671E+03  0.92294270260E+02 0.  0.
        -11    1    3    3    0    0  0.57039216040E+01 -0.29683649327E+02 -0.63347499476E+02  0.70189453972E+02  0.00000000000E+00 0.  1.
         12    1    3    3    0    0  0.24635399356E+02  0.90822959864E+01 -0.41344827110E+03  0.41428114111E+03  0.00000000000E+00 0. -1.
        -13    1    4    4    0    0  0.16607153579E+02  0.31781116331E+02 -0.12451420165E+03  0.12957477887E+03  0.00000000000E+00 0. -1.
         13    1    4    4    0    0 -0.73814282543E+02 -0.90939384932E+01 -0.33094268932E+03  0.33919656784E+03  0.00000000000E+00 0.  1.
          3    1    1    2  501    0  0.26867808004E+02 -0.20858244968E+01  0.13265315863E+02  0.30036617248E+02  0.00000000000E+00 0. -1.
<scales pt_clust_5="13000.00000" pt_clust_6="13000.00000" pt_clust_7="13000.00000" pt_clust_8="13000.00000" pt_clust_9="26.94865"></scales>
<clustering>
<clus scale="   26.949">  1  9  2 -1</clus>
<clus scale="   77.670">  5  6 -1 -1</clus>
<clus scale="   90.012">  2  5  1 -1</clus>
<clus scale="   92.294">  7  8 -1 -1</clus>
<clus scale="   26.949">  1  5  2 -1</clus>
</clustering>
</event>
<event>
 9    2  0.5615294E-005  0.9471614E+02  0.7546771E-02  0.1299030E+00
          2   -1    0    0  502    0 -0.00000000000E+00  0.00000000000E+00  0.78619029877E+03  0.78619029877E+03  0.00000000000E+00 0. -1.
         21   -1    0    0  501  502  0.00000000000E+00 -0.00000000000E+00 -0.21732476171E+02  0.21732476171E+02  0.00000000000E+00 0. -1.
         24    2    1    2    0    0  0.99217165836E+01 -0.95018735177E+01  0.37535120129E+03  0.38405323422E+03  0.80122633160E+02 0.  0.
         23    2    1    2    0    0 -0.31030159438E+02  0.96150145345E+01  0.39062632950E+03  0.40270616023E+03  0.92347186730E+02 0.  0.
        -13    1    3    3    0    0 -0.25132128379E+02  0.15787793313E+02  0.75866532292E+02  0.81465385389E+02  0.00000000000E+00 0.  1.
         14    1    3    3    0    0  0.35053844963E+02 -0.25289666831E+02  0.29948466900E+03  0.30258784883E+03  0.00000000000E+00 0. -1.
        -13    1    4    4    0    0 -0.18250939112E+02  0.50253289829E+02  0.17807955603E+03  0.18593229464E+03  0.00000000000E+00 0.  1.
         13    1    4    4    0    0 -0.12779220326E+02 -0.40638275295E+02  0.21254677347E+03  0.21677386559E+03  0.00000000000E+00 0. -1.
          1    1    1    2  501    0  0.21108442854E+02 -0.11314101685E+00 -0.15197081859E+01  0.21163380486E+02  0.00000000000E+00 0. -1.
<scales pt_clust_5="13000.00000" pt_clust_6="13000.00000" pt_clust_7="13000.00000" pt_clust_8="13000.00000" pt_clust_9="21.10875"></scales>
<clustering>
<clus scale="   21.109">  2  9  1 -1</clus>
<clus scale="   80.123">  5  6 -1 -1</clus>
<clus scale="   82.842">  1  5  2 -1</clus>
<clus scale="   92.347">  7  8 -1 -1</clus>
<clus scale="   21.109">  2  5  1 -1</clus>
</clustering>
</event>
<event>
 9    2  0.5615294E-005  0.9178081E+02  0.7546771E-02  0.1304428E+00
         21   -1    0    0  501  502  0.00000000000E+00  0.00000000000E+00  0.18145201110E+03  0.18145201110E+03  0.00000000000E+00 0. -1.
          2   -1    0    0  502    0 -0.00000000000E+00 -0.00000000000E+00 -0.72082048612E+03  0.72082048612E+03  0.00000000000E+00 0. -1.
         24    2    1    2    0    0  0.84072777376E+01  0.17560688957E+02 -0.56805721983E+03  0.57411228869E+03  0.80850818822E+02 0.  0.
         23    2    1    2    0    0 -0.14023838545E+02  0.76657985888E+01 -0.13456701151E+03  0.16287148116E+03  0.90351570386E+02 0.  0.
        -11    1    3    3    0    0 -0.33694530828E+02  0.13999412552E+02 -0.17324159797E+03  0.17704224419E+03  0.00000000000E+00 0.  1.
         12    1    3    3    0    0  0.42101808566E+02  0.35612764047E+01 -0.39481562186E+03  0.39707004450E+03  0.00000000000E+00 0. -1.
        -13    1    4    4    0    0 -0.38293780135E+02  0.37217547908E+02 -0.82383969935E+02  0.98176769002E+02  0.00000000000E+00 0.  1.
         13    1    4    4    0    0  0.24269941589E+02 -0.29551749319E+02 -0.52183041577E+02  0.64694712155E+02  0.00000000000E+00 0. -1.
          1    1    1    2  501    0  0.56165608078E+01 -0.25226487546E+02  0.16325575631E+03  0.16528872738E+03  0.00000000000E+00 0. -1.
<scales pt_clust_5="13000.00000" pt_clust_6="13000.00000" pt_clust_7="13000.00000" pt_clust_8="13000.00000" pt_clust_9="25.84418"></scales>
<clustering>
<clus scale="   25.844">  1  9  2 -1</clus>
<clus scale="   80.851">  5  6 -1 -1</clus>
<clus scale="   82.445">  2  5  1 -1</clus>
<clus scale="   90.352">  7  8 -1 -1</clus>
<clus scale="   25.844">  1  5  2 -1</clus>
</clustering>
</event>
<event>
 9    2  0.5615294E-005  0.2115322E+03  0.7546771E-02  0.1174415E+00
          2   -1    0    0  502    0 -0.00000000000E+00  0.00000000000E+00  0.16934420933E+04  0.16934420933E+04  0.00000000000E+00 0. -1.
         21   -1    0    0  501  502  0.00000000000E+00 -0.00000000000E+00 -0.38691443723E+02  0.38691443723E+02  0.00000000000E+00 0.  1.
         24    2    1    2    0    0  0.22251647900E+02 -0.34108414597E+02  0.33671222835E+03  0.34995751635E+03  0.86235832165E+02 0.  0.
         23    2    1    2    0    0 -0.43337474257E+02 -0.16413380187E+03  0.87372958329E+03  0.89519046448E+03  0.95627095530E+02 0.  0.
        -11    1    3    3    0    0  0.60376173388E+00  0.28625769807E+02  0.87824960394E+02  0.92374362750E+02  0.00000000000E+00 0.  1.
         12    1    3    3    0    0  0.21647886166E+02 -0.62734184404E+02  0.24888726796E+03  0.25758315360E+03  0.00000000000E+00 0. -1.
        -13    1    4    4    0    0 -0.68126892517E+02 -0.85433351858E+02  0.41769639709E+03  0.43175272001E+03  0.00000000000E+00 0. -1.
         13    1    4    4    0    0  0.24789418260E+02 -0.78700450016E+02  0.45603318620E+03  0.46343774448E+03  0.00000000000E+00 0.  1.
          1    1    1    2  501    0  0.21085826358E+02  0.19824221647E+03  0.44430883794E+03  0.48698555619E+03  0.00000000000E+00 0. -1.
<scales pt_clust_5="13000.00000" pt_clust_6="13000.00000" pt_clust_7="13000.00000" pt_clust_8="13000.00000" pt_clust_9="188.68315"></scales>
<clustering>
<clus scale="   86.236">  5  6 -1 -1</clus>
<clus scale="   95.368">  1  5  2 -1</clus>
<clus scale="   95.627">  7  8 -1 -1</clus>
<clus scale="  188.683">  2  9  1 -1</clus>
<clus scale="  188.683">  2  5  1 -1</clus>
</clustering>
</event>
<event>
 9    2  0.5615294E-005  0.1174124E+03  0.7546771E-02  0.1251115E+00
          2   -1    0    0  502    0 -0.00000000000E+00  0.00000000000E+00  0.68308028051E+03  0.68308028051E+03  0.00000000000E+00 0. -1.
         21   -1    0    0  501  502  0.00000000000E+00 -0.00000000000E+00 -0.29691342020E+02  0.29691342020E+02  0.00000000000E+00 0. -1.
         24    2    1    2    0    0 -0.35160433840E+02  0.60573319795E+02  0.25225047987E+03  0.27362796875E+03  0.79602622485E+02 0.  0.
         23    2    1    2    0    0 -0.27848627151E+01 -0.88426685653E+02  0.24163670019E+03  0.27284131928E+03  0.90703122496E+02 0.  0.
        -11    1    3    3    0    0 -0.29578478034E+02 -0.10415436247E+02  0.11240171909E+03  0.11669410495E+03  0.00000000000E+00 0.  1.
         12    1    3    3    0    0 -0.55819558059E+01  0.70988756043E+02  0.13984876078E+03  0.15693386380E+03  0.00000000000E+00 0. -1.
        -11    1    4    4    0    0  0.43418339720E+02 -0.39899858215E+02  0.12782208825E+03  0.14076802604E+03  0.00000000000E+00 0.  1.
         11    1    4    4    0    0 -0.46203202435E+02 -0.48526827437E+02  0.11381461194E+03  0.13207329324E+03  0.00000000000E+00 0. -1.
          1    1    1    2  501    0  0.37945296555E+02  0.27853365858E+02  0.15950175842E+03  0.16630233450E+03  0.00000000000E+00 0. -1.
<scales pt_clust_5="13000.00000" pt_clust_6="13000.00000" pt_clust_7="13000.00000" pt_clust_8="13000.00000" pt_clust_9="47.07077"></scales>
<clustering>
<clus scale="   47.071">  2  9  1 -1</clus>
<clus scale="   79.603">  5  6 -1 -1</clus>
<clus scale="   90.703">  7  8 -1 -1</clus>
<clus scale="  109.065">  1  5  2 -1</clus>
<clus scale="   47.071">  2  5  1 -1</clus>
</clustering>
</event>
<event>
 9    2  0.5615294E-005  0.2096854E+03  0.7546771E-02  0.1160972E+00
         -1   -1    0    0    0  501 -0.00000000000E+00  0.00000000000E+00  0.10658010052E+03  0.10658010052E+03  0.00000000000E+00 0.  1.
         21   -1    0    0  501  502  0.00000000000E+00 -0.00000000000E+00 -0.94750675690E+03  0.94750675690E+03  0.00000000000E+00 0. -1.
         23    2    1    2    0    0 -0.96142667467E+02  0.15937129217E+02 -0.25155536088E+03  0.28470326631E+03  0.90985964123E+02 0.  0.
         24    2    1    2    0    0  0.16891096296E+03  0.12279342587E+03 -0.56887034221E+03  0.61139093042E+03  0.81094171879E+02 0.  0.
        -13    1    4    4    0    0  0.53417207422E+01  0.33300016771E+02 -0.13510418981E+03  0.13925001688E+03  0.00000000000E+00 0.  1.
         14    1    4    4    0    0  0.16356924222E+03  0.89493409099E+02 -0.43376615241E+03  0.47214091355E+03  0.00000000000E+00 0. -1.
        -13    1    3    3    0    0 -0.72605353137E+02 -0.38291369859E+01 -0.24174146303E+03  0.25243837771E+03  0.00000000000E+00 0. -1.
         13    1    3    3    0    0 -0.23537314330E+02  0.19766266202E+02 -0.98138978487E+01  0.32264888601E+02  0.00000000000E+00 0.  1.
         -2    1    1    2    0  502 -0.72768295493E+02 -0.13873055509E+03 -0.20500953290E+02  0.15799266068E+03  0.00000000000E+00 0.  1.
<scales pt_clust_5="13000.00000" pt_clust_6="13000.00000" pt_clust_7="13000.00000" pt_clust_8="13000.00000" pt_clust_9="193.36940"></scales>
<clustering>
<clus scale="   81.094">  5  6 -1 -1</clus>
<clus scale="   90.986">  7  8 -1 -1</clus>
<clus scale="  133.326">  1  7  2 -1</clus>
<clus scale="  193.369">  2  9  1 -1</clus>
<clus scale="  193.369">  2  5  1 -1</clus>
</clustering>
</event>
<event>
 9    2  0.5615294E-005  0.1150173E+03  0.7546771E-02  0.1259811E+00
         21   -1    0    0  501  502  0.00000000000E+00  0.00000000000E+00  0.36332496189E+02  0.36332496189E+02  0.00000000000E+00 0.  1.
          2   -1    0    0  502    0 -0.00000000000E+00 -0.00000000000E+00 -0.71942850312E+03  0.71942850312E+03  0.00000000000E+00 0. -1.
         23    2    1    2    0    0 -0.69094164756E+02  0.35854709209E+02 -0.49580428858E+03  0.51137297165E+03  0.98085981574E+02 0.  0.
         24    2    1    2    0    0  0.39403915518E+02 -0.39634000181E+01 -0.18062067875E+03  0.20030776824E+03  0.77012955578E+02 0.  0.
        -11    1    4    4    0    0  0.54477013218E+02 -0.16634745853E+02 -0.82643534267E+02  0.10037137787E+03  0.00000000000E+00 0.  1.
         12    1    4    4    0    0 -0.15073097700E+02  0.12671345835E+02 -0.97977144481E+02  0.99936390370E+02  0.00000000000E+00 0. -1.
        -11    1    3    3    0    0 -0.88656565331E+02  0.48854958226E+02 -0.38316088351E+03  0.39630677028E+03  0.00000000000E+00 0. -1.
         11    1    3    3    0    0  0.19562400575E+02 -0.13000249018E+02 -0.11264340507E+03  0.11506620136E+03  0.00000000000E+00 0.  1.
          1    1    1    2  501    0  0.29690249238E+02 -0.31891309191E+02 -0.66710396042E+01  0.44080259427E+02  0.00000000000E+00 0. -1.
<scales pt_clust_5="13000.00000" pt_clust_6="13000.00000" pt_clust_7="13000.00000" pt_clust_8="13000.00000" pt_clust_9="43.57254"></scales>
<clustering>
<clus scale="   43.573">  1  9  2 -1</clus>
<clus scale="   77.013">  5  6 -1 -1</clus>
<clus scale="   97.668">  1  5  2 -1</clus>
<clus scale="   98.086">  7  8 -1 -1</clus>
<clus scale="   43.573">  1  5  2 -1</clus>
</clustering>
</event>
<event>
 9    2  0.5615294E-005  0.9917732E+02  0.7546771E-02  0.1288650E+00
          2   -1    0    0  502    0 -0.00000000000E+00  0.00000000000E+00  0.16325410396E+03  0.16325410396E+03  0.00000000000E+00 0. -1.
         21   -1    0    0  501  502  0.00000000000E+00 -0.00000000000E+00 -0.13991877826E+03  0.13991877826E+03  0.00000000000E+00 0.  1.
         24    2    1    2    0    0  0.43042708729E+02  0.46443510313E+01  0.10087504201E+03  0.13565691346E+03  0.79704324207E+02 0.  0.
         23    2    1    2    0    0 -0.53678489013E+01 -0.27450016995E+02 -0.26395586801E+02  0.10002363257E+03  0.92334624247E+02 0.  0.
        -11    1    3    3    0    0  0.25391246404E+02  0.22504083269E+02  0.23806636880E+01  0.34012008428E+02  0.00000000000E+00 0.  1.
         12    1    3    3    0    0  0.17651462325E+02 -0.17859732238E+02  0.98494378318E+02  0.10164490503E+03  0.00000000000E+00 0. -1.
        -13    1    4    4    0    0 -0.47207582551E+02 -0.16774257998E+02 -0.26850778308E+02  0.56840970060E+02  0.00000000000E+00 0.  1.
         13    1    4    4    0    0  0.41839733649E+02 -0.10675758997E+02  0.45519150720E+00  0.43182662508E+02  0.00000000000E+00 0. -1.
          1    1    1    2  501    0 -0.37674859828E+02  0.22805665964E+02 -0.51144129504E+02  0.67492336201E+02  0.00000000000E+00 0. -1.
<scales pt_clust_5="13000.00000" pt_clust_6="13000.00000" pt_clust_7="13000.00000" pt_clust_8="13000.00000" pt_clust_9="44.03968"></scales>
<clustering>
<clus scale="   44.040">  2  9  1 -1</clus>
<clus scale="   79.704">  5  6 -1 -1</clus>
<clus scale="   87.540">  1  5  2 -1</clus>
<clus scale="   92.335">  7  8 -1 -1</clus>
<clus scale="   44.040">  2  5  1 -1</clus>
</clustering>
</event>
<event>
 9    2  0.5615294E-005  0.1022227E+03  0.7546771E-02  0.1281025E+00
         21   -1    0    0  501  502  0.00000000000E+00  0.00000000000E+00  0.28097612822E+03  0.28097612822E+03  0.00000000000E+00 0.  1.
          4   -1    0    0  502    0 -0.00000000000E+00 -0.00000000000E+00 -0.24649944185E+03  0.24649944185E+03  0.00000000000E+00 0. -1.
         24    2    1    2    0    0 -0.43319281722E+02  0.14370273004E+02 -0.20500520629E+03  0.22511549590E+03  0.81035714191E+02 0.  0.
         23    2    1    2    0    0  0.37676351546E+02  0.11243384963E+02  0.51673329332E+02  0.11272896229E+03  0.92150772124E+02 0.  0.
        -11    1    3    3    0    0 -0.43493102378E+01 -0.29254264178E+02 -0.37942269478E+02  0.48107632297E+02  0.00000000000E+00 0.  1.
         12    1    3    3    0    0 -0.38969971484E+02  0.43624537182E+02 -0.16706293681E+03  0.17700786360E+03  0.00000000000E+00 0. -1.
        -13    1    4    4    0    0 -0.13213619789E+02  0.16105444773E+02 -0.17158960159E+02  0.26989164733E+02  0.00000000000E+00 0. -1.
         13    1    4    4    0    0  0.50889971335E+02 -0.48620598102E+01  0.68832289491E+02  0.85739797554E+02  0.00000000000E+00 0.  1.
          3    1    1    2  501    0  0.56429301757E+01 -0.25613657967E+02  0.18780856333E+03  0.18963111189E+03  0.00000000000E+00 0. -1.
<scales pt_clust_5="13000.00000" pt_clust_6="13000.00000" pt_clust_7="13000.00000" pt_clust_8="13000.00000" pt_clust_9="26.22789"></scales>
<clustering>
<clus scale="   26.228">  1  9  2 -1</clus>
<clus scale="   81.036">  5  6 -1 -1</clus>
<clus scale="   92.151">  7  8 -1 -1</clus>
<clus scale="   92.328">  2  5  1 -1</clus>
<clus scale="   26.228">  1  5  2 -1</clus>
</clustering>
</event>
<event>
 9    2  0.5615294E-005  0.9409712E+02  0.7546771E-02  0.1301463E+00
          2   -1    0    0  502    0 -0.00000000000E+00  0.00000000000E+00  0.51152577174E+03  0.51152577174E+03  0.00000000000E+00 0. -1.
         21   -1    0    0  501  502  0.00000000000E+00 -0.00000000000E+00 -0.82724899039E+02  0.82724899039E+02  0.00000000000E+00 0. -1.
         24    2    1    2    0    0 -0.68491420775E+00 -0.32381032486E+02  0.44506876551E+03  0.45256172027E+03  0.75345233775E+02 0.  0.
         23    2    1    2    0    0  0.41538482811E+01 -0.22892382332E+01  0.19563907493E+02  0.91709163711E+02  0.89472505078E+02 0.  0.
        -11    1    3    3    0    0 -0.21049816147E+02  0.10253008754E+02  0.56916263652E+02  0.61544130642E+02  0.00000000000E+00 0.  1.
         12    1    3    3    0    0  0.20364901939E+02 -0.42634041239E+02  0.38815250186E+03  0.39101758963E+03  0.00000000000E+00 0. -1.
        -11    1    4    4    0    0 -0.29538278073E+01 -0.45606135313E+02  0.10092995917E+02  0.46802919177E+02  0.00000000000E+00 0. -1.
         11    1    4    4    0    0  0.71076760885E+01  0.43316897080E+02  0.94709115763E+01  0.44906244533E+02  0.00000000000E+00 0.  1.
          1    1    1    2  501    0 -0.34689340734E+01  0.34670270719E+02 -0.35831800301E+02  0.49979786795E+02  0.00000000000E+00 0. -1.
<scales pt_clust_5="13000.00000" pt_clust_6="13000.00000" pt_clust_7="13000.00000" pt_clust_8="13000.00000" pt_clust_9="34.84338"></scales>
<clustering>
<clus scale="   34.843">  2  9  1 -1</clus>
<clus scale="   75.345">  5  6 -1 -1</clus>
<clus scale="   80.783">  1  5  2 -1</clus>
<clus scale="   89.473">  7  8 -1 -1</clus>
<clus scale="   34.843">  2  5  1 -1</clus>
</clustering>
</event>
<event>
 9    2  0.5615294E-005  0.1094215E+03  0.7546771E-02  0.1265542E+00
         21   -1    0    0  501  502  0.00000000000E+00  0.00000000000E+00  0.99639240367E+02  0.99639240367E+02  0.00000000000E+00 0. -1.
          2   -1    0    0  502    0 -0.00000000000E+00 -0.00000000000E+00 -0.30807263303E+03  0.30807263303E+03  0.00000000000E+00 0. -1.
         23    2    1    2    0    0  0.38742653582E+02  0.28806024790E+02 -0.82736581817E+02  0.13190244142E+03  0.90675971524E+02 0.  0.
         24    2    1    2    0    0 -0.79033034012E+02 -0.58808918761E+02  0.13207880518E+02  0.12810025256E+03  0.80811615538E+02 0.  0.
        -13    1    4    4    0    0 -0.15729427168E+02  0.19011635244E+02  0.12768334782E+02  0.27782863905E+02  0.00000000000E+00 0.  1.
         14    1    4    4    0    0 -0.63303606844E+02 -0.77820554005E+02  0.43954573618E+00  0.10031738865E+03  0.00000000000E+00 0. -1.
        -11    1    3    3    0    0  0.67449335983E+02  0.30079793650E+02 -0.62602894909E+02  0.96815956131E+02  0.00000000000E+00 0. -1.
         11    1    3    3    0    0 -0.28706682401E+02 -0.12737688607E+01 -0.20133686908E+02  0.35086485292E+02  0.00000000000E+00 0.  1.
          1    1    1    2  501    0  0.40290380430E+02  0.30002893971E+02 -0.13890469137E+03  0.14770917942E+03  0.00000000000E+00 0. -1.
<scales pt_clust_5="13000.00000" pt_clust_6="13000.00000" pt_clust_7="13000.00000" pt_clust_8="13000.00000" pt_clust_9="50.23436"></scales>
<clustering>
<clus scale="   50.234">  1  9  2 -1</clus>
<clus scale="   80.812">  5  6 -1 -1</clus>
<clus scale="   90.676">  7  8 -1 -1</clus>
<clus scale="  101.397">  1  5  2 -1</clus>
<clus scale="   50.234">  1  5  2 -1</clus>
</clustering>
</event>
<event>
 9    2  0.5615294E-005  0.1133736E+03  0.7546771E-02  0.1266032E+00
          2   -1    0    0  502    0 -0.00000000000E+00  0.00000000000E+00  0.15577329864E+04  0.15577329864E+04  0.00000000000E+00 0. -1.
         21   -1    0    0  501  502  0.00000000000E+00 -0.00000000000E+00 -0.40461689031E+02  0.40461689031E+02  0.00000000000E+00 0. -1.
         24    2    1    2    0    0  0.27050130051E+02  0.11956526609E+02  0.13849347387E+04  0.13878823346E+04  0.85431120340E+02 0.  0.
         23    2    1    2    0    0 -0.30997919902E+02  0.10740792671E+02  0.14449202288E+03  0.18426414205E+03  0.10954037477E+03 0.  0.
        -13    1    3    3    0    0  0.17338281101E+02 -0.21486885978E+02  0.15402380875E+03  0.15647886734E+03  0.00000000000E+00 0.  1.
         14    1    3    3    0    0  0.97118489500E+01  0.33443412587E+02  0.12309109299E+04  0.12314034673E+04  0.00000000000E+00 0. -1.
        -11    1    4    4    0    0 -0.71437007386E+01 -0.30069941315E+02 -0.13663304116E+01  0.30937043972E+02  0.00000000000E+00 0.  1.
         11    1    4    4    0    0 -0.23854219163E+02  0.40810733986E+02  0.14585835329E+03  0.15332709808E+03  0.00000000000E+00 0. -1.
          1    1    1    2  501    0  0.39477898502E+01 -0.22697319280E+02 -0.12155464204E+02  0.26048198733E+02  0.00000000000E+00 0. -1.
<scales pt_clust_5="13000.00000" pt_clust_6="13000.00000" pt_clust_7="13000.00000" pt_clust_8="13000.00000" pt_clust_9="23.03808"></scales>
<clustering>
<clus scale="   23.038">  2  9  1 -1</clus>
<clus scale="   85.431">  5  6 -1 -1</clus>
<clus scale="   90.294">  1  5  2 -1</clus>
<clus scale="  109.540">  7  8 -1 -1</clus>
<clus scale="   23.038">  2  5  1 -1</clus>
</clustering>
</event>
<event>
 9    2  0.5615294E-005  0.1436444E+03  0.7546771E-02  0.1211200E+00
          2   -1    0    0  502    0 -0.00000000000E+00  0.00000000000E+00  0.12623550381E+04  0.12623550381E+04  0.00000000000E+00 0. -1.
         21   -1    0    0  501  502  0.00000000000E+00 -0.00000000000E+00 -0.28885621225E+02  0.28885621225E+02  0.00000000000E+00 0. -1.
         23    2    1    2    0    0 -0.98283230312E+02 -0.80691923867E+02  0.87486614392E+03  0.88875654543E+03  0.91250464805E+02 0.  0.
         24    2    1    2    0    0  0.44116052179E+02  0.54556570340E+02  0.13523079268E+03  0.17115662993E+03  0.78003713082E+02 0.  0.
        -13    1    4    4    0    0  0.42335968223E+02 -0.68640656149E+01  0.46876467407E+02  0.63536232173E+02  0.00000000000E+00 0.  1.
         14    1    4    4    0    0  0.17800839561E+01  0.61420635954E+02  0.88354325269E+02  0.10762039776E+03  0.00000000000E+00 0. -1.
        -13    1    3    3    0    0 -0.10113921484E+03 -0.29751557813E+02  0.57679114147E+03  0.58634658424E+03  0.00000000000E+00 0. -1.
         13    1    3    3    0    0  0.28559845262E+01 -0.50940366054E+02  0.29807500245E+03  0.30240996119E+03  0.00000000000E+00 0.  1.
          1    1    1    2  501    0  0.54167178133E+02  0.26135353527E+02  0.22337248024E+03  0.23132748393E+03  0.00000000000E+00 0. -1.
<scales pt_clust_5="13000.00000" pt_clust_6="13000.00000" pt_clust_7="13000.00000" pt_clust_8="13000.00000" pt_clust_9="60.14269"></scales>
<clustering>
<clus scale="   60.143">  2  9  1 -1</clus>
<clus scale="   78.004">  5  6 -1 -1</clus>
<clus scale="   91.250">  7  8 -1 -1</clus>
<clus scale="  135.616">  2  5  1 -1</clus>
<clus scale="   60.143">  2  5  1 -1</clus>
</clustering>
</event>
<event>
 9    2  0.5615294E-005  0.1068198E+03  0.7546771E-02  0.1272204E+00
         21   -1    0    0  501  502  0.00000000000E+00  0.00000000000E+00  0.48483097063E+02  0.48483097063E+02  0.00000000000E+00 0. -1.
          2   -1    0    0  502    0 -0.00000000000E+00 -0.00000000000E+00 -0.97594323879E+03  0.97594323879E+03  0.00000000000E+00 0. -1.
         24    2    1    2    0    0 -0.39627044748E+02  0.30186261838E+02 -0.61345389226E+03  0.62027197201E+03  0.77007326011E+02 0.  0.
         23    2    1    2    0    0  0.75056947517E+02 -0.30294502890E+02 -0.33948933908E+03  0.36051175184E+03  0.90357122527E+02 0.  0.
        -13    1    3    3    0    0 -0.27020885085E+02  0.26943232654E+02 -0.10613466644E+03  0.11278578562E+03  0.00000000000E+00 0.  1.
         14    1    3    3    0    0 -0.12606159663E+02  0.32430291840E+01 -0.50731922582E+03  0.50748618640E+03  0.00000000000E+00 0. -1.
        -11    1    4    4    0    0 -0.20526248426E+02 -0.12634712522E+02 -0.68669472330E+02  0.72776776963E+02  0.00000000000E+00 0. -1.
         11    1    4    4    0    0  0.95583195943E+02 -0.17659790368E+02 -0.27081986675E+03  0.28773497488E+03  0.00000000000E+00 0.  1.
          1    1    1    2  501    0 -0.35429902769E+02  0.10824105244E+00  0.25483089608E+02  0.43642612001E+02  0.00000000000E+00 0. -1.
<scales pt_clust_5="13000.00000" pt_clust_6="13000.00000" pt_clust_7="13000.00000" pt_clust_8="13000.00000" pt_clust_9="35.43007"></scales>
<clustering>
<clus scale="   35.430">  1  9  2 -1</clus>
<clus scale="   77.007">  5  6 -1 -1</clus>
<clus scale="   90.357">  7  8 -1 -1</clus>
<clus scale="   95.792">  2  5  1 -1</clus>
<clus scale="   35.430">  1  5  2 -1</clus>
</clustering>
</event>
<event>
 9    2  0.5615294E-005  0.1784734E+03  0.7546771E-02  0.1193420E+00
          2   -1    0    0  502    0 -0.00000000000E+00  0.00000000000E+00  0.35802717622E+03  0.35802717622E+03  0.00000000000E+00 0. -1.
         21   -1    0    0  501  502  0.00000000000E+00 -0.00000000000E+00 -0.50273409382E+03  0.50273409382E+03  0.00000000000E+00 0.  1.
         24    2    1    2    0    0  0.50321673555E+02  0.40462484300E+02  0.27718205633E+03  0.29600705051E+03  0.81368287025E+02 0.  0.
         23    2    1    2    0    0 -0.11261074178E+03 -0.16329050520E+03 -0.16866842183E+03  0.27650554435E+03  0.93066166149E+02 0.  0.
        -11    1    3    3    0    0  0.39849101772E+02 -0.11087509304E+02  0.62305523464E+02  0.74785439951E+02  0.00000000000E+00 0.  1.
         12    1    3    3    0    0  0.10472571783E+02  0.51549993604E+02  0.21487653287E+03  0.22122161056E+03  0.00000000000E+00 0. -1.
        -11    1    4    4    0    0 -0.31587246853E+02 -0.12436080635E+03 -0.86715863476E+02  0.15486447397E+03  0.00000000000E+00 0.  1.
         11    1    4    4    0    0 -0.81023494924E+02 -0.38929698848E+02 -0.81952558355E+02  0.12164107038E+03  0.00000000000E+00 0. -1.
          1    1    1    2  501    0  0.62289068222E+02  0.12282802090E+03 -0.25322055210E+03  0.28824867518E+03  0.00000000000E+00 0. -1.
<scales pt_clust_5="13000.00000" pt_clust_6="13000.00000" pt_clust_7="13000.00000" pt_clust_8="13000.00000" pt_clust_9="152.28732"></scales>
<clustering>
<clus scale="   81.368">  5  6 -1 -1</clus>
<clus scale="   93.066">  7  8 -1 -1</clus>
<clus scale="  103.876">  1  5  2 -1</clus>
<clus scale="  152.287">  2  9  1 -1</clus>
<clus scale="  152.287">  2  5  1 -1</clus>
</clustering>
</event>
<event>
 9    2  0.5615294E-005  0.1283222E+03  0.7546771E-02  0.1230931E+00
         21   -1    0    0  501  502  0.00000000000E+00  0.00000000000E+00  0.73685596432E+02  0.73685596432E+02  0.00000000000E+00 0.  1.
          2   -1    0    0  502    0 -0.00000000000E+00 -0.00000000000E+00 -0.48278936439E+03  0.48278936439E+03  0.00000000000E+00 0. -1.
         24    2    1    2    0    0  0.11667860743E+02  0.85519757704E+02 -0.36523090095E+03  0.38714356621E+03  0.95061884679E+02 0.  0.
         23    2    1    2    0    0  0.72479421496E+01 -0.62850751383E+02 -0.63211054263E+00  0.11697249406E+03  0.98384018972E+02 0.  0.
        -11    1    3    3    0    0  0.21317843295E+02  0.42909604471E+02 -0.51331178342E+02  0.70218049450E+02  0.00000000000E+00 0.  1.
         12    1    3    3    0    0 -0.96499825517E+01  0.42610153233E+02 -0.31389972260E+03  0.31692551676E+03  0.00000000000E+00 0. -1.
        -11    1    4    4    0    0 -0.36357780227E+02 -0.40235789962E+02  0.27036034285E+02  0.60595000840E+02  0.00000000000E+00 0.  1.
         11    1    4    4    0    0  0.43605722377E+02 -0.22614961421E+02 -0.27668144827E+02  0.56377493224E+02  0.00000000000E+00 0. -1.
          1    1    1    2  501    0 -0.18915802893E+02 -0.22669006321E+02 -0.43240756473E+02  0.52358900552E+02  0.00000000000E+00 0. -1.
<scales pt_clust_5="13000.00000" pt_clust_6="13000.00000" pt_clust_7="13000.00000" pt_clust_8="13000.00000" pt_clust_9="29.52444"></scales>
<clustering>
<clus scale="   29.524">  1  9  2 -1</clus>
<clus scale="   95.062">  5  6 -1 -1</clus>
<clus scale="   98.384">  7  8 -1 -1</clus>
<clus scale="  125.793">  2  5  1 -1</clus>
<clus scale="   29.524">  1  5  2 -1</clus>
</clustering>
</event>
<event>
 9    2  0.5615294E-005  0.1363504E+03  0.7546771E-02  0.1220233E+00
          2   -1    0    0  502    0 -0.00000000000E+00  0.00000000000E+00  0.45727140339E+03  0.45727140339E+03  0.00000000000E+00 0. -1.
         21   -1    0    0  501  502  0.00000000000E+00 -0.00000000000E+00 -0.72339925829E+02  0.72339925829E+02  0.00000000000E+00 0.  1.
         23    2    1    2    0    0 -0.67536372628E+01  0.10068324400E+03  0.21051834013E+03  0.25040464770E+03  0.90563727964E+02 0.  0.
         24    2    1    2    0    0  0.74547028543E+02 -0.91605425275E+02  0.86899358933E+02  0.16813457826E+03  0.82273473365E+02 0.  0.
        -11    1    4    4    0    0  0.86744563818E+02 -0.61463302287E+02  0.83992442125E+02  0.13548832870E+03  0.00000000000E+00 0.  1.
         12    1    4    4    0    0 -0.12197535275E+02 -0.30142122988E+02  0.29069168079E+01  0.32646249560E+02  0.00000000000E+00 0. -1.
        -11    1    3    3    0    0 -0.30127026623E+02  0.39947377190E+01  0.22918913516E+02  0.38064054689E+02  0.00000000000E+00 0.  1.
         11    1    3    3    0    0  0.23373389360E+02  0.96688506281E+02  0.18759942661E+03  0.21234059301E+03  0.00000000000E+00 0. -1.
          1    1    1    2  501    0 -0.67793391280E+02 -0.90778187252E+01  0.87513778507E+02  0.11107210326E+03  0.00000000000E+00 0. -1.
<scales pt_clust_5="13000.00000" pt_clust_6="13000.00000" pt_clust_7="13000.00000" pt_clust_8="13000.00000" pt_clust_9="68.39850"></scales>
<clustering>
<clus scale="   68.399">  2  9  1 -1</clus>
<clus scale="   82.273">  5  6 -1 -1</clus>
<clus scale="   90.564">  7  8 -1 -1</clus>
<clus scale="  130.991">  2  5  1 -1</clus>
<clus scale="   68.399">  2  5  1 -1</clus>
</clustering>
</event>
<event>
 9    2  0.5615294E-005  0.9689786E+02  0.7546771E-02  0.1293830E+00
          2   -1    0    0  502    0 -0.00000000000E+00  0.00000000000E+00  0.36853322388E+03  0.36853322388E+03  0.00000000000E+00 0. -1.
         21   -1    0    0  501  502  0.00000000000E+00 -0.00000000000E+00 -0.62142603964E+02  0.62142603964E+02  0.00000000000E+00 0. -1.
         24    2    1    2    0    0 -0.34749777477E+02 -0.25549326637E+02  0.25808544392E+03  0.27301415284E+03  0.77899397668E+02 0.  0.
         23    2    1    2    0    0 -0.29250948854E+01  0.15686950884E+02  0.67679766117E+02  0.11416412099E+03  0.90544238749E+02 0.  0.
        -13    1    3    3    0    0 -0.25788585436E+02 -0.31901632383E+01  0.17736770441E+02  0.31461425682E+02  0.00000000000E+00 0.  1.
         14    1    3    3    0    0 -0.89611920417E+01 -0.22359163398E+02  0.24034867348E+03  0.24155272715E+03  0.00000000000E+00 0. -1.
        -13    1    4    4    0    0 -0.43137602466E+02  0.25835883298E+02  0.33487419849E+02  0.60413184823E+02  0.00000000000E+00 0. -1.
         13    1    4    4    0    0  0.40212507581E+02 -0.10148932414E+02  0.34192346268E+02  0.53750936163E+02  0.00000000000E+00 0.  1.
          1    1    1    2  501    0  0.37674872363E+02  0.98623757526E+01 -0.19374590128E+02  0.43497554019E+02  0.00000000000E+00 0. -1.
<scales pt_clust_5="13000.00000" pt_clust_6="13000.00000" pt_clust_7="13000.00000" pt_clust_8="13000.00000" pt_clust_9="38.94435"></scales>
<clustering>
<clus scale="   38.944">  2  9  1 -1</clus>
<clus scale="   77.899">  5  6 -1 -1</clus>
<clus scale="   85.201">  1  5  2 -1</clus>
<clus scale="   90.544">  7  8 -1 -1</clus>
<clus scale="   38.944">  2  5  1 -1</clus>
</clustering>
</event>
<event>
 9    2  0.5615294E-005  0.9959556E+02  0.7546771E-02  0.1288016E+00
         21   -1    0    0  501  502  0.00000000000E+00  0.00000000000E+00  0.13877973315E+03  0.13877973315E+03  0.00000000000E+00 0.  1.
         -3   -1    0    0    0  501 -0.00000000000E+00 -0.00000000000E+00 -0.33788614721E+03  0.33788614721E+03  0.00000000000E+00 0.  1.
         24    2    1    2    0    0  0.32143953686E+02  0.35697709528E+02 -0.25832365286E+03  0.27361796755E+03  0.76342139816E+02 0.  0.
         23    2    1    2    0    0 -0.43435334794E+02  0.34681714758E+02 -0.66897526818E+01  0.10596809939E+03  0.89972416047E+02 0.  0.
        -13    1    3    3    0    0  0.39976627668E+02  0.50555962250E+02 -0.24107662004E+03  0.24954352888E+03  0.00000000000E+00 0.  1.
         14    1    3    3    0    0 -0.78326739816E+01 -0.14858252722E+02 -0.17247032823E+02  0.24074438662E+02  0.00000000000E+00 0. -1.
        -11    1    4    4    0    0  0.23314546002E+02  0.30678328366E+02 -0.66290956439E+01  0.39098245430E+02  0.00000000000E+00 0.  1.
         11    1    4    4    0    0 -0.66749880796E+02  0.40033863922E+01 -0.60657037870E-01  0.66869853956E+02  0.00000000000E+00 0. -1.
         -4    1    1    2    0  502  0.11291381107E+02 -0.70379424287E+02  0.65906991485E+02  0.97079813436E+02  0.00000000000E+00 0.  1.
<scales pt_clust_5="13000.00000" pt_clust_6="13000.00000" pt_clust_7="13000.00000" pt_clust_8="13000.00000" pt_clust_9="71.27944"></scales>
<clustering>
<clus scale="   71.279">  1  9  2 -1</clus>
<clus scale="   76.342">  5  6 -1 -1</clus>
<clus scale="   87.478">  2  5  1 -1</clus>
<clus scale="   89.972">  7  8 -1 -1</clus>
<clus scale="   71.279">  1  5  2 -1</clus>
</clustering>
</event>
<event>
 9    2  0.5615294E-005  0.2937110E+03  0.7546771E-02  0.1131806E+00
         -1   -1    0    0    0  501 -0.00000000000E+00  0.00000000000E+00  0.14895475226E+03  0.14895475226E+03  0.00000000000E+00 0.  1.
         21   -1    0    0  501  502  0.00000000000E+00 -0.00000000000E+00 -0.10908792014E+04  0.10908792014E+04  0.00000000000E+00 0.  1.
         24    2    1    2    0    0  0.41553673111E+02  0.37563364675E+02 -0.12379953030E+03  0.15743994799E+03  0.79519176349E+02 0.  0.
         23    2    1    2    0    0 -0.13856383362E+02  0.27113801071E+03 -0.68994886975E+03  0.74699457426E+03  0.90904515282E+02 0.  0.
        -13    1    3    3    0    0  0.26378329487E+02 -0.71915537698E+01 -0.10162448653E+03  0.10523816311E+03  0.00000000000E+00 0.  1.
         14    1    3    3    0    0  0.15175343625E+02  0.44754918445E+02 -0.22175043772E+02  0.52201784888E+02  0.00000000000E+00 0. -1.
        -13    1    4    4    0    0 -0.15971116618E+02  0.58853446728E+02 -0.76388557299E+02  0.97744649184E+02  0.00000000000E+00 0. -1.
         13    1    4    4    0    0  0.21147332564E+01  0.21228456398E+03 -0.61356031245E+03  0.64924992508E+03  0.00000000000E+00 0.  1.
         -2    1    1    2    0  502 -0.27697289750E+02 -0.30870137538E+03 -0.12817604907E+03  0.33539943139E+03  0.00000000000E+00 0.  1.
<scales pt_clust_5="13000.00000" pt_clust_6="13000.00000" pt_clust_7="13000.00000" pt_clust_8="13000.00000" pt_clust_9="279.28941"></scales>
<clustering>
<clus scale="   79.519">  5  6 -1 -1</clus>
<clus scale="   90.905">  7  8 -1 -1</clus>
<clus scale="   97.268">  1  5  2 -1</clus>
<clus scale="  279.289">  2  9  1 -1</clus>
<clus scale="  279.289">  2  5  1 -1</clus>
</clustering>
</event>
<event>
 9    2  0.5615294E-005  0.2167069E+03  0.7546771E-02  0.1169500E+00
         -3   -1    0    0    0  501 -0.00000000000E+00  0.00000000000E+00  0.13424549942E+03  0.13424549942E+03  0.00000000000E+00 0.  1.
         21   -1    0    0  501  502  0.00000000000E+00 -0.00000000000E+00 -0.96954868244E+03  0.96954868244E+03  0.00000000000E+00 0.  1.
         23    2    1    2    0    0 -0.24358888265E+02  0.28591260111E+02 -0.18093984298E+03  0.20635529034E+03  0.91828445910E+02 0.  0.
         24    2    1    2    0    0  0.17308042718E+03 -0.11178160183E+03 -0.68884876767E+03  0.72357695259E+03  0.81234357412E+02 0.  0.
        -13    1    4    4    0    0  0.15871494440E+03 -0.63907598203E+02 -0.51439498519E+03  0.54210406332E+03  0.00000000000E+00 0.  1.
         14    1    4    4    0    0  0.14365482783E+02 -0.47874003622E+02 -0.17445378248E+03  0.18147288927E+03  0.00000000000E+00 0. -1.
        -13    1    3    3    0    0 -0.19724740518E+02  0.51614759781E+02 -0.17292761105E+03  0.18154092508E+03  0.00000000000E+00 0. -1.
         13    1    3    3    0    0 -0.46341477471E+01 -0.23023499670E+02 -0.80122319334E+01  0.24814365254E+02  0.00000000000E+00 0.  1.
         -4    1    1    2    0  502 -0.14872153891E+03  0.83190341714E+02  0.34485427626E+02  0.17386193893E+03  0.00000000000E+00 0.  1.
<scales pt_clust_5="13000.00000" pt_clust_6="13000.00000" pt_clust_7="13000.00000" pt_clust_8="13000.00000" pt_clust_9="200.90517"></scales>
<clustering>
<clus scale="   81.234">  5  6 -1 -1</clus>
<clus scale="   91.828">  7  8 -1 -1</clus>
<clus scale="   99.213">  1  7  2 -1</clus>
<clus scale="  200.905">  2  9  1 -1</clus>
<clus scale="  200.905">  2  5  1 -1</clus>
</clustering>
</event>
<event>
 9    2  0.5615294E-005  0.2608690E+03  0.7546771E-02  0.1109280E+00
         21   -1    0    0  501  502  0.00000000000E+00  0.00000000000E+00  0.21268827958E+03  0.21268827958E+03  0.00000000000E+00 0.  1.
         -3   -1    0    0    0  501 -0.00000000000E+00 -0.00000000000E+00 -0.47272612990E+03  0.47272612990E+03  0.00000000000E+00 0.  1.
         24    2    1    2    0    0 -0.87641679181E+02 -0.19646266117E+03 -0.20558999687E+03  0.30827732938E+03  0.80554477438E+02 0.  0.
         23    2    1    2    0    0  0.75652882620E+02  0.24989393873E+03 -0.10045710919E+03  0.30561446634E+03  0.12303752267E+03 0.  0.
        -11    1    3    3    0    0 -0.41326586995E+02 -0.16169354215E+03 -0.12262309460E+03  0.20709686549E+03  0.00000000000E+00 0.  1.
         12    1    3    3    0    0 -0.46315092186E+02 -0.34769119016E+02 -0.82966902271E+02  0.10118046389E+03  0.00000000000E+00 0. -1.
        -11    1    4    4    0    0  0.36096341508E+02  0.24312512639E+03 -0.10034115308E+03  0.26548280538E+03  0.00000000000E+00 0. -1.
         11    1    4    4    0    0  0.39556541112E+02  0.67688123417E+01 -0.11595611377E+00  0.40131660956E+02  0.00000000000E+00 0.  1.
         -4    1    1    2    0  502  0.11988796561E+02 -0.53431277564E+02  0.46009255744E+02  0.71522613761E+02  0.00000000000E+00 0.  1.
<scales pt_clust_5="13000.00000" pt_clust_6="13000.00000" pt_clust_7="13000.00000" pt_clust_8="13000.00000" pt_clust_9="54.75977"></scales>
<clustering>
<clus scale="   54.760">  1  9  2 -1</clus>
<clus scale="   80.554">  5  6 -1 -1</clus>
<clus scale="  123.038">  7  8 -1 -1</clus>
<clus scale="  243.728">  2  5  1 -1</clus>
<clus scale="   54.760">  1  5  2 -1</clus>
</clustering>
</event>
<event>
 9    2  0.5615294E-005  0.9775096E+02  0.7546771E-02  0.1290043E+00
         21   -1    0    0  501  502  0.00000000000E+00  0.00000000000E+00  0.59822591357E+02  0.59822591357E+02  0.00000000000E+00 0. -1.
          2   -1    0    0  502    0 -0.00000000000E+00 -0.00000000000E+00 -0.40896730840E+03  0.40896730840E+03  0.00000000000E+00 0. -1.
         23    2    1    2    0    0 -0.17385795553E+02 -0.28880833568E+02 -0.33254428536E+03  0.34649728420E+03  0.91314280362E+02 0.  0.
         24    2    1    2    0    0  0.41841667351E+02  0.22956729470E+02 -0.61270636809E+01  0.95036861812E+02  0.81955644340E+02 0.  0.
        -13    1    4    4    0    0  0.22229284881E+02  0.45560838945E+02 -0.28052120661E+02  0.57938351938E+02  0.00000000000E+00 0.  1.
         14    1    4    4    0    0  0.19612382470E+02 -0.22604109476E+02  0.21925056980E+02  0.37098509874E+02  0.00000000000E+00 0. -1.
        -13    1    3    3    0    0 -0.31112991389E+02 -0.54606741063E+02 -0.27371863190E+03  0.28084124314E+03  0.00000000000E+00 0.  1.
         13    1    3    3    0    0  0.13727195836E+02  0.25725907495E+02 -0.58825653463E+02  0.65656041057E+02  0.00000000000E+00 0. -1.
          1    1    1    2  501    0 -0.24455871798E+02  0.59241040985E+01 -0.10473367999E+02  0.27255753741E+02  0.00000000000E+00 0. -1.
<scales pt_clust_5="13000.00000" pt_clust_6="13000.00000" pt_clust_7="13000.00000" pt_clust_8="13000.00000" pt_clust_9="25.16316"></scales>
<clustering>
<clus scale="   25.163">  1  9  2 -1</clus>
<clus scale="   81.956">  5  6 -1 -1</clus>
<clus scale="   89.071">  1  5  2 -1</clus>
<clus scale="   91.314">  7  8 -1 -1</clus>
<clus scale="   25.163">  1  5  2 -1</clus>
</clustering>
</event>
<event>
 9    2  0.5615294E-005  0.1538693E+03  0.7546771E-02  0.1201199E+00
         21   -1    0    0  501  502  0.00000000000E+00  0.00000000000E+00  0.69285703964E+02  0.69285703964E+02  0.00000000000E+00 0.  1.
          2   -1    0    0  502    0 -0.00000000000E+00 -0.00000000000E+00 -0.11811714630E+04  0.11811714630E+04  0.00000000000E+00 0. -1.
         24    2    1    2    0    0 -0.75971682372E+02  0.79978863312E+02 -0.33790460877E+03  0.36454415787E+03  0.80898722560E+02 0.  0.
         23    2    1    2    0    0  0.76599112890E+02  0.97772319452E+02 -0.82588692088E+02  0.17203668376E+03  0.85725596832E+02 0.  0.
        -13    1    3    3    0    0 -0.31077395340E+02  0.84355086898E+02 -0.25132145951E+03  0.26691583167E+03  0.00000000000E+00 0.  1.
         14    1    3    3    0    0 -0.44894287032E+02 -0.43762235867E+01 -0.86583149262E+02  0.97628326202E+02  0.00000000000E+00 0. -1.
        -11    1    4    4    0    0 -0.38565917294E+01  0.24060321747E+02  0.12423025880E+02  0.27351489070E+02  0.00000000000E+00 0. -1.
         11    1    4    4    0    0  0.80455704619E+02  0.73711997705E+02 -0.95011717968E+02  0.14468519469E+03  0.00000000000E+00 0.  1.
          1    1    1    2  501    0 -0.62743051771E+00 -0.17775118276E+03 -0.69139245816E+03  0.71387632531E+03  0.00000000000E+00 0. -1.
<scales pt_clust_5="13000.00000" pt_clust_6="13000.00000" pt_clust_7="13000.00000" pt_clust_8="13000.00000" pt_clust_9="127.77678"></scales>
<clustering>
<clus scale="   80.899">  5  6 -1 -1</clus>
<clus scale="   85.726">  7  8 -1 -1</clus>
<clus scale="  136.795">  2  5  1 -1</clus>
<clus scale="  127.777">  1  9  2 -1</clus>
<clus scale="  127.777">  1  5  2 -1</clus>
</clustering>
</event>
<event>
 9    2  0.5615294E-005  0.1185950E+03  0.7546771E-02  0.1249491E+00
         21   -1    0    0  501  502  0.00000000000E+00  0.00000000000E+00  0.23475465914E+03  0.23475465914E+03  0.00000000000E+00 0. -1.
          4   -1    0    0  502    0 -0.00000000000E+00 -0.00000000000E+00 -0.10393907027E+03  0.10393907027E+03  0.00000000000E+00 0. -1.
         24    2    1    2    0    0  0.70435109692E+02 -0.22312356605E+02 -0.41838365863E+01  0.10815970446E+03  0.78880106774E+02 0.  0.
         23    2    1    2    0    0 -0.81218199112E+02 -0.26466778912E+01  0.35337177332E+02  0.12722965854E+03  0.91297695143E+02 0.  0.
        -13    1    3    3    0    0  0.40165664875E+02  0.21050262416E+02  0.20540895289E+02  0.49782753660E+02  0.00000000000E+00 0.  1.
         14    1    3    3    0    0  0.30269444817E+02 -0.43362619021E+02 -0.24724731875E+02  0.58376950796E+02  0.00000000000E+00 0. -1.
        -13    1    4    4    0    0 -0.41273072626E+02  0.29284311480E+02 -0.17643746243E+02  0.53594208682E+02  0.00000000000E+00 0.  1.
         13    1    4    4    0    0 -0.39945126486E+02 -0.31930989371E+02  0.52980923575E+02  0.73635449853E+02  0.00000000000E+00 0. -1.
          3    1    1    2  501    0  0.10783089420E+02  0.24959034496E+02  0.99662248127E+02  0.10330436642E+03  0.00000000000E+00 0. -1.
<scales pt_clust_5="13000.00000" pt_clust_6="13000.00000" pt_clust_7="13000.00000" pt_clust_8="13000.00000" pt_clust_9="27.18876"></scales>
<clustering>
<clus scale="   27.189">  1  9  2 -1</clus>
<clus scale="   78.880">  5  6 -1 -1</clus>
<clus scale="   91.298">  7  8 -1 -1</clus>
<clus scale="  109.323">  2  5  1 -1</clus>
<clus scale="   27.189">  1  5  2 -1</clus>
</clustering>
</event>
<event>
 9    2  0.5615294E-005  0.9218449E+02  0.7546771E-02  0.1303559E+00
         21   -1    0    0  501  502  0.00000000000E+00  0.00000000000E+00  0.14744923872E+03  0.14744923872E+03  0.00000000000E+00 0.  1.
         -1   -1    0    0    0  501 -0.00000000000E+00 -0.00000000000E+00 -0.91530240505E+02  0.91530240505E+02  0.00000000000E+00 0.  1.
         24    2    1    2    0    0  0.90891095231E+01  0.15499876460E+02  0.41206105526E+02  0.92819870840E+02  0.81207925771E+02 0.  0.
         23    2    1    2    0    0 -0.19665532909E+02  0.36012266597E+01  0.49267260161E+02  0.10528520095E+03  0.90873585804E+02 0.  0.
        -13    1    3    3    0    0  0.17067333085E+02  0.45290178277E+02  0.38531205928E+02  0.61863946991E+02  0.00000000000E+00 0.  1.
         14    1    3    3    0    0 -0.79782235623E+01 -0.29790301817E+02  0.26748995986E+01  0.30955923850E+02  0.00000000000E+00 0. -1.
        -13    1    4    4    0    0 -0.50317642280E+02 -0.12955150382E+02  0.47506708583E+02  0.70403042593E+02  0.00000000000E+00 0.  1.
         13    1    4    4    0    0  0.30652109371E+02  0.16556377042E+02  0.17605515776E+01  0.34882158355E+02  0.00000000000E+00 0. -1.
         -2    1    1    2    0  502  0.10576423386E+02 -0.19101103120E+02 -0.34554367472E+02  0.40874407438E+02  0.00000000000E+00 0.  1.
<scales pt_clust_5="13000.00000" pt_clust_6="13000.00000" pt_clust_7="13000.00000" pt_clust_8="13000.00000" pt_clust_9="21.83377"></scales>
<clustering>
<clus scale="   21.834">  1  9  2 -1</clus>
<clus scale="   81.208">  5  6 -1 -1</clus>
<clus scale="   82.672">  2  5  1 -1</clus>
<clus scale="   90.874">  7  8 -1 -1</clus>
<clus scale="   21.834">  1  5  2 -1</clus>
</clustering>
</event>
<event>
 9    2  0.5615294E-005  0.9715836E+02  0.7546771E-02  0.1293264E+00
          2   -1    0    0  502    0 -0.00000000000E+00  0.00000000000E+00  0.11072069925E+03  0.11072069925E+03  0.00000000000E+00 0. -1.
         21   -1    0    0  501  502  0.00000000000E+00 -0.00000000000E+00 -0.15957399313E+03  0.15957399313E+03  0.00000000000E+00 0.  1.
         24    2    1    2    0    0  0.27728427541E+02 -0.53464290286E+01  0.55802320089E+02  0.10082813392E+03  0.79088328246E+02 0.  0.
         23    2    1    2    0    0 -0.48959112675E+02  0.21614862129E+02 -0.88754542560E+02  0.13834987518E+03  0.91646724749E+02 0.  0.
        -13    1    3    3    0    0 -0.24031718070E+02  0.14018452273E+02  0.25810742707E+02  0.37950427094E+02  0.00000000000E+00 0.  1.
         14    1    3    3    0    0  0.51760145612E+02 -0.19364881301E+02  0.29991577382E+02  0.62877706824E+02  0.00000000000E+00 0. -1.
        -13    1    4    4    0    0 -0.10598031240E+02  0.32959364859E+02  0.63279425571E+01  0.35194898140E+02  0.00000000000E+00 0. -1.
         13    1    4    4    0    0 -0.38361081435E+02 -0.11344502730E+02 -0.95082485117E+02  0.10315497704E+03  0.00000000000E+00 0.  1.
          1    1    1    2  501    0  0.21230685134E+02 -0.16268433100E+02 -0.15901071404E+02  0.31116683284E+02  0.00000000000E+00 0. -1.
<scales pt_clust_5="13000.00000" pt_clust_6="13000.00000" pt_clust_7="13000.00000" pt_clust_8="13000.00000" pt_clust_9="26.74704"></scales>
<clustering>
<clus scale="   26.747">  2  9  1 -1</clus>
<clus scale="   79.088">  5  6 -1 -1</clus>
<clus scale="   85.414">  1  5  2 -1</clus>
<clus scale="   91.647">  7  8 -1 -1</clus>
<clus scale="   26.747">  2  5  1 -1</clus>
</clustering>
</event>
<event>
 9    2  0.5615294E-005  0.1064185E+03  0.7546771E-02  0.1272684E+00
         21   -1    0    0  501  502  0.00000000000E+00  0.00000000000E+00  0.36991966105E+02  0.36991966105E+02  0.00000000000E+00 0.  1.
          2   -1    0    0  502    0 -0.00000000000E+00 -0.00000000000E+00 -0.68430004115E+03  0.68430004115E+03  0.00000000000E+00 0. -1.
         24    2    1    2    0    0  0.31032791100E+02 -0.52134638701E+02 -0.50060309019E+03  0.51056702046E+03  0.79963577888E+02 0.  0.
         23    2    1    2    0    0 -0.38227673758E+02  0.43902176405E+01 -0.11770028424E+03  0.15439942656E+03  0.92223624740E+02 0.  0.
        -11    1    3    3    0    0  0.23739575002E+02  0.18043837498E+02 -0.14940145887E+03  0.15234809945E+03  0.00000000000E+00 0.  1.
         12    1    3    3    0    0  0.72932160973E+01 -0.70178476199E+02 -0.35120163132E+03  0.35821892101E+03  0.00000000000E+00 0. -1.
        -11    1    4    4    0    0 -0.37400419083E+02 -0.17179103417E+02 -0.71648680218E+01  0.41776168751E+02  0.00000000000E+00 0.  1.
         11    1    4    4    0    0 -0.82725467554E+00  0.21569321057E+02 -0.11053541622E+03  0.11262325781E+03  0.00000000000E+00 0. -1.
          1    1    1    2  501    0  0.71948826588E+01  0.47744421061E+02 -0.29004700615E+02  0.56325560243E+02  0.00000000000E+00 0. -1.
<scales pt_clust_5="13000.00000" pt_clust_6="13000.00000" pt_clust_7="13000.00000" pt_clust_8="13000.00000" pt_clust_9="48.28350"></scales>
<clustering>
<clus scale="   48.283">  1  9  2 -1</clus>
<clus scale="   79.964">  5  6 -1 -1</clus>
<clus scale="   92.224">  7  8 -1 -1</clus>
<clus scale="   95.989">  2  5  1 -1</clus>
<clus scale="   48.283">  1  5  2 -1</clus>
</clustering>
</event>
<event>
 9    2  0.5615294E-005  0.1012380E+03  0.7546771E-02  0.1282033E+00
         21   -1    0    0  501  502  0.00000000000E+00  0.00000000000E+00  0.41916594251E+03  0.41916594251E+03  0.00000000000E+00 0.  1.
          2   -1    0    0  502    0 -0.00000000000E+00 -0.00000000000E+00 -0.12140825049E+03  0.12140825049E+03  0.00000000000E+00 0. -1.
         24    2    1    2    0    0 -0.47537075201E+02  0.16770770247E+02 -0.75464303580E+02  0.12150751845E+03  0.80797176141E+02 0.  0.
         23    2    1    2    0    0  0.20885194130E+02  0.58250917706E+02  0.24384909787E+03  0.26715906086E+03  0.89901170857E+02 0.  0.
        -13    1    3    3    0    0 -0.60379261176E+02 -0.59421549296E+01 -0.73551153083E+02  0.95345353873E+02  0.00000000000E+00 0.  1.
         14    1    3    3    0    0  0.12842185974E+02  0.22712925176E+02 -0.19131504972E+01  0.26162164580E+02  0.00000000000E+00 0. -1.
        -13    1    4    4    0    0 -0.34245996042E+02  0.30780935107E+02  0.82960191431E+02  0.94882282715E+02  0.00000000000E+00 0.  1.
         13    1    4    4    0    0  0.55131190172E+02  0.27469982599E+02  0.16088890644E+03  0.17227677815E+03  0.00000000000E+00 0. -1.
          1    1    1    2  501    0  0.26651881071E+02 -0.75021687953E+02  0.12937289773E+03  0.15190761369E+03  0.00000000000E+00 0. -1.
<scales pt_clust_5="13000.00000" pt_clust_6="13000.00000" pt_clust_7="13000.00000" pt_clust_8="13000.00000" pt_clust_9="79.61518"></scales>
<clustering>
<clus scale="   79.615">  1  9  2 -1</clus>
<clus scale="   80.797">  5  6 -1 -1</clus>
<clus scale="   89.901">  7  8 -1 -1</clus>
<clus scale="   93.247">  2  5  1 -1</clus>
<clus scale="   79.615">  1  5  2 -1</clus>
</clustering>
</event>
<event>
 9    2  0.5615294E-005  0.1322524E+03  0.7546771E-02  0.1229089E+00
         21   -1    0    0  501  502  0.00000000000E+00  0.00000000000E+00  0.16012091823E+03  0.16012091823E+03  0.00000000000E+00 0.  1.
         -1   -1    0    0    0  501 -0.00000000000E+00 -0.00000000000E+00 -0.13777499290E+03  0.13777499290E+03  0.00000000000E+00 0.  1.
         24    2    1    2    0    0  0.90751449563E+01  0.10582496094E+03  0.31483631054E+01  0.13140907597E+03  0.77312045916E+02 0.  0.
         23    2    1    2    0    0 -0.25274254001E+02 -0.70300539361E+02  0.31281171645E+02  0.12561619437E+03  0.96020637561E+02 0.  0.
        -13    1    3    3    0    0  0.33439158597E+02  0.88398947980E+02  0.20614675923E+02  0.96734255541E+02  0.00000000000E+00 0.  1.
         14    1    3    3    0    0 -0.24364013641E+02  0.17426012955E+02 -0.17466312818E+02  0.34674820427E+02  0.00000000000E+00 0. -1.
        -13    1    4    4    0    0 -0.32667952245E+02 -0.90939070153E+02  0.36131760911E+02  0.10316304440E+03  0.00000000000E+00 0.  1.
         13    1    4    4    0    0  0.73936982439E+01  0.20638530792E+02 -0.48505892655E+01  0.22453149962E+02  0.00000000000E+00 0. -1.
         -2    1    1    2    0  502  0.16199109044E+02 -0.35524421575E+02 -0.12083609426E+02  0.40870640793E+02  0.00000000000E+00 0.  1.
<scales pt_clust_5="13000.00000" pt_clust_6="13000.00000" pt_clust_7="13000.00000" pt_clust_8="13000.00000" pt_clust_9="39.04353"></scales>
<clustering>
<clus scale="   39.044">  1  9  2 -1</clus>
<clus scale="   77.312">  5  6 -1 -1</clus>
<clus scale="   96.021">  7  8 -1 -1</clus>
<clus scale="  119.364">  2  5  1 -1</clus>
<clus scale="   39.044">  1  5  2 -1</clus>
</clustering>
</event>
<event>
 9    2  0.5615294E-005  0.1105019E+03  0.7546771E-02  0.1265862E+00
          2   -1    0    0  502    0 -0.00000000000E+00  0.00000000000E+00  0.16214577372E+03  0.16214577372E+03  0.00000000000E+00 0. -1.
         21   -1    0    0  501  502  0.00000000000E+00 -0.00000000000E+00 -0.84696500022E+02  0.84696500022E+02  0.00000000000E+00 0. -1.
         24    2    1    2    0    0 -0.22649199956E+02  0.48690719966E+02  0.44411797788E+02  0.10634878657E+03  0.80336070066E+02 0.  0.
         23    2    1    2    0    0  0.44294487003E+02 -0.42606547755E+02  0.22446241896E+02  0.11563971802E+03  0.95348786661E+02 0.  0.
        -13    1    3    3    0    0  0.22248666101E+02  0.22957611832E+02 -0.77248860547E+01  0.32889648050E+02  0.00000000000E+00 0.  1.
         14    1    3    3    0    0 -0.44897866057E+02  0.25733108134E+02  0.52136683843E+02  0.73459138525E+02  0.00000000000E+00 0. -1.
        -11    1    4    4    0    0  0.43009059076E+02  0.10826349640E+02 -0.18756105464E+02  0.48153717419E+02  0.00000000000E+00 0. -1.
         11    1    4    4    0    0  0.12854279269E+01 -0.53432897395E+02  0.41202347360E+02  0.67486000600E+02  0.00000000000E+00 0.  1.
          1    1    1    2  501    0 -0.21645287046E+02 -0.60841722106E+01  0.10591234010E+02  0.24853769144E+02  0.00000000000E+00 0. -1.
<scales pt_clust_5="13000.00000" pt_clust_6="13000.00000" pt_clust_7="13000.00000" pt_clust_8="13000.00000" pt_clust_9="22.48413"></scales>
<clustering>
<clus scale="   22.484">  2  9  1 -1</clus>
<clus scale="   80.336">  5  6 -1 -1</clus>
<clus scale="   95.349">  7  8 -1 -1</clus>
<clus scale="   97.843">  1  5  2 -1</clus>
<clus scale="   22.484">  2  5  1 -1</clus>
</clustering>
</event>
<event>
 9    2  0.5615294E-005  0.1610104E+03  0.7546771E-02  0.1190825E+00
          2   -1    0    0  502    0 -0.00000000000E+00  0.00000000000E+00  0.89815795970E+02  0.89815795970E+02  0.00000000000E+00 0. -1.
         21   -1    0    0  501  502  0.00000000000E+00 -0.00000000000E+00 -0.44342023777E+03  0.44342023777E+03  0.00000000000E+00 0.  1.
         23    2    1    2    0    0 -0.10908353239E+03  0.74817618554E+02 -0.26793923977E+02  0.16807330458E+03  0.10016899853E+03 0.  0.
         24    2    1    2    0    0  0.95958491994E+02 -0.50725429495E+02 -0.26704616976E+03  0.29940196913E+03  0.80912180518E+02 0.  0.
        -11    1    4    4    0    0  0.71929604924E+02 -0.30242810233E+02 -0.25315455727E+03  0.26490701294E+03  0.00000000000E+00 0.  1.
         12    1    4    4    0    0  0.24028887069E+02 -0.20482619262E+02 -0.13891612485E+02  0.34494956198E+02  0.00000000000E+00 0. -1.
        -11    1    3    3    0    0 -0.65839425248E+02 -0.11839067643E+02 -0.24367975569E+02  0.71195446996E+02  0.00000000000E+00 0.  1.
         11    1    3    3    0    0 -0.43244107139E+02  0.86656686197E+02 -0.24259484081E+01  0.96877857587E+02  0.00000000000E+00 0. -1.
          1    1    1    2  501    0  0.13125040393E+02 -0.24092189060E+02 -0.59764348067E+02  0.65760760023E+02  0.00000000000E+00 0. -1.
<scales pt_clust_5="13000.00000" pt_clust_6="13000.00000" pt_clust_7="13000.00000" pt_clust_8="13000.00000" pt_clust_9="27.43538"></scales>
<clustering>
<clus scale="   27.435">  2  9  1 -1</clus>
<clus scale="   80.912">  5  6 -1 -1</clus>
<clus scale="  100.169">  7  8 -1 -1</clus>
<clus scale="  149.791">  2  5  1 -1</clus>
<clus scale="   27.435">  2  5  1 -1</clus>
</clustering>
</event>
<event>
 9    2  0.5615294E-005  0.9712688E+02  0.7546771E-02  0.1293141E+00
         -1   -1    0    0    0  501 -0.00000000000E+00  0.00000000000E+00  0.34416348275E+03  0.34416348275E+03  0.00000000000E+00 0.  1.
         21   -1    0    0  501  502  0.00000000000E+00 -0.00000000000E+00 -0.46344492999E+02  0.46344492999E+02  0.00000000000E+00 0. -1.
         24    2    1    2    0    0  0.72008775267E+01 -0.33016573169E+02  0.24132102788E+03  0.25613193195E+03  0.78903620489E+02 0.  0.
         23    2    1    2    0    0 -0.28476011687E+02  0.24932874877E+02  0.41391455738E+02  0.10705967436E+03  0.91192048862E+02 0.  0.
        -11    1    3    3    0    0  0.41087855101E+02 -0.46640871141E+01  0.10599912873E+03  0.11377952732E+03  0.00000000000E+00 0.  1.
         12    1    3    3    0    0 -0.33886977574E+02 -0.28352486055E+02  0.13532189914E+03  0.14235240462E+03  0.00000000000E+00 0. -1.
        -13    1    4    4    0    0 -0.55480799042E+02  0.35894093909E+01  0.46222170510E+02  0.72301396728E+02  0.00000000000E+00 0. -1.
         13    1    4    4    0    0  0.27004787355E+02  0.21343465486E+02 -0.48307147721E+01  0.34758277637E+02  0.00000000000E+00 0.  1.
         -2    1    1    2    0  502  0.21275134161E+02  0.80836982922E+01  0.15106506137E+02  0.27316369438E+02  0.00000000000E+00 0.  1.
<scales pt_clust_5="13000.00000" pt_clust_6="13000.00000" pt_clust_7="13000.00000" pt_clust_8="13000.00000" pt_clust_9="22.75912"></scales>
<clustering>
<clus scale="   22.759">  2  9  1 -1</clus>
<clus scale="   78.904">  5  6 -1 -1</clus>
<clus scale="   85.694">  1  5  2 -1</clus>
<clus scale="   91.192">  7  8 -1 -1</clus>
<clus scale="   22.759">  2  5  1 -1</clus>
</clustering>
</event>
<event>
 9    2  0.5615294E-005  0.9647198E+02  0.7546771E-02  0.1298920E+00
          2   -1    0    0  502    0 -0.00000000000E+00  0.00000000000E+00  0.47032546754E+03  0.47032546754E+03  0.00000000000E+00 0. -1.
         21   -1    0    0  501  502  0.00000000000E+00 -0.00000000000E+00 -0.26682149651E+02  0.26682149651E+02  0.00000000000E+00 0. -1.
         23    2    1    2    0    0  0.18373213999E+02 -0.28186256453E+02  0.23862800479E+03  0.25836250056E+03  0.93144065725E+02 0.  0.
         24    2    1    2    0    0 -0.28501738082E+02 -0.99583906239E+01  0.15811668028E+03  0.17735006903E+03  0.74435500830E+02 0.  0.
        -13    1    4    4    0    0 -0.17766025471E+02 -0.30132376062E+02  0.14848664483E+03  0.15255122235E+03  0.00000000000E+00 0.  1.
         14    1    4    4    0    0 -0.10735712611E+02  0.20173985438E+02  0.96300354509E+01  0.24798846677E+02  0.00000000000E+00 0. -1.
        -13    1    3    3    0    0 -0.56339182375E+01 -0.58416204737E+02  0.11944736953E+03  0.13308594252E+03  0.00000000000E+00 0. -1.
         13    1    3    3    0    0  0.24007132236E+02  0.30229948284E+02  0.11918063526E+03  0.12527655803E+03  0.00000000000E+00 0.  1.
          1    1    1    2  501    0  0.10128524083E+02  0.38144647077E+02  0.46898632829E+02  0.61295047613E+02  0.00000000000E+00 0. -1.
<scales pt_clust_5="13000.00000" pt_clust_6="13000.00000" pt_clust_7="13000.00000" pt_clust_8="13000.00000" pt_clust_9="39.46646"></scales>
<clustering>
<clus scale="   39.466">  2  9  1 -1</clus>
<clus scale="   74.436">  5  6 -1 -1</clus>
<clus scale="   78.560">  2  5  1 -1</clus>
<clus scale="   93.144">  7  8 -1 -1</clus>
<clus scale="   39.466">  2  5  1 -1</clus>
</clustering>
</event>
<event>
 9    2  0.5615294E-005  0.1028826E+03  0.7546771E-02  0.1281568E+00
          2   -1    0    0  502    0 -0.00000000000E+00  0.00000000000E+00  0.60730960291E+03  0.60730960291E+03  0.00000000000E+00 0. -1.
         21   -1    0    0  501  502  0.00000000000E+00 -0.00000000000E+00 -0.26288313330E+02  0.26288313330E+02  0.00000000000E+00 0. -1.
         24    2    1    2    0    0 -0.39775134455E+01 -0.28404742490E+02  0.16508700740E+03  0.18575198937E+03  0.80171263755E+02 0.  0.
         23    2    1    2    0    0  0.13157027126E+01  0.56865287384E+02  0.18761467051E+03  0.21774392139E+03  0.94751035513E+02 0.  0.
        -11    1    3    3    0    0 -0.38302882940E+02 -0.27299079649E+02  0.12132316127E+03  0.13012171246E+03  0.00000000000E+00 0.  1.
         12    1    3    3    0    0  0.34325369495E+02 -0.11056628409E+01  0.43763846128E+02  0.55630276911E+02  0.00000000000E+00 0. -1.
        -13    1    4    4    0    0 -0.12796859040E+02 -0.18347608774E+02  0.10312713713E+02  0.24632223065E+02  0.00000000000E+00 0.  1.
         13    1    4    4    0    0  0.14112561752E+02  0.75212896158E+02  0.17730195679E+03  0.19311169833E+03  0.00000000000E+00 0. -1.
          1    1    1    2  501    0  0.26618107330E+01 -0.28460544894E+02  0.22831961167E+03  0.23010200548E+03  0.00000000000E+00 0. -1.
<scales pt_clust_5="13000.00000" pt_clust_6="13000.00000" pt_clust_7="13000.00000" pt_clust_8="13000.00000" pt_clust_9="28.58476"></scales>
<clustering>
<clus scale="   28.585">  2  9  1 -1</clus>
<clus scale="   80.171">  5  6 -1 -1</clus>
<clus scale="   89.635">  1  5  2 -1</clus>
<clus scale="   94.751">  7  8 -1 -1</clus>
<clus scale="   28.585">  2  5  1 -1</clus>
</clustering>
</event>
<event>
 9    2  0.5615294E-005  0.1020682E+03  0.7546771E-02  0.1281420E+00
         21   -1    0    0  501  502  0.00000000000E+00  0.00000000000E+00  0.27927550491E+03  0.27927550491E+03  0.00000000000E+00 0. -1.
          2   -1    0    0  502    0 -0.00000000000E+00 -0.00000000000E+00 -0.75550027967E+03  0.75550027967E+03  0.00000000000E+00 0. -1.
         24    2    1    2    0    0  0.41677342118E+02 -0.15776617673E+02 -0.72233011514E+03  0.72812248810E+03  0.80097814813E+02 0.  0.
         23    2    1    2    0    0 -0.84945847340E+02  0.25969295175E+02  0.12883341531E+03  0.18123894870E+03  0.91429242336E+02 0.  0.
        -11    1    3    3    0    0 -0.14302270166E+02 -0.22590575012E+02 -0.11007353759E+03  0.11327432493E+03  0.00000000000E+00 0.  1.
         12    1    3    3    0    0  0.55979612284E+02  0.68139573398E+01 -0.61225657755E+03  0.61484816317E+03  0.00000000000E+00 0. -1.
        -11    1    4    4    0    0 -0.26206518926E+02  0.33510831081E+02  0.11179441293E+03  0.11961499988E+03  0.00000000000E+00 0.  1.
         11    1    4    4    0    0 -0.58739328414E+02 -0.75415359064E+01  0.17039002380E+02  0.61623948823E+02  0.00000000000E+00 0. -1.
          1    1    1    2  501    0  0.43268505222E+02 -0.10192677502E+02  0.11727192507E+03  0.12541434777E+03  0.00000000000E+00 0. -1.
<scales pt_clust_5="13000.00000" pt_clust_6="13000.00000" pt_clust_7="13000.00000" pt_clust_8="13000.00000" pt_clust_9="44.45283"></scales>
<clustering>
<clus scale="   44.453">  1  9  2 -1</clus>
<clus scale="   80.098">  5  6 -1 -1</clus>
<clus scale="   91.429">  7  8 -1 -1</clus>
<clus scale="   92.056">  2  5  1 -1</clus>
<clus scale="   44.453">  1  5  2 -1</clus>
</clustering>
</event>
<event>
 9    2  0.5615294E-005  0.4634560E+03  0.7546771E-02  0.1023784E+00
         -1   -1    0    0    0  501 -0.00000000000E+00  0.00000000000E+00  0.41775186162E+03  0.41775186162E+03  0.00000000000E+00 0.  1.
         21   -1    0    0  501  502  0.00000000000E+00 -0.00000000000E+00 -0.48775224214E+03  0.48775224214E+03  0.00000000000E+00 0.  1.
         24    2    1    2    0    0  0.11531616925E+02  0.33374624341E+03 -0.15454992798E+03  0.37702714336E+03  0.82123403561E+02 0.  0.
         23    2    1    2    0    0  0.56641845313E+02  0.48233332970E+02 -0.33161070143E+02  0.12299970183E+03  0.92165704183E+02 0.  0.
        -13    1    3    3    0    0  0.32321834745E+02  0.25942242059E+03 -0.90228873047E+02  0.27656092066E+03  0.00000000000E+00 0.  1.
         14    1    3    3    0    0 -0.20790217820E+02  0.74323822817E+02 -0.64321054930E+02  0.10046622269E+03  0.00000000000E+00 0. -1.
        -11    1    4    4    0    0  0.46412173144E+02  0.75883945219E+02 -0.25627898205E+02  0.92570255074E+02  0.00000000000E+00 0. -1.
         11    1    4    4    0    0  0.10229672170E+02 -0.27650612250E+02 -0.75331719375E+01  0.30429446757E+02  0.00000000000E+00 0.  1.
         -2    1    1    2    0  502 -0.68173462238E+02 -0.38197957638E+03  0.11771061760E+03  0.40547725857E+03  0.00000000000E+00 0.  1.
<scales pt_clust_5="13000.00000" pt_clust_6="13000.00000" pt_clust_7="13000.00000" pt_clust_8="13000.00000" pt_clust_9="388.01568"></scales>
<clustering>
<clus scale="   82.123">  5  6 -1 -1</clus>
<clus scale="   92.166">  7  8 -1 -1</clus>
<clus scale="  110.077">  5  7 -1 -1</clus>
<clus scale="  388.016">  2  9  1 -1</clus>
<clus scale="  388.016">  2  5  1 -1</clus>
</clustering>
</event>
<event>
 9    2  0.5615294E-005  0.9415824E+02  0.7546771E-02  0.1296699E+00
         21   -1    0    0  501  502  0.00000000000E+00  0.00000000000E+00  0.48865751130E+02  0.48865751130E+02  0.00000000000E+00 0. -1.
         -1   -1    0    0    0  501 -0.00000000000E+00 -0.00000000000E+00 -0.30886149274E+03  0.30886149274E+03  0.00000000000E+00 0.  1.
         23    2    1    2    0    0 -0.28030851133E+01 -0.19422306933E+02 -0.20429798458E+03  0.22431998283E+03  0.90535655412E+02 0.  0.
         24    2    1    2    0    0  0.96946954608E+01  0.41348352582E+02 -0.57394293960E+02  0.11036113320E+03  0.84153439382E+02 0.  0.
        -11    1    4    4    0    0  0.30134688097E+02  0.59647202642E+02 -0.40438067769E+02  0.78109701924E+02  0.00000000000E+00 0.  1.
         12    1    4    4    0    0 -0.20439992636E+02 -0.18298850060E+02 -0.16956226191E+02  0.32251431273E+02  0.00000000000E+00 0. -1.
        -13    1    3    3    0    0 -0.41455678727E+02 -0.99411165210E+01 -0.53768173121E+02  0.68617895167E+02  0.00000000000E+00 0. -1.
         13    1    3    3    0    0  0.38652593614E+02 -0.94811904118E+01 -0.15052981146E+03  0.15570208767E+03  0.00000000000E+00 0.  1.
         -2    1    1    2    0  502 -0.68916103476E+01 -0.21926045649E+02  0.16965369310E+01  0.23046127843E+02  0.00000000000E+00 0.  1.
<scales pt_clust_5="13000.00000" pt_clust_6="13000.00000" pt_clust_7="13000.00000" pt_clust_8="13000.00000" pt_clust_9="22.98360"></scales>
<clustering>
<clus scale="   22.984">  1  9  2 -1</clus>
<clus scale="   84.153">  5  6 -1 -1</clus>
<clus scale="   88.039">  1  5  2 -1</clus>
<clus scale="   90.536">  7  8 -1 -1</clus>
<clus scale="   22.984">  1  5  2 -1</clus>
</clustering>
</event>
<event>
 9    2  0.5615294E-005  0.1383539E+03  0.7546771E-02  0.1219229E+00
          2   -1    0    0  502    0 -0.00000000000E+00  0.00000000000E+00  0.15840943955E+04  0.15840943955E+04  0.00000000000E+00 0. -1.
         21   -1    0    0  501  502  0.00000000000E+00 -0.00000000000E+00 -0.12753274554E+03  0.12753274554E+03  0.00000000000E+00 0.  1.
         24    2    1    2    0    0  0.24733698470E+02  0.97116624521E+02  0.13259495752E+04  0.13318363101E+04  0.74848422623E+02 0.  0.
         23    2    1    2    0    0  0.41101729399E+02 -0.20021418026E+03  0.12704641447E+03  0.25741385808E+03  0.91356624102E+02 0.  0.
        -13    1    3    3    0    0  0.26183091491E+02  0.14329612872E+02  0.14797138508E+03  0.15095172370E+03  0.00000000000E+00 0.  1.
         14    1    3    3    0    0 -0.14493930206E+01  0.82787011650E+02  0.11779781901E+04  0.11808845864E+04  0.00000000000E+00 0. -1.
        -13    1    4    4    0    0  0.45644000871E+02 -0.33036880074E+02  0.26381150959E+02  0.62215555824E+02  0.00000000000E+00 0. -1.
         13    1    4    4    0    0 -0.45422714722E+01 -0.16717730018E+03  0.10066526351E+03  0.19519830226E+03  0.00000000000E+00 0.  1.
          1    1    1    2  501    0 -0.65835427869E+02  0.10309755574E+03  0.35656603444E+01  0.12237697290E+03  0.00000000000E+00 0. -1.
<scales pt_clust_5="13000.00000" pt_clust_6="13000.00000" pt_clust_7="13000.00000" pt_clust_8="13000.00000" pt_clust_9="122.32502"></scales>
<clustering>
<clus scale="   74.848">  5  6 -1 -1</clus>
<clus scale="   91.357">  7  8 -1 -1</clus>
<clus scale="  122.325">  2  9  1 -1</clus>
<clus scale="  128.055">  1  5  2 -1</clus>
<clus scale="  122.325">  2  5  1 -1</clus>
</clustering>
</event>
<event>
 9    2  0.5615294E-005  0.1168823E+03  0.7546771E-02  0.1253270E+00
         21   -1    0    0  501  502  0.00000000000E+00  0.00000000000E+00  0.32205048890E+02  0.32205048890E+02  0.00000000000E+00 0.  1.
          2   -1    0    0  502    0 -0.00000000000E+00 -0.00000000000E+00 -0.65561442156E+03  0.65561442156E+03  0.00000000000E+00 0. -1.
         24    2    1    2    0    0 -0.31282874654E+02 -0.36534366603E+02 -0.19223119661E+03  0.21283385738E+03  0.77666206973E+02 0.  0.
         23    2    1    2    0    0  0.65096206243E+02  0.83808874526E+02 -0.32158557488E+03  0.35093417726E+03  0.92065581444E+02 0.  0.
        -11    1    3    3    0    0 -0.48069594635E+02 -0.40155314640E+02 -0.18281880048E+03  0.19325074135E+03  0.00000000000E+00 0.  1.
         12    1    3    3    0    0  0.16786719981E+02  0.36209480361E+01 -0.94123961244E+01  0.19583116024E+02  0.00000000000E+00 0. -1.
        -13    1    4    4    0    0 -0.20747138922E+02  0.84112433193E+00 -0.39489055212E+02  0.44615431693E+02  0.00000000000E+00 0. -1.
         13    1    4    4    0    0  0.85843345165E+02  0.82967750195E+02 -0.28209651966E+03  0.30631874557E+03  0.00000000000E+00 0.  1.
          1    1    1    2  501    0 -0.33813331589E+02 -0.47274507923E+02 -0.10959260119E+03  0.12405143581E+03  0.00000000000E+00 0. -1.
<scales pt_clust_5="13000.00000" pt_clust_6="13000.00000" pt_clust_7="13000.00000" pt_clust_8="13000.00000" pt_clust_9="58.12246"></scales>
<clustering>
<clus scale="   58.122">  1  9  2 -1</clus>
<clus scale="   77.666">  5  6 -1 -1</clus>
<clus scale="   92.066">  7  8 -1 -1</clus>
<clus scale="  105.912">  2  5  1 -1</clus>
<clus scale="   58.122">  1  5  2 -1</clus>
</clustering>
</event>
<event>
 9    2  0.5615294E-005  0.9356417E+02  0.7546771E-02  0.1300787E+00
         21   -1    0    0  501  502  0.00000000000E+00  0.00000000000E+00  0.45122750231E+02  0.45122750231E+02  0.00000000000E+00 0. -1.
          2   -1    0    0  502    0 -0.00000000000E+00 -0.00000000000E+00 -0.28904724946E+03  0.28904724946E+03  0.00000000000E+00 0. -1.
         23    2    1    2    0    0 -0.64467445225E+01  0.25746348806E+02 -0.19866376849E+03  0.21998070995E+03  0.90663029103E+02 0.  0.
         24    2    1    2    0    0  0.19657797482E+02 -0.79891971764E+01 -0.35006205252E+02  0.89796593151E+02  0.79923322391E+02 0.  0.
        -11    1    4    4    0    0 -0.11469030561E+02 -0.23240179751E+02 -0.46537056979E+02  0.53266709014E+02  0.00000000000E+00 0.  1.
         12    1    4    4    0    0  0.31126828043E+02  0.15250982574E+02  0.11530851728E+02  0.36529884137E+02  0.00000000000E+00 0. -1.
        -11    1    3    3    0    0 -0.29714899613E+01  0.48758750597E+02 -0.18824827113E+03  0.19448305092E+03  0.00000000000E+00 0. -1.
         11    1    3    3    0    0 -0.34752545612E+01 -0.23012401792E+02 -0.10415497360E+02  0.25497659025E+02  0.00000000000E+00 0.  1.
          1    1    1    2  501    0 -0.13211052959E+02 -0.17757151629E+02 -0.10254525494E+02  0.24392696599E+02  0.00000000000E+00 0. -1.
<scales pt_clust_5="13000.00000" pt_clust_6="13000.00000" pt_clust_7="13000.00000" pt_clust_8="13000.00000" pt_clust_9="22.13252"></scales>
<clustering>
<clus scale="   22.133">  1  9  2 -1</clus>
<clus scale="   79.923">  5  6 -1 -1</clus>
<clus scale="   83.200">  1  5  2 -1</clus>
<clus scale="   90.663">  7  8 -1 -1</clus>
<clus scale="   22.133">  1  5  2 -1</clus>
</clustering>
</event>
<event>
 9    2  0.5615294E-005  0.1086459E+03  0.7546771E-02  0.1266842E+00
         21   -1    0    0  501  502  0.00000000000E+00  0.00000000000E+00  0.28500876554E+03  0.28500876554E+03  0.00000000000E+00 0. -1.
         -1   -1    0    0    0  501 -0.00000000000E+00 -0.00000000000E+00 -0.68111212042E+02  0.68111212042E+02  0.00000000000E+00 0.  1.
         23    2    1    2    0    0 -0.28101510350E+02  0.49636634140E+02  0.45799000651E+02  0.11701277616E+03  0.91328807022E+02 0.  0.
         24    2    1    2    0    0  0.87039123866E+00 -0.68663156197E+02  0.17234026925E+03  0.20286439394E+03  0.82081711246E+02 0.  0.
        -11    1    4    4    0    0 -0.38279916393E+02 -0.45722004590E+02  0.11682448815E+03  0.13116331321E+03  0.00000000000E+00 0.  1.
         12    1    4    4    0    0  0.39150307632E+02 -0.22941151606E+02  0.55515781106E+02  0.71701080720E+02  0.00000000000E+00 0. -1.
        -13    1    3    3    0    0 -0.43190199202E+02  0.69266423102E+02  0.27181584066E+02  0.86035278745E+02  0.00000000000E+00 0.  1.
         13    1    3    3    0    0  0.15088688852E+02 -0.19629788962E+02  0.18617416584E+02  0.30977497417E+02  0.00000000000E+00 0. -1.
         -2    1    1    2    0  502  0.27231119112E+02  0.19026522057E+02 -0.12417164065E+01  0.33242807482E+02  0.00000000000E+00 0.  1.
<scales pt_clust_5="13000.00000" pt_clust_6="13000.00000" pt_clust_7="13000.00000" pt_clust_8="13000.00000" pt_clust_9="33.21963"></scales>
<clustering>
<clus scale="   33.220">  1  9  2 -1</clus>
<clus scale="   82.082">  5  6 -1 -1</clus>
<clus scale="   91.329">  7  8 -1 -1</clus>
<clus scale="  100.997">  1  5  2 -1</clus>
<clus scale="   33.220">  1  5  2 -1</clus>
</clustering>
</event>
<event>
 9    2  0.5615294E-005  0.1653102E+03  0.7546771E-02  0.1184386E+00
          2   -1    0    0  502    0 -0.00000000000E+00  0.00000000000E+00  0.96228614079E+03  0.96228614079E+03  0.00000000000E+00 0. -1.
         21   -1    0    0  501  502  0.00000000000E+00 -0.00000000000E+00 -0.51474868889E+02  0.51474868889E+02  0.00000000000E+00 0.  1.
         23    2    1    2    0    0 -0.99431462885E+02  0.38062859850E+02  0.23930155018E+03  0.27729511963E+03  0.91060168795E+02 0.  0.
         24    2    1    2    0    0  0.15061720645E+03 -0.10738881989E+03  0.35346094406E+03  0.40694943514E+03  0.80344895748E+02 0.  0.
        -11    1    4    4    0    0  0.12482312468E+03 -0.53255086910E+02  0.19546590627E+03  0.23795763751E+03  0.00000000000E+00 0.  1.
         12    1    4    4    0    0  0.25794081771E+02 -0.54133732981E+02  0.15799503779E+03  0.16899179763E+03  0.00000000000E+00 0. -1.
        -13    1    3    3    0    0 -0.51601333150E+02  0.66185047298E+02  0.13036981334E+03  0.15504659396E+03  0.00000000000E+00 0.  1.
         13    1    3    3    0    0 -0.47830129735E+02 -0.28122187448E+02  0.10893173683E+03  0.12224852566E+03  0.00000000000E+00 0. -1.
          1    1    1    2  501    0 -0.51185743564E+02  0.69325960042E+02  0.31804877766E+03  0.32951645490E+03  0.00000000000E+00 0. -1.
<scales pt_clust_5="13000.00000" pt_clust_6="13000.00000" pt_clust_7="13000.00000" pt_clust_8="13000.00000" pt_clust_9="86.17469"></scales>
<clustering>
<clus scale="   80.345">  5  6 -1 -1</clus>
<clus scale="   86.175">  2  9  1 -1</clus>
<clus scale="   91.060">  7  8 -1 -1</clus>
<clus scale="  159.658">  2  5  1 -1</clus>
<clus scale="   86.175">  2  5  1 -1</clus>
</clustering>
</event>
<event>
 9    2  0.5615294E-005  0.1449749E+03  0.7546771E-02  0.1211682E+00
         21   -1    0    0  501  502  0.00000000000E+00  0.00000000000E+00  0.66032677683E+02  0.66032677683E+02  0.00000000000E+00 0.  1.
          2   -1    0    0  502    0 -0.00000000000E+00 -0.00000000000E+00 -0.57673936123E+03  0.57673936123E+03  0.00000000000E+00 0. -1.
         23    2    1    2    0    0  0.10778018003E+02  0.86815914456E+02 -0.13137289563E+03  0.18221255683E+03  0.91046194237E+02 0.  0.
         24    2    1    2    0    0 -0.62274612692E+02 -0.90190006141E+02 -0.12137922488E+03  0.19749325402E+03  0.11071722791E+03 0.  0.
        -13    1    4    4    0    0 -0.93526433955E+02 -0.79011374336E+02 -0.99152360462E+02  0.15754739512E+03  0.00000000000E+00 0.  1.
         14    1    4    4    0    0  0.31251821263E+02 -0.11178631805E+02 -0.22226864418E+02  0.39945858899E+02  0.00000000000E+00 0. -1.
        -13    1    3    3    0    0 -0.37682876102E+02  0.59839957267E+02 -0.70312094201E+02  0.99722666570E+02  0.00000000000E+00 0.  1.
         13    1    3    3    0    0  0.48460894105E+02  0.26975957189E+02 -0.61060801434E+02  0.82489890262E+02  0.00000000000E+00 0. -1.
          1    1    1    2  501    0  0.51496594689E+02  0.33740916856E+01 -0.25795456304E+03  0.26306622807E+03  0.00000000000E+00 0. -1.
<scales pt_clust_5="13000.00000" pt_clust_6="13000.00000" pt_clust_7="13000.00000" pt_clust_8="13000.00000" pt_clust_9="51.60704"></scales>
<clustering>
<clus scale="   51.607">  1  9  2 -1</clus>
<clus scale="   91.046">  7  8 -1 -1</clus>
<clus scale="  110.717">  5  6 -1 -1</clus>
<clus scale="  130.571">  2  7  1 -1</clus>
<clus scale="   51.607">  1  5  2 -1</clus>
</clustering>
</event>
<event>
 9    2  0.5615294E-005  0.1946386E+03  0.7546771E-02  0.1155376E+00
         21   -1    0    0  501  502  0.00000000000E+00  0.00000000000E+00  0.30317718110E+03  0.30317718110E+03  0.00000000000E+00 0. -1.
         -3   -1    0    0    0  501 -0.00000000000E+00 -0.00000000000E+00 -0.17632149299E+03  0.17632149299E+03  0.00000000000E+00 0.  1.
         23    2    1    2    0    0  0.12029490168E+03 -0.12968628077E+03 -0.95541504501E+01  0.19966817951E+03  0.92123315868E+02 0.  0.
         24    2    1    2    0    0 -0.12453521098E+03  0.10840245850E+03  0.50261435660E+02  0.19099059005E+03  0.81799032946E+02 0.  0.
        -13    1    4    4    0    0 -0.21743916760E+02  0.47294236256E+02 -0.15767147622E+02  0.54388837488E+02  0.00000000000E+00 0.  1.
         14    1    4    4    0    0 -0.10279129422E+03  0.61108222247E+02  0.66028583282E+02  0.13660175257E+03  0.00000000000E+00 0. -1.
        -13    1    3    3    0    0  0.89968514624E+02 -0.12604318146E+03  0.21223886732E+02  0.15630633571E+03  0.00000000000E+00 0. -1.
         13    1    3    3    0    0  0.30326387057E+02 -0.36430993129E+01 -0.30778037182E+02  0.43361843795E+02  0.00000000000E+00 0.  1.
         -4    1    1    2    0  502  0.42403093007E+01  0.21283822270E+02  0.86148402899E+02  0.88839904522E+02  0.00000000000E+00 0.  1.
<scales pt_clust_5="13000.00000" pt_clust_6="13000.00000" pt_clust_7="13000.00000" pt_clust_8="13000.00000" pt_clust_9="21.70210"></scales>
<clustering>
<clus scale="   21.702">  1  9  2 -1</clus>
<clus scale="   81.799">  5  6 -1 -1</clus>
<clus scale="   92.123">  7  8 -1 -1</clus>
<clus scale="  189.970">  1  5  2 -1</clus>
<clus scale="   21.702">  1  5  2 -1</clus>
</clustering>
</event>
<event>
 9    2  0.5615294E-005  0.2683000E+03  0.7546771E-02  0.1102600E+00
          2   -1    0    0  502    0 -0.00000000000E+00  0.00000000000E+00  0.48686843673E+03  0.48686843673E+03  0.00000000000E+00 0. -1.
         21   -1    0    0  501  502  0.00000000000E+00 -0.00000000000E+00 -0.19212824028E+03  0.19212824028E+03  0.00000000000E+00 0. -1.
         24    2    1    2    0    0 -0.16451697095E+03  0.20787857475E+03  0.25731445261E+03  0.37819548314E+03  0.80881149714E+02 0.  0.
         23    2    1    2    0    0  0.13412205065E+03 -0.18596835212E+03 -0.29210450619E+01  0.24573966092E+03  0.88354377277E+02 0.  0.
        -13    1    3    3    0    0 -0.46529451681E+02  0.76751068016E+02  0.14017589027E+03  0.16644817971E+03  0.00000000000E+00 0.  1.
         14    1    3    3    0    0 -0.11798751927E+03  0.13112750673E+03  0.11713856234E+03  0.21174730344E+03  0.00000000000E+00 0. -1.
        -13    1    4    4    0    0  0.75085406906E+02 -0.16777554983E+03 -0.57220092946E+01  0.18389995878E+03  0.00000000000E+00 0. -1.
         13    1    4    4    0    0  0.59036643742E+02 -0.18192802292E+02  0.28009642328E+01  0.61839702135E+02  0.00000000000E+00 0.  1.
          1    1    1    2  501    0  0.30394920307E+02 -0.21910222629E+02  0.40346788899E+02  0.55061532948E+02  0.00000000000E+00 0. -1.
<scales pt_clust_5="13000.00000" pt_clust_6="13000.00000" pt_clust_7="13000.00000" pt_clust_8="13000.00000" pt_clust_9="37.46879"></scales>
<clustering>
<clus scale="   37.469">  2  9  1 -1</clus>
<clus scale="   80.881">  5  6 -1 -1</clus>
<clus scale="   88.354">  7  8 -1 -1</clus>
<clus scale="  265.933">  1  5  2 -1</clus>
<clus scale="   37.469">  2  5  1 -1</clus>
</clustering>
</event>
<event>
 9    2  0.5615294E-005  0.9307051E+02  0.7546771E-02  0.1301904E+00
          2   -1    0    0  502    0 -0.00000000000E+00  0.00000000000E+00  0.37680481061E+02  0.37680481061E+02  0.00000000000E+00 0. -1.
         21   -1    0    0  501  502  0.00000000000E+00 -0.00000000000E+00 -0.71998025876E+03  0.71998025876E+03  0.00000000000E+00 0. -1.
         23    2    1    2    0    0  0.10659399743E+02  0.18870907215E+02 -0.64350529550E+02  0.11426397559E+03  0.91899573023E+02 0.  0.
         24    2    1    2    0    0  0.23127303563E+02  0.20533846653E+02 -0.55501773802E+03  0.56182072048E+03  0.81494302930E+02 0.  0.
        -11    1    4    4    0    0  0.47917858701E+02  0.32481902147E+02 -0.31965638439E+03  0.32485596691E+03  0.00000000000E+00 0.  1.
         12    1    4    4    0    0 -0.24790555138E+02 -0.11948055494E+02 -0.23536135363E+03  0.23696475357E+03  0.00000000000E+00 0. -1.
        -11    1    3    3    0    0  0.31183490447E+01  0.53184515056E+02 -0.18276856796E+02  0.56323709367E+02  0.00000000000E+00 0. -1.
         11    1    3    3    0    0  0.75410506987E+01 -0.34313607841E+02 -0.46073672754E+02  0.57940266221E+02  0.00000000000E+00 0.  1.
          1    1    1    2  501    0 -0.33786703306E+02 -0.39404753868E+02 -0.62931510120E+02  0.81576043749E+02  0.00000000000E+00 0. -1.
<scales pt_clust_5="13000.00000" pt_clust_6="13000.00000" pt_clust_7="13000.00000" pt_clust_8="13000.00000" pt_clust_9="51.90644"></scales>
<clustering>
<clus scale="   51.906">  2  9  1 -1</clus>
<clus scale="   81.494">  5  6 -1 -1</clus>
<clus scale="   82.812">  2  5  1 -1</clus>
<clus scale="   91.900">  7  8 -1 -1</clus>
<clus scale="   51.906">  2  5  1 -1</clus>
</clustering>
</event>
<event>
 9    2  0.5615294E-005  0.2630540E+03  0.7546771E-02  0.1105835E+00
         21   -1    0    0  501  502  0.00000000000E+00  0.00000000000E+00  0.91485686856E+02  0.91485686856E+02  0.00000000000E+00 0. -1.
          2   -1    0    0  502    0 -0.00000000000E+00 -0.00000000000E+00 -0.18553373210E+04  0.18553373210E+04  0.00000000000E+00 0. -1.
         24    2    1    2    0    0 -0.22133906505E+03 -0.14702852039E+03 -0.15305267433E+04  0.15555520307E+04  0.81373464314E+02 0.  0.
         23    2    1    2    0    0  0.12712917915E+03  0.13447686507E+03 -0.20748957928E+03  0.29277981014E+03  0.91772742606E+02 0.  0.
        -11    1    3    3    0    0 -0.54339022601E+02 -0.26440148259E+01 -0.22444042576E+03  0.23093987292E+03  0.00000000000E+00 0.  1.
         12    1    3    3    0    0 -0.16700004245E+03 -0.14438450556E+03 -0.13060863176E+04  0.13246121578E+04  0.00000000000E+00 0. -1.
        -11    1    4    4    0    0  0.54920991342E+02  0.57958319349E+01 -0.83159875424E+02  0.99827209909E+02  0.00000000000E+00 0.  1.
         11    1    4    4    0    0  0.72208187808E+02  0.12868103313E+03 -0.12432970386E+03  0.19295260023E+03  0.00000000000E+00 0. -1.
          1    1    1    2  501    0  0.94209885901E+02  0.12551655322E+02 -0.25835311517E+02  0.98491166984E+02  0.00000000000E+00 0. -1.
<scales pt_clust_5="13000.00000" pt_clust_6="13000.00000" pt_clust_7="13000.00000" pt_clust_8="13000.00000" pt_clust_9="95.04234"></scales>
<clustering>
<clus scale="   81.373">  5  6 -1 -1</clus>
<clus scale="   91.773">  7  8 -1 -1</clus>
<clus scale="   95.042">  1  9  2 -1</clus>
<clus scale="  259.609">  2  5  1 -1</clus>
<clus scale="   95.042">  1  5  2 -1</clus>
</clustering>
</event>
<event>
 9    2  0.5615294E-005  0.9091338E+02  0.7546771E-02  0.1306005E+00
          2   -1    0    0  502    0 -0.00000000000E+00  0.00000000000E+00  0.97570328245E+03  0.97570328245E+03  0.00000000000E+00 0. -1.
         21   -1    0    0  501  502  0.00000000000E+00 -0.00000000000E+00 -0.21542439425E+02  0.21542439425E+02  0.00000000000E+00 0.  1.
         23    2    1    2    0    0  0.18638030698E+02 -0.20809993138E+02  0.41117082434E+03  0.42192867169E+03  0.90453994973E+02 0.  0.
         24    2    1    2    0    0  0.12567423285E+02 -0.48625396408E+02  0.17603653870E+03  0.20055057602E+03  0.81910324633E+02 0.  0.
        -13    1    4    4    0    0  0.20120889596E+02 -0.52424758892E+02  0.52972581668E+02  0.77196502198E+02  0.00000000000E+00 0.  1.
         14    1    4    4    0    0 -0.75534663110E+01  0.37993624835E+01  0.12306395703E+03  0.12335407383E+03  0.00000000000E+00 0. -1.
        -13    1    3    3    0    0  0.12737182190E+02 -0.53434157001E+02  0.32482036909E+03  0.32943241662E+03  0.00000000000E+00 0.  1.
         13    1    3    3    0    0  0.59008485074E+01  0.32624163863E+02  0.86350455250E+02  0.92496255075E+02  0.00000000000E+00 0. -1.
          1    1    1    2  501    0 -0.31205453983E+02  0.69435389546E+02  0.36695347999E+03  0.37476647416E+03  0.00000000000E+00 0. -1.
<scales pt_clust_5="13000.00000" pt_clust_6="13000.00000" pt_clust_7="13000.00000" pt_clust_8="13000.00000" pt_clust_9="76.12529"></scales>
<clustering>
<clus scale="   76.125">  2  9  1 -1</clus>
<clus scale="   81.910">  5  6 -1 -1</clus>
<clus scale="   82.417">  2  5  1 -1</clus>
<clus scale="   90.454">  7  8 -1 -1</clus>
<clus scale="   76.125">  2  5  1 -1</clus>
</clustering>
</event>
<event>
 9    2  0.5615294E-005  0.1004680E+03  0.7546771E-02  0.1285947E+00
         -1   -1    0    0    0  501 -0.00000000000E+00  0.00000000000E+00  0.39417394335E+03  0.39417394335E+03  0.00000000000E+00 0.  1.
         21   -1    0    0  501  502  0.00000000000E+00 -0.00000000000E+00 -0.55908229803E+02  0.55908229803E+02  0.00000000000E+00 0. -1.
         24    2    1    2    0    0 -0.23015116350E+02  0.30336526221E+02  0.26372323072E+03  0.27890144920E+03  0.82377639787E+02 0.  0.
         23    2    1    2    0    0 -0.96784796591E+01 -0.91380115770E+01  0.10915235571E+02  0.96570571591E+02  0.95023979636E+02 0.  0.
        -11    1    3    3    0    0 -0.51044264240E+02  0.28121439306E+02  0.13331235207E+03  0.14549403931E+03  0.00000000000E+00 0.  1.
         12    1    3    3    0    0  0.28029147889E+02  0.22150869156E+01  0.13041087865E+03  0.13340740988E+03  0.00000000000E+00 0. -1.
        -13    1    4    4    0    0  0.30619565289E+02 -0.25375001391E+02  0.29298851915E+02  0.49395052360E+02  0.00000000000E+00 0.  1.
         13    1    4    4    0    0 -0.40298044948E+02  0.16236989814E+02 -0.18383616344E+02  0.47175519231E+02  0.00000000000E+00 0. -1.
         -2    1    1    2    0  502  0.32693596009E+02 -0.21198514644E+02  0.63627247252E+02  0.74610152366E+02  0.00000000000E+00 0.  1.
<scales pt_clust_5="13000.00000" pt_clust_6="13000.00000" pt_clust_7="13000.00000" pt_clust_8="13000.00000" pt_clust_9="38.96472"></scales>
<clustering>
<clus scale="   38.965">  2  9  1 -1</clus>
<clus scale="   82.378">  5  6 -1 -1</clus>
<clus scale="   88.602">  1  5  2 -1</clus>
<clus scale="   95.024">  7  8 -1 -1</clus>
<clus scale="   38.965">  2  5  1 -1</clus>
</clustering>
</event>
<event>
 9    2  0.5615294E-005  0.1163071E+03  0.7546771E-02  0.1259722E+00
          2   -1    0    0  502    0 -0.00000000000E+00  0.00000000000E+00  0.17872326821E+03  0.17872326821E+03  0.00000000000E+00 0. -1.
         21   -1    0    0  501  502  0.00000000000E+00 -0.00000000000E+00 -0.24350366834E+03  0.24350366834E+03  0.00000000000E+00 0.  1.
         23    2    1    2    0    0 -0.90699443928E+01  0.25136356319E+02 -0.10710269812E+03  0.14291320173E+03  0.90769460628E+02 0.  0.
         24    2    1    2    0    0  0.79374818576E+01  0.80049259792E+02 -0.64102767082E+02  0.12967553520E+03  0.78966398370E+02 0.  0.
        -13    1    4    4    0    0  0.20348131857E+02  0.92570799532E+02 -0.57446381325E+02  0.11083088975E+03  0.00000000000E+00 0.  1.
         14    1    4    4    0    0 -0.12410649999E+02 -0.12521539740E+02 -0.66563857573E+01  0.18844645452E+02  0.00000000000E+00 0. -1.
        -11    1    3    3    0    0  0.60166477155E+01  0.57819882350E+02 -0.73087317146E+02  0.93386801917E+02  0.00000000000E+00 0.  1.
         11    1    3    3    0    0 -0.15086592108E+02 -0.32683526031E+02 -0.34015380979E+02  0.49526399812E+02  0.00000000000E+00 0. -1.
          1    1    1    2  501    0  0.11324625352E+01 -0.10518561611E+03  0.10642506508E+03  0.14963819962E+03  0.00000000000E+00 0. -1.
<scales pt_clust_5="13000.00000" pt_clust_6="13000.00000" pt_clust_7="13000.00000" pt_clust_8="13000.00000" pt_clust_9="85.39124"></scales>
<clustering>
<clus scale="   78.966">  5  6 -1 -1</clus>
<clus scale="   90.769">  7  8 -1 -1</clus>
<clus scale="   94.621">  1  7  2 -1</clus>
<clus scale="   85.391">  2  9  1 -1</clus>
<clus scale="   85.391">  2  5  1 -1</clus>
</clustering>
</event>
<event>
 9    2  0.5615294E-005  0.1108927E+03  0.7546771E-02  0.1262733E+00
          2   -1    0    0  502    0 -0.00000000000E+00  0.00000000000E+00  0.12651719753E+03  0.12651719753E+03  0.00000000000E+00 0. -1.
         21   -1    0    0  501  502  0.00000000000E+00 -0.00000000000E+00 -0.15159865067E+03  0.15159865067E+03  0.00000000000E+00 0. -1.
         23    2    1    2    0    0  0.70194296370E+02  0.55162588997E+02  0.16165831012E+02  0.12875434823E+03  0.91357526391E+02 0.  0.
         24    2    1    2    0    0 -0.33171181174E+02 -0.15974291855E+02 -0.21612095947E+02  0.91985770710E+02  0.81478795162E+02 0.  0.
        -13    1    4    4    0    0  0.50424651112E+01 -0.30223031157E+02  0.17661658572E+02  0.35366541395E+02  0.00000000000E+00 0.  1.
         14    1    4    4    0    0 -0.38213646286E+02  0.14248739302E+02 -0.39273754520E+02  0.56619229315E+02  0.00000000000E+00 0. -1.
        -13    1    3    3    0    0  0.53472808243E+02  0.80236725646E+02  0.47924464756E+01  0.96541394785E+02  0.00000000000E+00 0. -1.
         13    1    3    3    0    0  0.16721488127E+02 -0.25074136649E+02  0.11373384537E+02  0.32212953446E+02  0.00000000000E+00 0.  1.
          1    1    1    2  501    0 -0.37023115196E+02 -0.39188297142E+02 -0.19635188206E+02  0.57375729255E+02  0.00000000000E+00 0. -1.
<scales pt_clust_5="13000.00000" pt_clust_6="13000.00000" pt_clust_7="13000.00000" pt_clust_8="13000.00000" pt_clust_9="53.91135"></scales>
<clustering>
<clus scale="   53.911">  2  9  1 -1</clus>
<clus scale="   81.479">  5  6 -1 -1</clus>
<clus scale="   91.358">  7  8 -1 -1</clus>
<clus scale="  102.907">  2  5  1 -1</clus>
<clus scale="   53.911">  2  5  1 -1</clus>
</clustering>
</event>
<event>
 9    2  0.5615294E-005  0.2716545E+03  0.7546771E-02  0.1138114E+00
         21   -1    0    0  501  502  0.00000000000E+00  0.00000000000E+00  0.12132692561E+03  0.12132692561E+03  0.00000000000E+00 0.  1.
          2   -1    0    0  502    0 -0.00000000000E+00 -0.00000000000E+00 -0.16202609055E+04  0.16202609055E+04  0.00000000000E+00 0. -1.
         24    2    1    2    0    0 -0.32671612184E+01 -0.69907666740E+02  0.90546496905E+00  0.10544246316E+03  0.78864040977E+02 0.  0.
         23    2    1    2    0    0  0.10253589855E+03  0.24780493971E+03 -0.28042517884E+03  0.39983113843E+03  0.96466365609E+02 0.  0.
        -11    1    3    3    0    0  0.33287064519E+01 -0.74405138918E+02 -0.24820368178E+02  0.78506405220E+02  0.00000000000E+00 0.  1.
         12    1    3    3    0    0 -0.65958676703E+01  0.44974721783E+01  0.25725833147E+02  0.26936057941E+02  0.00000000000E+00 0. -1.
        -13    1    4    4    0    0  0.58555163226E+02  0.20728306080E+03 -0.25768296592E+03  0.33585039134E+03  0.00000000000E+00 0.  1.
         13    1    4    4    0    0  0.43980735326E+02  0.40521878915E+02 -0.22742212921E+02  0.63980747098E+02  0.00000000000E+00 0. -1.
          1    1    1    2  501    0 -0.99268737334E+02 -0.17789727297E+03 -0.12194142660E+04  0.12363142295E+04  0.00000000000E+00 0. -1.
<scales pt_clust_5="13000.00000" pt_clust_6="13000.00000" pt_clust_7="13000.00000" pt_clust_8="13000.00000" pt_clust_9="253.94978"></scales>
<clustering>
<clus scale="   78.864">  5  6 -1 -1</clus>
<clus scale="   96.466">  7  8 -1 -1</clus>
<clus scale="  105.439">  2  5  1 -1</clus>
<clus scale="  253.950">  1  9  2 -1</clus>
<clus scale="  253.950">  1  5  2 -1</clus>
</clustering>
</event>
<event>
 9    2  0.5615294E-005  0.2725787E+03  0.7546771E-02  0.1117647E+00
         21   -1    0    0  501  502  0.00000000000E+00  0.00000000000E+00  0.74851511424E+02  0.74851511424E+02  0.00000000000E+00 0. -1.
          2   -1    0    0  502    0 -0.00000000000E+00 -0.00000000000E+00 -0.30096514826E+04  0.30096514826E+04  0.00000000000E+00 0. -1.
         24    2    1    2    0    0 -0.12694261807E+03 -0.86400761860E+02 -0.11860775900E+04  0.11986096233E+04  0.79406925453E+02 0.  0.
         23    2    1    2    0    0  0.70983424123E+02  0.32593585049E+03 -0.14869566325E+04  0.15266861919E+04  0.91966714618E+02 0.  0.
        -13    1    3    3    0    0 -0.10898278166E+03 -0.49882259613E+02 -0.64771052065E+03  0.65870661533E+03  0.00000000000E+00 0.  1.
         14    1    3    3    0    0 -0.17959836405E+02 -0.36518502247E+02 -0.53836706932E+03  0.53990300801E+03  0.00000000000E+00 0. -1.
        -11    1    4    4    0    0  0.65465807121E+02  0.18343266621E+03 -0.68509817646E+03  0.71224492018E+03  0.00000000000E+00 0. -1.
         11    1    4    4    0    0  0.55176170023E+01  0.14250318429E+03 -0.80185845600E+03  0.81444127172E+03  0.00000000000E+00 0.  1.
          1    1    1    2  501    0  0.55959193943E+02 -0.23953508863E+03 -0.26176574877E+03  0.35920717881E+03  0.00000000000E+00 0. -1.
<scales pt_clust_5="13000.00000" pt_clust_6="13000.00000" pt_clust_7="13000.00000" pt_clust_8="13000.00000" pt_clust_9="256.59557"></scales>
<clustering>
<clus scale="   79.407">  5  6 -1 -1</clus>
<clus scale="   91.967">  7  8 -1 -1</clus>
<clus scale="  172.873">  2  5  1 -1</clus>
<clus scale="  256.596">  1  9  2 -1</clus>
<clus scale="  256.596">  1  5  2 -1</clus>
</clustering>
</event>
<event>
 9    2  0.5615294E-005  0.1888776E+03  0.7546771E-02  0.1160563E+00
         21   -1    0    0  501  502  0.00000000000E+00  0.00000000000E+00  0.73034080223E+02  0.73034080223E+02  0.00000000000E+00 0.  1.
          2   -1    0    0  502    0 -0.00000000000E+00 -0.00000000000E+00 -0.72796778396E+03  0.72796778396E+03  0.00000000000E+00 0. -1.
         23    2    1    2    0    0 -0.14930595359E+03  0.32544035720E+01 -0.28631021887E+03  0.33556049280E+03  0.91238390897E+02 0.  0.
         24    2    1    2    0    0  0.19147166058E+03 -0.40049414849E+02 -0.21418107636E+03  0.30117245392E+03  0.81030618265E+02 0.  0.
        -11    1    4    4    0    0  0.16857318250E+03 -0.62088503672E+02 -0.18758599234E+03  0.25973140871E+03  0.00000000000E+00 0.  1.
         12    1    4    4    0    0  0.22898478073E+02  0.22039088823E+02 -0.26595084011E+02  0.41441045206E+02  0.00000000000E+00 0. -1.
        -13    1    3    3    0    0 -0.38103863147E+02 -0.36808956526E+02 -0.58584864335E+02  0.78987277433E+02  0.00000000000E+00 0. -1.
         13    1    3    3    0    0 -0.11120209045E+03  0.40063360098E+02 -0.22772535454E+03  0.25657321536E+03  0.00000000000E+00 0.  1.
          1    1    1    2  501    0 -0.42165706986E+02  0.36795011277E+02 -0.15444240851E+03  0.16426891747E+03  0.00000000000E+00 0. -1.
<scales pt_clust_5="13000.00000" pt_clust_6="13000.00000" pt_clust_7="13000.00000" pt_clust_8="13000.00000" pt_clust_9="55.96269"></scales>
<clustering>
<clus scale="   55.963">  1  9  2 -1</clus>
<clus scale="   81.031">  5  6 -1 -1</clus>
<clus scale="   91.238">  7  8 -1 -1</clus>
<clus scale="  184.164">  1  5  2 -1</clus>
<clus scale="   55.963">  1  5  2 -1</clus>
</clustering>
</event>
<event>
 9    2  0.5615294E-005  0.1057607E+03  0.7546771E-02  0.1274782E+00
         21   -1    0    0  501  502  0.00000000000E+00  0.00000000000E+00  0.11528065072E+03  0.11528065072E+03  0.00000000000E+00 0.  1.
          2   -1    0    0  502    0 -0.00000000000E+00 -0.00000000000E+00 -0.11113423188E+04  0.11113423188E+04  0.00000000000E+00 0. -1.
         24    2    1    2    0    0  0.27500535405E+01  0.50213044035E+02 -0.10710242161E+04  0.10751357836E+04  0.79342102454E+02 0.  0.
         23    2    1    2    0    0 -0.26368307970E+02 -0.47845684549E+02  0.61587771597E+02  0.12424180136E+03  0.93050923691E+02 0.  0.
        -11    1    3    3    0    0  0.30789509373E+02  0.24713908391E+02 -0.23821403057E+03  0.24146365257E+03  0.00000000000E+00 0.  1.
         12    1    3    3    0    0 -0.28039455833E+02  0.25499135644E+02 -0.83281018548E+03  0.83367213102E+03  0.00000000000E+00 0. -1.
        -13    1    4    4    0    0  0.15456543601E+02 -0.25774882306E+02 -0.15491237274E+02  0.33811650807E+02  0.00000000000E+00 0. -1.
         13    1    4    4    0    0 -0.41824851570E+02 -0.22070802243E+02  0.77079008872E+02  0.90430150554E+02  0.00000000000E+00 0.  1.
          1    1    1    2  501    0  0.23618254429E+02 -0.23673594856E+01  0.13374776412E+02  0.27245384514E+02  0.00000000000E+00 0. -1.
<scales pt_clust_5="13000.00000" pt_clust_6="13000.00000" pt_clust_7="13000.00000" pt_clust_8="13000.00000" pt_clust_9="23.73660"></scales>
<clustering>
<clus scale="   23.737">  1  9  2 -1</clus>
<clus scale="   79.342">  5  6 -1 -1</clus>
<clus scale="   93.051">  7  8 -1 -1</clus>
<clus scale="   93.926">  2  5  1 -1</clus>
<clus scale="   23.737">  1  5  2 -1</clus>
</clustering>
</event>
<event>
 9    2  0.5615294E-005  0.9700374E+02  0.7546771E-02  0.1296911E+00
          2   -1    0    0  502    0 -0.00000000000E+00  0.00000000000E+00  0.42469612111E+03  0.42469612111E+03  0.00000000000E+00 0. -1.
         21   -1    0    0  501  502  0.00000000000E+00 -0.00000000000E+00 -0.33840298785E+02  0.33840298785E+02  0.00000000000E+00 0. -1.
         24    2    1    2    0    0  0.35577896091E+02  0.28654733142E+02  0.18074028975E+03  0.20102144832E+03  0.75204321155E+02 0.  0.
         23    2    1    2    0    0 -0.12121869623E+02  0.19142576137E+02  0.13530035501E+03  0.16568862054E+03  0.92914772595E+02 0.  0.
        -13    1    3    3    0    0  0.16994776141E+02 -0.17450208958E+02  0.16493243941E+02  0.29416990064E+02  0.00000000000E+00 0.  1.
         14    1    3    3    0    0  0.18583119950E+02  0.46104942100E+02  0.16424704581E+03  0.17160445825E+03  0.00000000000E+00 0. -1.
        -13    1    4    4    0    0 -0.50379247872E+02  0.19591242019E+02  0.99785458776E+02  0.11348578397E+03  0.00000000000E+00 0.  1.
         13    1    4    4    0    0  0.38257378249E+02 -0.44866588166E+00  0.35514896236E+02  0.52202836572E+02  0.00000000000E+00 0. -1.
          1    1    1    2  501    0 -0.23456026468E+02 -0.47797309279E+02  0.74815177563E+02  0.91826351043E+02  0.00000000000E+00 0. -1.
<scales pt_clust_5="13000.00000" pt_clust_6="13000.00000" pt_clust_7="13000.00000" pt_clust_8="13000.00000" pt_clust_9="53.24254"></scales>
<clustering>
<clus scale="   53.243">  2  9  1 -1</clus>
<clus scale="   75.204">  5  6 -1 -1</clus>
<clus scale="   80.201">  1  5  2 -1</clus>
<clus scale="   92.915">  7  8 -1 -1</clus>
<clus scale="   53.243">  2  5  1 -1</clus>
</clustering>
</event>
<event>
 9    2  0.5615294E-005  0.1043117E+03  0.7546771E-02  0.1277993E+00
          2   -1    0    0  502    0 -0.00000000000E+00  0.00000000000E+00  0.19466141664E+03  0.19466141664E+03  0.00000000000E+00 0. -1.
         21   -1    0    0  501  502  0.00000000000E+00 -0.00000000000E+00 -0.14219684475E+03  0.14219684475E+03  0.00000000000E+00 0.  1.
         23    2    1    2    0    0  0.21490492161E+01 -0.18250123333E+02 -0.86228172322E+01  0.96606803448E+02  0.94450177772E+02 0.  0.
         24    2    1    2    0    0 -0.89571384501E+02  0.21361516470E+02 -0.16207511519E+02  0.12351737063E+03  0.80712515205E+02 0.  0.
        -13    1    4    4    0    0 -0.27598184118E+02  0.44294326256E+02 -0.23112403609E+02  0.57077406263E+02  0.00000000000E+00 0.  1.
         14    1    4    4    0    0 -0.61973200384E+02 -0.22932809787E+02  0.69048920894E+01  0.66439964369E+02  0.00000000000E+00 0. -1.
        -13    1    3    3    0    0  0.22639558939E+02  0.20319736012E+02 -0.34376644425E+02  0.45904193518E+02  0.00000000000E+00 0. -1.
         13    1    3    3    0    0 -0.20490509723E+02 -0.38569859345E+02  0.25753827193E+02  0.50702609930E+02  0.00000000000E+00 0.  1.
          1    1    1    2  501    0  0.87422335285E+02 -0.31113931366E+01  0.77294900646E+02  0.11673408731E+03  0.00000000000E+00 0. -1.
<scales pt_clust_5="13000.00000" pt_clust_6="13000.00000" pt_clust_7="13000.00000" pt_clust_8="13000.00000" pt_clust_9="87.47773"></scales>
<clustering>
<clus scale="   80.713">  5  6 -1 -1</clus>
<clus scale="   87.478">  2  9  1 -1</clus>
<clus scale="   92.058">  2  5  1 -1</clus>
<clus scale="   94.450">  7  8 -1 -1</clus>
<clus scale="   87.478">  2  5  1 -1</clus>
</clustering>
</event>
<event>
 9    2  0.5615294E-005  0.1524028E+03  0.7546771E-02  0.1227079E+00
         21   -1    0    0  501  502  0.00000000000E+00  0.00000000000E+00  0.21455787914E+03  0.21455787914E+03  0.00000000000E+00 0. -1.
          2   -1    0    0  502    0 -0.00000000000E+00 -0.00000000000E+00 -0.17581102675E+03  0.17581102675E+03  0.00000000000E+00 0. -1.
         24    2    1    2    0    0 -0.16111750641E+01  0.11887992175E+02 -0.52509821656E+02  0.96799178570E+02  0.80429343889E+02 0.  0.
         23    2    1    2    0    0 -0.98330235955E+02 -0.78662068717E+02  0.76144012060E+02  0.17242743294E+03  0.89870755535E+02 0.  0.
        -13    1    3    3    0    0 -0.62666217229E+01  0.41186044125E+02 -0.52643266997E+02  0.67133258066E+02  0.00000000000E+00 0.  1.
         14    1    3    3    0    0  0.46554466588E+01 -0.29298051950E+02  0.13344534044E+00  0.29665920504E+02  0.00000000000E+00 0. -1.
        -13    1    4    4    0    0 -0.11385304705E+03 -0.64249283174E+02  0.53033634190E+02  0.14107818069E+03  0.00000000000E+00 0. -1.
         13    1    4    4    0    0  0.15522811097E+02 -0.14412785542E+02  0.23110377870E+02  0.31349252252E+02  0.00000000000E+00 0.  1.
          1    1    1    2  501    0  0.99941411019E+02  0.66774076542E+02  0.15112661994E+02  0.12114229438E+03  0.00000000000E+00 0. -1.
<scales pt_clust_5="13000.00000" pt_clust_6="13000.00000" pt_clust_7="13000.00000" pt_clust_8="13000.00000" pt_clust_9="123.08484"></scales>
<clustering>
<clus scale="   80.429">  5  6 -1 -1</clus>
<clus scale="   81.319">  2  5  1 -1</clus>
<clus scale="   89.871">  7  8 -1 -1</clus>
<clus scale="  123.085">  1  9  2 -1</clus>
<clus scale="  123.085">  1  5  2 -1</clus>
</clustering>
</event>
<event>
 9    2  0.5615294E-005  0.3389120E+03  0.7546771E-02  0.1067260E+00
         21   -1    0    0  501  502  0.00000000000E+00  0.00000000000E+00  0.13232607758E+03  0.13232607758E+03  0.00000000000E+00 0. -1.
          2   -1    0    0  502    0 -0.00000000000E+00 -0.00000000000E+00 -0.68789610393E+03  0.68789610393E+03  0.00000000000E+00 0. -1.
         24    2    1    2    0    0  0.83286279769E+02 -0.17620190079E+03 -0.12852123082E+03  0.24679788111E+03  0.80048567203E+02 0.  0.
         23    2    1    2    0    0  0.28467997954E+01 -0.72686910503E+02 -0.15909871368E+03  0.19770925658E+03  0.92114375731E+02 0.  0.
        -13    1    3    3    0    0  0.36302845712E+00 -0.85798831267E+02 -0.70718817420E+02  0.11118777979E+03  0.00000000000E+00 0.  1.
         14    1    3    3    0    0  0.82923251312E+02 -0.90403069522E+02 -0.57802413397E+02  0.13561010133E+03  0.00000000000E+00 0. -1.
        -13    1    4    4    0    0  0.46209000737E+02 -0.28648447456E+02 -0.88639035908E+02  0.10398501804E+03  0.00000000000E+00 0.  1.
         13    1    4    4    0    0 -0.43362200941E+02 -0.44038463047E+02 -0.70459677769E+02  0.93724238537E+02  0.00000000000E+00 0. -1.
          1    1    1    2  501    0 -0.86133079564E+02  0.24888881129E+03 -0.26795008186E+03  0.37571504381E+03  0.00000000000E+00 0. -1.
<scales pt_clust_5="13000.00000" pt_clust_6="13000.00000" pt_clust_7="13000.00000" pt_clust_8="13000.00000" pt_clust_9="263.37163"></scales>
<clustering>
<clus scale="   80.049">  5  6 -1 -1</clus>
<clus scale="   92.114">  7  8 -1 -1</clus>
<clus scale="  110.468">  5  7 -1 -1</clus>
<clus scale="  263.372">  1  9  2 -1</clus>
<clus scale="  263.372">  1  5  2 -1</clus>
</clustering>
</event>
<event>
 9    2  0.5615294E-005  0.8487711E+02  0.7546771E-02  0.1324408E+00
          2   -1    0    0  502    0 -0.00000000000E+00  0.00000000000E+00  0.26006094505E+03  0.26006094505E+03  0.00000000000E+00 0. -1.
         21   -1    0    0  501  502  0.00000000000E+00 -0.00000000000E+00 -0.62648042638E+02  0.62648042638E+02  0.00000000000E+00 0. -1.
         24    2    1    2    0    0 -0.38364865965E+02  0.71439892942E+00  0.13990801927E+03  0.16644921193E+03  0.81600937443E+02 0.  0.
         23    2    1    2    0    0 -0.19713246094E+02 -0.10725209807E+02 -0.20683453115E+01  0.72460891613E+02  0.68866977312E+02 0.  0.
        -13    1    3    3    0    0  0.10426563506E+02 -0.27164037004E+02  0.24306396024E+02  0.37913045520E+02  0.00000000000E+00 0.  1.
         14    1    3    3    0    0 -0.48791429471E+02  0.27878435933E+02  0.11560162324E+03  0.12853616641E+03  0.00000000000E+00 0. -1.
        -11    1    4    4    0    0  0.43105484603E+01 -0.36071013950E+02  0.54624137252E+01  0.36736042780E+02  0.00000000000E+00 0. -1.
         11    1    4    4    0    0 -0.24023794554E+02  0.25345804143E+02 -0.75307590367E+01  0.35724848833E+02  0.00000000000E+00 0.  1.
          1    1    1    2  501    0  0.58078112059E+02  0.10010810878E+02  0.59573228459E+02  0.83798884144E+02  0.00000000000E+00 0. -1.
<scales pt_clust_5="13000.00000" pt_clust_6="13000.00000" pt_clust_7="13000.00000" pt_clust_8="13000.00000" pt_clust_9="58.93460"></scales>
<clustering>
<clus scale="   58.935">  2  9  1 -1</clus>
<clus scale="   68.867">  7  8 -1 -1</clus>
<clus scale="   72.719">  2  7  1 -1</clus>
<clus scale="   81.601">  5  6 -1 -1</clus>
<clus scale="   58.935">  2  5  1 -1</clus>
</clustering>
</event>
<event>
 9    2  0.5615294E-005  0.1123047E+03  0.7546771E-02  0.1259120E+00
          2   -1    0    0  502    0 -0.00000000000E+00  0.00000000000E+00  0.54185438905E+03  0.54185438905E+03  0.00000000000E+00 0. -1.
         21   -1    0    0  501  502  0.00000000000E+00 -0.00000000000E+00 -0.44063376834E+02  0.44063376834E+02  0.00000000000E+00 0.  1.
         24    2    1    2    0    0 -0.19361475447E+02 -0.48737640561E+02  0.23331710587E+03  0.25339154576E+03  0.83786509841E+02 0.  0.
         23    2    1    2    0    0  0.61153117032E+02  0.84229073636E+02  0.14175434340E+03  0.19811537883E+03  0.91220441172E+02 0.  0.
        -11    1    3    3    0    0  0.32585317603E+02 -0.10133867537E+02  0.80262009916E+02  0.87215184631E+02  0.00000000000E+00 0.  1.
         12    1    3    3    0    0 -0.51946793051E+02 -0.38603773024E+02  0.15305509595E+03  0.16617636113E+03  0.00000000000E+00 0. -1.
        -13    1    4    4    0    0  0.51765381367E+02  0.10283434469E+03  0.13185630375E+03  0.17504468571E+03  0.00000000000E+00 0.  1.
         13    1    4    4    0    0  0.93877356655E+01 -0.18605271058E+02  0.98980396459E+01  0.23070693117E+02  0.00000000000E+00 0. -1.
          1    1    1    2  501    0 -0.41791641585E+02 -0.35491433075E+02  0.12271956295E+03  0.13441084130E+03  0.00000000000E+00 0. -1.
<scales pt_clust_5="13000.00000" pt_clust_6="13000.00000" pt_clust_7="13000.00000" pt_clust_8="13000.00000" pt_clust_9="54.82870"></scales>
<clustering>
<clus scale="   54.829">  2  9  1 -1</clus>
<clus scale="   83.787">  5  6 -1 -1</clus>
<clus scale="   91.220">  7  8 -1 -1</clus>
<clus scale="  106.355">  1  5  2 -1</clus>
<clus scale="   54.829">  2  5  1 -1</clus>
</clustering>
</event>
<event>
 9    2  0.5615294E-005  0.2084593E+03  0.7546771E-02  0.1144039E+00
         21   -1    0    0  501  502  0.00000000000E+00  0.00000000000E+00  0.74041549588E+02  0.74041549588E+02  0.00000000000E+00 0. -1.
          2   -1    0    0  502    0 -0.00000000000E+00 -0.00000000000E+00 -0.10308032450E+04  0.10308032450E+04  0.00000000000E+00 0. -1.
         23    2    1    2    0    0  0.86437923283E+02  0.22837493751E+03 -0.63723573097E+03  0.68857650921E+03  0.91878210431E+02 0.  0.
         24    2    1    2    0    0 -0.43419019228E+02 -0.12402974380E+03 -0.20614026365E+03  0.25628434025E+03  0.76936767426E+02 0.  0.
        -11    1    4    4    0    0 -0.36430658311E+02 -0.67879240059E+02 -0.54320679331E+02  0.94263037819E+02  0.00000000000E+00 0.  1.
         12    1    4    4    0    0 -0.69883609174E+01 -0.56150503741E+02 -0.15181958432E+03  0.16202130243E+03  0.00000000000E+00 0. -1.
        -13    1    3    3    0    0  0.65860934032E+02  0.21294035306E+03 -0.61643953800E+03  0.65549901647E+03  0.00000000000E+00 0. -1.
         13    1    3    3    0    0  0.20576989251E+02  0.15434584446E+02 -0.20796192972E+02  0.33077492737E+02  0.00000000000E+00 0.  1.
          1    1    1    2  501    0 -0.43018904054E+02 -0.10434519371E+03 -0.11338570082E+03  0.15998394515E+03  0.00000000000E+00 0. -1.
<scales pt_clust_5="13000.00000" pt_clust_6="13000.00000" pt_clust_7="13000.00000" pt_clust_8="13000.00000" pt_clust_9="112.86517"></scales>
<clustering>
<clus scale="   76.937">  5  6 -1 -1</clus>
<clus scale="   91.878">  7  8 -1 -1</clus>
<clus scale="  112.865">  1  9  2 -1</clus>
<clus scale="  202.319">  1  5  2 -1</clus>
<clus scale="  112.865">  1  5  2 -1</clus>
</clustering>
</event>
<event>
 9    2  0.5615294E-005  0.1351514E+03  0.7546771E-02  0.1238506E+00
         21   -1    0    0  501  502  0.00000000000E+00  0.00000000000E+00  0.36788766053E+02  0.36788766053E+02  0.00000000000E+00 0. -1.
          2   -1    0    0  502    0 -0.00000000000E+00 -0.00000000000E+00 -0.90738077713E+03  0.90738077713E+03  0.00000000000E+00 0. -1.
         24    2    1    2    0    0  0.96065381978E+01 -0.40064430504E+02 -0.38180656466E+03  0.39277994800E+03  0.82476606141E+02 0.  0.
         23    2    1    2    0    0  0.65683648382E+02  0.98894346753E+02 -0.36994599782E+03  0.39890226528E+03  0.90379989236E+02 0.  0.
        -11    1    3    3    0    0  0.43420714252E+02 -0.60395305927E+01 -0.20032222522E+03  0.20506298611E+03  0.00000000000E+00 0.  1.
         12    1    3    3    0    0 -0.33814176054E+02 -0.34024899911E+02 -0.18148433945E+03  0.18771696189E+03  0.00000000000E+00 0. -1.
        -11    1    4    4    0    0  0.28371305132E+02  0.10137124285E+03 -0.31745908330E+03  0.33445676761E+03  0.00000000000E+00 0. -1.
         11    1    4    4    0    0  0.37312343250E+02 -0.24768961022E+01 -0.52486914524E+02  0.64445497665E+02  0.00000000000E+00 0.  1.
          1    1    1    2  501    0 -0.75290186579E+02 -0.58829916249E+02 -0.11883944859E+03  0.15248732991E+03  0.00000000000E+00 0. -1.
<scales pt_clust_5="13000.00000" pt_clust_6="13000.00000" pt_clust_7="13000.00000" pt_clust_8="13000.00000" pt_clust_9="100.48564"></scales>
<clustering>
<clus scale="   82.477">  5  6 -1 -1</clus>
<clus scale="   90.380">  7  8 -1 -1</clus>
<clus scale="   92.195">  2  5  1 -1</clus>
<clus scale="  100.486">  1  9  2 -1</clus>
<clus scale="  100.486">  1  5  2 -1</clus>
</clustering>
</event>
<event>
 9    2  0.5615294E-005  0.1405437E+03  0.7546771E-02  0.1232994E+00
         21   -1    0    0  501  502  0.00000000000E+00  0.00000000000E+00  0.25930204161E+03  0.25930204161E+03  0.00000000000E+00 0. -1.
          2   -1    0    0  502    0 -0.00000000000E+00 -0.00000000000E+00 -0.32562931324E+03  0.32562931324E+03  0.00000000000E+00 0. -1.
         24    2    1    2    0    0  0.11393734671E+02  0.37061289739E+02 -0.16244408325E+03  0.18657251484E+03  0.83173714143E+02 0.  0.
         23    2    1    2    0    0  0.98104025878E+02  0.30347834539E+02  0.19304251867E+03  0.23733603949E+03  0.92290794072E+02 0.  0.
        -11    1    3    3    0    0 -0.32596464135E+02  0.76027057392E+01 -0.34313179309E+02  0.47934589629E+02  0.00000000000E+00 0.  1.
         12    1    3    3    0    0  0.43990198806E+02  0.29458584000E+02 -0.12813090394E+03  0.13863792521E+03  0.00000000000E+00 0. -1.
        -13    1    4    4    0    0  0.79510880436E+02 -0.20650496650E+01  0.18160294996E+03  0.19825709564E+03  0.00000000000E+00 0. -1.
         13    1    4    4    0    0  0.18593145442E+02  0.32412884204E+02  0.11439568710E+02  0.39078943846E+02  0.00000000000E+00 0.  1.
          1    1    1    2  501    0 -0.10949776055E+03 -0.67409124278E+02 -0.96925707052E+02  0.16102280052E+03  0.00000000000E+00 0. -1.
<scales pt_clust_5="13000.00000" pt_clust_6="13000.00000" pt_clust_7="13000.00000" pt_clust_8="13000.00000" pt_clust_9="105.99512"></scales>
<clustering>
<clus scale="   83.174">  5  6 -1 -1</clus>
<clus scale="   91.767">  2  5  1 -1</clus>
<clus scale="   92.291">  7  8 -1 -1</clus>
<clus scale="  105.995">  1  9  2 -1</clus>
<clus scale="  105.995">  1  5  2 -1</clus>
</clustering>
</event>
<event>
 9    2  0.5615294E-005  0.9897163E+02  0.7546771E-02  0.1293229E+00
         21   -1    0    0  501  502  0.00000000000E+00  0.00000000000E+00  0.55523307910E+02  0.55523307910E+02  0.00000000000E+00 0.  1.
          2   -1    0    0  502    0 -0.00000000000E+00 -0.00000000000E+00 -0.41208270825E+03  0.41208270825E+03  0.00000000000E+00 0. -1.
         23    2    1    2    0    0 -0.19346367169E+02 -0.72658965129E+01 -0.12337204939E+03  0.15869561988E+03  0.97655322561E+02 0.  0.
         24    2    1    2    0    0 -0.47515655139E+02  0.29901883122E+02 -0.43303750852E+02  0.10633028989E+03  0.79240492257E+02 0.  0.
        -11    1    4    4    0    0 -0.20878488408E+02 -0.57632478185E+01  0.19639031066E+02  0.29237268081E+02  0.00000000000E+00 0.  1.
         12    1    4    4    0    0 -0.26637166732E+02  0.35665130940E+02 -0.62942781918E+02  0.77093021812E+02  0.00000000000E+00 0. -1.
        -13    1    3    3    0    0  0.29574563115E+02 -0.21624883653E+02 -0.91515498854E+02  0.98576756423E+02  0.00000000000E+00 0. -1.
         13    1    3    3    0    0 -0.48920930284E+02  0.14358987140E+02 -0.31856550535E+02  0.60118863458E+02  0.00000000000E+00 0.  1.
          1    1    1    2  501    0  0.66862022308E+02 -0.22635986609E+02 -0.18988360010E+03  0.20258010639E+03  0.00000000000E+00 0. -1.
<scales pt_clust_5="13000.00000" pt_clust_6="13000.00000" pt_clust_7="13000.00000" pt_clust_8="13000.00000" pt_clust_9="70.58982"></scales>
<clustering>
<clus scale="   70.590">  1  9  2 -1</clus>
<clus scale="   79.240">  5  6 -1 -1</clus>
<clus scale="   80.857">  1  5  2 -1</clus>
<clus scale="   97.655">  7  8 -1 -1</clus>
<clus scale="   70.590">  1  5  2 -1</clus>
</clustering>
</event>
<event>
 9    2  0.5615294E-005  0.1016290E+03  0.7546771E-02  0.1283476E+00
          2   -1    0    0  502    0 -0.00000000000E+00  0.00000000000E+00  0.27440263521E+03  0.27440263521E+03  0.00000000000E+00 0. -1.
         21   -1    0    0  501  502  0.00000000000E+00 -0.00000000000E+00 -0.73435710552E+02  0.73435710552E+02  0.00000000000E+00 0.  1.
         24    2    1    2    0    0  0.48790279805E+02 -0.31040099722E+01  0.21085210923E+03  0.22967874673E+03  0.76834812772E+02 0.  0.
         23    2    1    2    0    0 -0.31511932191E+02 -0.88886251026E+01 -0.12212207184E+02  0.96998795014E+02  0.90485461281E+02 0.  0.
        -13    1    3    3    0    0 -0.13382976896E+02  0.19858480227E+02  0.43060495931E+02  0.49271387410E+02  0.00000000000E+00 0.  1.
         14    1    3    3    0    0  0.62173256702E+02 -0.22962490199E+02  0.16779161330E+03  0.18040735932E+03  0.00000000000E+00 0. -1.
        -13    1    4    4    0    0 -0.86836602462E+01 -0.39808371121E+02 -0.33780484552E+02  0.52926680447E+02  0.00000000000E+00 0.  1.
         13    1    4    4    0    0 -0.22828271945E+02  0.30919746018E+02  0.21568277367E+02  0.44072114567E+02  0.00000000000E+00 0. -1.
          1    1    1    2  501    0 -0.17278347615E+02  0.11992635075E+02  0.23270226146E+01  0.21160804015E+02  0.00000000000E+00 0. -1.
<scales pt_clust_5="13000.00000" pt_clust_6="13000.00000" pt_clust_7="13000.00000" pt_clust_8="13000.00000" pt_clust_9="21.03247"></scales>
<clustering>
<clus scale="   21.032">  2  9  1 -1</clus>
<clus scale="   76.835">  5  6 -1 -1</clus>
<clus scale="   89.691">  1  5  2 -1</clus>
<clus scale="   90.485">  7  8 -1 -1</clus>
<clus scale="   21.032">  2  5  1 -1</clus>
</clustering>
</event>
<event>
 9    2  0.5615294E-005  0.9886789E+02  0.7546771E-02  0.1288424E+00
          2   -1    0    0  502    0 -0.00000000000E+00  0.00000000000E+00  0.41528160529E+03  0.41528160529E+03  0.00000000000E+00 0. -1.
         21   -1    0    0  501  502  0.00000000000E+00 -0.00000000000E+00 -0.62833127111E+02  0.62833127111E+02  0.00000000000E+00 0. -1.
         24    2    1    2    0    0  0.25144341155E+02  0.26940488609E+02  0.32380353298E+03  0.33554761613E+03  0.79908991373E+02 0.  0.
         23    2    1    2    0    0 -0.15633638112E+02 -0.51461977404E+02  0.41138940957E+02  0.11344913532E+03  0.91024986034E+02 0.  0.
        -13    1    3    3    0    0 -0.22831955142E+02 -0.12373801920E+02  0.94947063621E+02  0.98434516506E+02  0.00000000000E+00 0.  1.
         14    1    3    3    0    0  0.47976296297E+02  0.39314290530E+02  0.22885646936E+03  0.23711309962E+03  0.00000000000E+00 0. -1.
        -13    1    4    4    0    0 -0.34381814087E+02  0.63820931448E+01  0.39313128086E+02  0.52615228714E+02  0.00000000000E+00 0.  1.
         13    1    4    4    0    0  0.18748175975E+02 -0.57844070549E+02  0.18258128714E+01  0.60833906604E+02  0.00000000000E+00 0. -1.
          1    1    1    2  501    0 -0.95107030433E+01  0.24521488795E+02 -0.12493995754E+02  0.29117980956E+02  0.00000000000E+00 0. -1.
<scales pt_clust_5="13000.00000" pt_clust_6="13000.00000" pt_clust_7="13000.00000" pt_clust_8="13000.00000" pt_clust_9="26.30127"></scales>
<clustering>
<clus scale="   26.301">  2  9  1 -1</clus>
<clus scale="   79.909">  5  6 -1 -1</clus>
<clus scale="   88.740">  1  5  2 -1</clus>
<clus scale="   91.025">  7  8 -1 -1</clus>
<clus scale="   26.301">  2  5  1 -1</clus>
</clustering>
</event>
<event>
 9    2  0.5615294E-005  0.1596555E+03  0.7546771E-02  0.1190970E+00
          2   -1    0    0  502    0 -0.00000000000E+00  0.00000000000E+00  0.20517736872E+04  0.20517736872E+04  0.00000000000E+00 0. -1.
         21   -1    0    0  501  502  0.00000000000E+00 -0.00000000000E+00 -0.69266172923E+02  0.69266172923E+02  0.00000000000E+00 0. -1.
         24    2    1    2    0    0  0.37887778937E+02 -0.12213335125E+03  0.15330271789E+04  0.15403832096E+04  0.79095270887E+02 0.  0.
         23    2    1    2    0    0 -0.24801759218E+02  0.14261002697E+03  0.49791736197E+03  0.52646547309E+03  0.91057388234E+02 0.  0.
        -13    1    3    3    0    0 -0.39100789377E-02 -0.49893305068E+02  0.25992592185E+03  0.26467116721E+03  0.00000000000E+00 0.  1.
         14    1    3    3    0    0  0.37891689016E+02 -0.72240046177E+02  0.12731012571E+04  0.12757120424E+04  0.00000000000E+00 0. -1.
        -13    1    4    4    0    0 -0.22256169173E+02  0.90128201148E+02  0.43353673801E+03  0.44336501092E+03  0.00000000000E+00 0. -1.
         13    1    4    4    0    0 -0.25455900452E+01  0.52481825825E+02  0.64380623958E+02  0.83100462164E+02  0.00000000000E+00 0.  1.
          1    1    1    2  501    0 -0.13086019719E+02 -0.20476675728E+02 -0.48437026622E+02  0.54191177409E+02  0.00000000000E+00 0. -1.
<scales pt_clust_5="13000.00000" pt_clust_6="13000.00000" pt_clust_7="13000.00000" pt_clust_8="13000.00000" pt_clust_9="24.30099"></scales>
<clustering>
<clus scale="   24.301">  2  9  1 -1</clus>
<clus scale="   79.095">  5  6 -1 -1</clus>
<clus scale="   91.057">  7  8 -1 -1</clus>
<clus scale="  153.149">  1  5  2 -1</clus>
<clus scale="   24.301">  2  5  1 -1</clus>
</clustering>
</event>
<event>
 9    2  0.5615294E-005  0.9414702E+02  0.7546771E-02  0.1297299E+00
          2   -1    0    0  502    0 -0.00000000000E+00  0.00000000000E+00  0.57394101692E+03  0.57394101692E+03  0.00000000000E+00 0. -1.
         21   -1    0    0  501  502  0.00000000000E+00 -0.00000000000E+00 -0.60364662042E+02  0.60364662042E+02  0.00000000000E+00 0. -1.
         24    2    1    2    0    0 -0.25715250056E+02  0.20007106680E+02  0.48124235539E+03  0.48933127939E+03  0.82397439076E+02 0.  0.
         23    2    1    2    0    0 -0.66629248726E+01  0.16195496487E+02  0.11888591100E+02  0.92277251531E+02  0.89816835156E+02 0.  0.
        -11    1    3    3    0    0  0.13987471835E+01 -0.29627299160E+02  0.11579391239E+03  0.11953226969E+03  0.00000000000E+00 0.  1.
         12    1    3    3    0    0 -0.27113997240E+02  0.49634405840E+02  0.36544844299E+03  0.36979900970E+03  0.00000000000E+00 0. -1.
        -11    1    4    4    0    0 -0.45497074832E+02  0.44582516040E+01 -0.90824114735E+01  0.46608475880E+02  0.00000000000E+00 0. -1.
         11    1    4    4    0    0  0.38834149960E+02  0.11737244883E+02  0.20971002573E+02  0.45668775651E+02  0.00000000000E+00 0.  1.
          1    1    1    2  501    0  0.32378174929E+02 -0.36202603167E+02  0.20445408394E+02  0.52697148046E+02  0.00000000000E+00 0. -1.
<scales pt_clust_5="13000.00000" pt_clust_6="13000.00000" pt_clust_7="13000.00000" pt_clust_8="13000.00000" pt_clust_9="48.56928"></scales>
<clustering>
<clus scale="   48.569">  2  9  1 -1</clus>
<clus scale="   82.397">  5  6 -1 -1</clus>
<clus scale="   87.097">  1  5  2 -1</clus>
<clus scale="   89.817">  7  8 -1 -1</clus>
<clus scale="   48.569">  2  5  1 -1</clus>
</clustering>
</event>
<event>
 9    2  0.5615294E-005  0.1717394E+03  0.7546771E-02  0.1198126E+00
         21   -1    0    0  501  502  0.00000000000E+00  0.00000000000E+00  0.23474019387E+02  0.23474019387E+02  0.00000000000E+00 0.  1.
          2   -1    0    0  502    0 -0.00000000000E+00 -0.00000000000E+00 -0.19772277089E+04  0.19772277089E+04  0.00000000000E+00 0. -1.
         24    2    1    2    0    0 -0.67005996233E+02 -0.19937587744E+01 -0.53056862962E+03  0.54089283251E+03  0.81044474919E+02 0.  0.
         23    2    1    2    0    0  0.38086045288E+02 -0.14510507689E+03 -0.77506201225E+03  0.79457366227E+03  0.90111884661E+02 0.  0.
        -13    1    3    3    0    0 -0.14059098548E+02 -0.38335583055E+02 -0.19353883860E+03  0.19779928520E+03  0.00000000000E+00 0.  1.
         14    1    3    3    0    0 -0.52946897685E+02  0.36341824280E+02 -0.33702979102E+03  0.34309354731E+03  0.00000000000E+00 0. -1.
        -11    1    4    4    0    0  0.63497692863E+02 -0.13093037976E+03 -0.62495249998E+03  0.64166996858E+03  0.00000000000E+00 0.  1.
         11    1    4    4    0    0 -0.25411647575E+02 -0.14174697130E+02 -0.15010951227E+03  0.15290369370E+03  0.00000000000E+00 0. -1.
          1    1    1    2  501    0  0.28919950945E+02  0.14709883567E+03 -0.64812304768E+03  0.66523523354E+03  0.00000000000E+00 0. -1.
<scales pt_clust_5="13000.00000" pt_clust_6="13000.00000" pt_clust_7="13000.00000" pt_clust_8="13000.00000" pt_clust_9="146.19938"></scales>
<clustering>
<clus scale="   81.044">  5  6 -1 -1</clus>
<clus scale="   90.112">  7  8 -1 -1</clus>
<clus scale="  105.176">  2  5  1 -1</clus>
<clus scale="  146.199">  1  9  2 -1</clus>
<clus scale="  146.199">  1  5  2 -1</clus>
</clustering>
</event>
<event>
 9    2  0.5615294E-005  0.1339265E+03  0.7546771E-02  0.1223876E+00
          2   -1    0    0  502    0 -0.00000000000E+00  0.00000000000E+00  0.88859784843E+03  0.88859784843E+03  0.00000000000E+00 0. -1.
         21   -1    0    0  501  502  0.00000000000E+00 -0.00000000000E+00 -0.35366355042E+02  0.35366355042E+02  0.00000000000E+00 0. -1.
         24    2    1    2    0    0 -0.61450844193E+02  0.10471294264E+03  0.48020026065E+03  0.50149708565E+03  0.78524072558E+02 0.  0.
         23    2    1    2    0    0  0.77494480331E+02 -0.38156566994E+02  0.28862456978E+03  0.31378577559E+03  0.87727148545E+02 0.  0.
        -11    1    3    3    0    0 -0.33332824486E+02  0.61887249065E+02  0.13201482004E+03  0.14956276775E+03  0.00000000000E+00 0.  1.
         12    1    3    3    0    0 -0.28118019707E+02  0.42825693580E+02  0.34818544061E+03  0.35193431790E+03  0.00000000000E+00 0. -1.
        -13    1    4    4    0    0  0.16321654371E+02 -0.49054994005E+02  0.19254365711E+03  0.19936360935E+03  0.00000000000E+00 0.  1.
         13    1    4    4    0    0  0.61172825959E+02  0.10898427012E+02  0.96080912674E+02  0.11442216624E+03  0.00000000000E+00 0. -1.
          1    1    1    2  501    0 -0.16043636138E+02 -0.66556375651E+02  0.84406662954E+02  0.10868134224E+03  0.00000000000E+00 0. -1.
<scales pt_clust_5="13000.00000" pt_clust_6="13000.00000" pt_clust_7="13000.00000" pt_clust_8="13000.00000" pt_clust_9="68.46276"></scales>
<clustering>
<clus scale="   68.463">  2  9  1 -1</clus>
<clus scale="   78.524">  5  6 -1 -1</clus>
<clus scale="   87.727">  7  8 -1 -1</clus>
<clus scale="  128.087">  1  5  2 -1</clus>
<clus scale="   68.463">  2  5  1 -1</clus>
</clustering>
</event>
<event>
 9    2  0.5615294E-005  0.9341777E+02  0.7546771E-02  0.1300893E+00
         -3   -1    0    0    0  501 -0.00000000000E+00  0.00000000000E+00  0.28108379479E+03  0.28108379479E+03  0.00000000000E+00 0.  1.
         21   -1    0    0  501  502  0.00000000000E+00 -0.00000000000E+00 -0.63660514314E+02  0.63660514314E+02  0.00000000000E+00 0.  1.
         24    2    1    2    0    0  0.27218575476E+02  0.31761980809E+02  0.17554636744E+03  0.19676643221E+03  0.78427211136E+02 0.  0.
         23    2    1    2    0    0  0.69251380138E+01  0.54140550011E+01  0.38619150990E+02  0.97396617289E+02  0.88979732007E+02 0.  0.
        -13    1    3    3    0    0  0.20024250990E+02  0.57925946422E+02  0.11209337309E+03  0.12775488322E+03  0.00000000000E+00 0.  1.
         14    1    3    3    0    0  0.71943244856E+01 -0.26163965612E+02  0.63452994352E+02  0.69011548987E+02  0.00000000000E+00 0. -1.
        -13    1    4    4    0    0 -0.33371588448E+02 -0.20997198397E+02  0.27144840451E+02  0.47868440743E+02  0.00000000000E+00 0. -1.
         13    1    4    4    0    0  0.40296726462E+02  0.26411253398E+02  0.11474310539E+02  0.49528176546E+02  0.00000000000E+00 0.  1.
         -4    1    1    2    0  502 -0.34143713490E+02 -0.37176035811E+02  0.32577620405E+01  0.50581259602E+02  0.00000000000E+00 0.  1.
<scales pt_clust_5="13000.00000" pt_clust_6="13000.00000" pt_clust_7="13000.00000" pt_clust_8="13000.00000" pt_clust_9="50.47624"></scales>
<clustering>
<clus scale="   50.476">  2  9  1 -1</clus>
<clus scale="   78.427">  5  6 -1 -1</clus>
<clus scale="   83.428">  1  5  2 -1</clus>
<clus scale="   88.980">  7  8 -1 -1</clus>
<clus scale="   50.476">  2  5  1 -1</clus>
</clustering>
</event>
<event>
 9    2  0.5615294E-005  0.9407244E+02  0.7546771E-02  0.1298016E+00
          2   -1    0    0  502    0 -0.00000000000E+00  0.00000000000E+00  0.33762311105E+03  0.33762311105E+03  0.00000000000E+00 0. -1.
         21   -1    0    0  501  502  0.00000000000E+00 -0.00000000000E+00 -0.65972581959E+02  0.65972581959E+02  0.00000000000E+00 0.  1.
         23    2    1    2    0    0  0.18955991656E+02 -0.30769872296E+02  0.23782056565E+03  0.25684705265E+03  0.90031507538E+02 0.  0.
         24    2    1    2    0    0  0.28787835278E+02  0.13016169236E+02  0.38285070730E+02  0.95616312388E+02  0.81722533197E+02 0.  0.
        -11    1    4    4    0    0  0.30674030842E+02  0.67960056874E+01 -0.19821063888E+02  0.37147764873E+02  0.00000000000E+00 0.  1.
         12    1    4    4    0    0 -0.18861955635E+01  0.62201635491E+01  0.58106134618E+02  0.58468547515E+02  0.00000000000E+00 0. -1.
        -11    1    3    3    0    0 -0.31252232070E+02 -0.51067571181E+01  0.39281409662E+02  0.50456021669E+02  0.00000000000E+00 0.  1.
         11    1    3    3    0    0  0.50208223726E+02 -0.25663115178E+02  0.19853915598E+03  0.20639103098E+03  0.00000000000E+00 0. -1.
          1    1    1    2  501    0 -0.47743826934E+02  0.17753703060E+02 -0.44551072879E+01  0.51132327970E+02  0.00000000000E+00 0. -1.
<scales pt_clust_5="13000.00000" pt_clust_6="13000.00000" pt_clust_7="13000.00000" pt_clust_8="13000.00000" pt_clust_9="50.93787"></scales>
<clustering>
<clus scale="   50.938">  2  9  1 -1</clus>
<clus scale="   81.723">  5  6 -1 -1</clus>
<clus scale="   86.154">  2  5  1 -1</clus>
<clus scale="   90.032">  7  8 -1 -1</clus>
<clus scale="   50.938">  2  5  1 -1</clus>
</clustering>
</event>
<event>
 9    2  0.5615294E-005  0.9964964E+02  0.7546771E-02  0.1288243E+00
          4   -1    0    0  502    0 -0.00000000000E+00  0.00000000000E+00  0.16179614001E+03  0.16179614001E+03  0.00000000000E+00 0. -1.
         21   -1    0    0  501  502  0.00000000000E+00 -0.00000000000E+00 -0.14690791778E+03  0.14690791778E+03  0.00000000000E+00 0. -1.
         24    2    1    2    0    0  0.88775062335E+01  0.16847688006E+02 -0.35611773843E+02  0.88242543616E+02  0.78459501398E+02 0.  0.
         23    2    1    2    0    0 -0.57016420171E+02 -0.29355920821E+02 -0.38237587455E+02  0.11873556048E+03  0.92322142369E+02 0.  0.
        -11    1    3    3    0    0  0.38669486450E+02  0.28798858293E+02 -0.16923628921E+02  0.51099047321E+02  0.00000000000E+00 0.  1.
         12    1    3    3    0    0 -0.29791980216E+02 -0.11951170286E+02 -0.18688144922E+02  0.37143496296E+02  0.00000000000E+00 0. -1.
        -13    1    4    4    0    0 -0.77961088873E+02 -0.35945282147E+02 -0.43377467381E+02  0.96185234643E+02  0.00000000000E+00 0. -1.
         13    1    4    4    0    0  0.20944668702E+02  0.65893613251E+01  0.51398799261E+01  0.22550325837E+02  0.00000000000E+00 0.  1.
          3    1    1    2  501    0  0.48138913938E+02  0.12508232815E+02  0.88737583527E+02  0.10172595369E+03  0.00000000000E+00 0. -1.
<scales pt_clust_5="13000.00000" pt_clust_6="13000.00000" pt_clust_7="13000.00000" pt_clust_8="13000.00000" pt_clust_9="49.73744"></scales>
<clustering>
<clus scale="   49.737">  2  9  1 -1</clus>
<clus scale="   78.460">  5  6 -1 -1</clus>
<clus scale="   86.963">  1  5  2 -1</clus>
<clus scale="   92.322">  7  8 -1 -1</clus>
<clus scale="   49.737">  2  5  1 -1</clus>
</clustering>
</event>
<event>
 9    2  0.5615294E-005  0.1587451E+03  0.7546771E-02  0.1211807E+00
         21   -1    0    0  501  502  0.00000000000E+00  0.00000000000E+00  0.96429035906E+02  0.96429035906E+02  0.00000000000E+00 0. -1.
          2   -1    0    0  502    0 -0.00000000000E+00 -0.00000000000E+00 -0.59428434578E+03  0.59428434578E+03  0.00000000000E+00 0. -1.
         24    2    1    2    0    0 -0.44369809620E+02  0.38881783912E+02 -0.62944073510E+01  0.99387948600E+02  0.79736263000E+02 0.  0.
         23    2    1    2    0    0  0.91116271848E+02  0.86885427910E+02 -0.39924395913E+03  0.42846033143E+03  0.91275758703E+02 0.  0.
        -11    1    3    3    0    0 -0.26703095649E+02 -0.19277035906E+02  0.13309540826E+02  0.35521870834E+02  0.00000000000E+00 0.  1.
         12    1    3    3    0    0 -0.17666713970E+02  0.58158819818E+02 -0.19603948177E+02  0.63866077766E+02  0.00000000000E+00 0. -1.
        -13    1    4    4    0    0  0.78420204360E+02  0.16436503341E+02 -0.25731170838E+03  0.26949805632E+03  0.00000000000E+00 0. -1.
         13    1    4    4    0    0  0.12696067488E+02  0.70448924570E+02 -0.14193225075E+03  0.15896227510E+03  0.00000000000E+00 0.  1.
          1    1    1    2  501    0 -0.46746462229E+02 -0.12576721182E+03 -0.92316943392E+02  0.16286510166E+03  0.00000000000E+00 0. -1.
<scales pt_clust_5="13000.00000" pt_clust_6="13000.00000" pt_clust_7="13000.00000" pt_clust_8="13000.00000" pt_clust_9="129.87977"></scales>
<clustering>
<clus scale="   79.736">  5  6 -1 -1</clus>
<clus scale="   91.276">  7  8 -1 -1</clus>
<clus scale="   99.188">  2  5  1 -1</clus>
<clus scale="  129.880">  1  9  2 -1</clus>
<clus scale="  129.880">  1  5  2 -1</clus>
</clustering>
</event>
<event>
 9    2  0.5615294E-005  0.9379632E+02  0.7546771E-02  0.1295800E+00
          2   -1    0    0  502    0 -0.00000000000E+00  0.00000000000E+00  0.24935617709E+03  0.24935617709E+03  0.00000000000E+00 0. -1.
         21   -1    0    0  501  502  0.00000000000E+00 -0.00000000000E+00 -0.72162074167E+02  0.72162074167E+02  0.00000000000E+00 0. -1.
         24    2    1    2    0    0  0.59439979801E+02  0.20527359817E+02  0.10120623820E+03  0.14291901716E+03  0.78921854488E+02 0.  0.
         23    2    1    2    0    0 -0.86468599493E+01  0.37428394679E+01 -0.10830457524E+01  0.83158630371E+02  0.82616026187E+02 0.  0.
        -11    1    3    3    0    0  0.23280186677E+02  0.11475135283E+01 -0.92600560800E+01  0.25080520680E+02  0.00000000000E+00 0.  1.
         12    1    3    3    0    0  0.36159793124E+02  0.19379846289E+02  0.11046629428E+03  0.11783849648E+03  0.00000000000E+00 0. -1.
        -13    1    4    4    0    0  0.16339725149E+02  0.13076815142E+02  0.33490558148E+02  0.39491862419E+02  0.00000000000E+00 0.  1.
         13    1    4    4    0    0 -0.24986585099E+02 -0.93339756743E+01 -0.34573603901E+02  0.43666767953E+02  0.00000000000E+00 0. -1.
          1    1    1    2  501    0 -0.50793119852E+02 -0.24270199285E+02  0.77070910475E+02  0.95440603723E+02  0.00000000000E+00 0. -1.
<scales pt_clust_5="13000.00000" pt_clust_6="13000.00000" pt_clust_7="13000.00000" pt_clust_8="13000.00000" pt_clust_9="56.29375"></scales>
<clustering>
<clus scale="   56.294">  2  9  1 -1</clus>
<clus scale="   78.922">  5  6 -1 -1</clus>
<clus scale="   82.616">  7  8 -1 -1</clus>
<clus scale="   90.559">  1  5  2 -1</clus>
<clus scale="   56.294">  2  5  1 -1</clus>
</clustering>
</event>
<event>
 9    2  0.5615294E-005  0.9038176E+02  0.7546771E-02  0.1307738E+00
         21   -1    0    0  501  502  0.00000000000E+00  0.00000000000E+00  0.31891228435E+03  0.31891228435E+03  0.00000000000E+00 0.  1.
          4   -1    0    0  502    0 -0.00000000000E+00 -0.00000000000E+00 -0.49031721694E+02  0.49031721694E+02  0.00000000000E+00 0. -1.
         24    2    1    2    0    0 -0.59131832317E+01 -0.89697221508E+01  0.78116059814E+02  0.11305829190E+03  0.81022446978E+02 0.  0.
         23    2    1    2    0    0 -0.27683464233E+02 -0.28071079468E+02  0.17738621502E+03  0.20285215896E+03  0.90159688433E+02 0.  0.
        -13    1    3    3    0    0  0.19627111944E+02  0.29264718553E+02  0.40233720805E+02  0.53482703419E+02  0.00000000000E+00 0.  1.
         14    1    3    3    0    0 -0.25540295176E+02 -0.38234440704E+02  0.37882339010E+02  0.59575588477E+02  0.00000000000E+00 0. -1.
        -13    1    4    4    0    0  0.32111757221E+02 -0.14570826186E+02  0.46838882193E+02  0.58628958823E+02  0.00000000000E+00 0. -1.
         13    1    4    4    0    0 -0.59795221454E+02 -0.13500253281E+02  0.13054733283E+03  0.14422320013E+03  0.00000000000E+00 0.  1.
          3    1    1    2  501    0  0.33596647465E+02  0.37040801618E+02  0.14378287819E+02  0.52033555193E+02  0.00000000000E+00 0. -1.
<scales pt_clust_5="13000.00000" pt_clust_6="13000.00000" pt_clust_7="13000.00000" pt_clust_8="13000.00000" pt_clust_9="50.00758"></scales>
<clustering>
<clus scale="   50.008">  1  9  2 -1</clus>
<clus scale="   81.022">  5  6 -1 -1</clus>
<clus scale="   81.269">  2  5  1 -1</clus>
<clus scale="   90.160">  7  8 -1 -1</clus>
<clus scale="   50.008">  1  5  2 -1</clus>
</clustering>
</event>
<event>
 9    2  0.5615294E-005  0.1239545E+03  0.7546771E-02  0.1248495E+00
         21   -1    0    0  501  502  0.00000000000E+00  0.00000000000E+00  0.21229032993E+03  0.21229032993E+03  0.00000000000E+00 0. -1.
          2   -1    0    0  502    0 -0.00000000000E+00 -0.00000000000E+00 -0.17030442210E+03  0.17030442210E+03  0.00000000000E+00 0. -1.
         24    2    1    2    0    0  0.57195346321E+02  0.55176292374E+00 -0.87564388477E+02  0.13117827005E+03  0.79174518131E+02 0.  0.
         23    2    1    2    0    0  0.45691368798E+02 -0.27402832752E+02  0.42537839751E+02  0.11401988925E+03  0.91391744204E+02 0.  0.
        -13    1    3    3    0    0 -0.17368865528E+02  0.10881893700E+02 -0.90424040758E+01  0.22402191225E+02  0.00000000000E+00 0.  1.
         14    1    3    3    0    0  0.74564211849E+02 -0.10330130776E+02 -0.78521984401E+02  0.10877607883E+03  0.00000000000E+00 0. -1.
        -11    1    4    4    0    0  0.36197004171E+02 -0.65790673247E+01  0.69510541977E+02  0.78646186708E+02  0.00000000000E+00 0. -1.
         11    1    4    4    0    0  0.94943646272E+01 -0.20823765427E+02 -0.26972702226E+02  0.35373702543E+02  0.00000000000E+00 0.  1.
          1    1    1    2  501    0 -0.10288671512E+03  0.26851069828E+02  0.87012456555E+02  0.13739659273E+03  0.00000000000E+00 0. -1.
<scales pt_clust_5="13000.00000" pt_clust_6="13000.00000" pt_clust_7="13000.00000" pt_clust_8="13000.00000" pt_clust_9="83.73926"></scales>
<clustering>
<clus scale="   79.175">  5  6 -1 -1</clus>
<clus scale="   91.392">  7  8 -1 -1</clus>
<clus scale="   97.674">  2  5  1 -1</clus>
<clus scale="   83.739">  1  9  2 -1</clus>
<clus scale="   83.739">  1  5  2 -1</clus>
</clustering>
</event>
<event>
 9    2  0.5615294E-005  0.1138363E+03  0.7546771E-02  0.1257894E+00
         21   -1    0    0  501  502  0.00000000000E+00  0.00000000000E+00  0.14301819880E+03  0.14301819880E+03  0.00000000000E+00 0. -1.
          2   -1    0    0  502    0 -0.00000000000E+00 -0.00000000000E+00 -0.52339573269E+03  0.52339573269E+03  0.00000000000E+00 0. -1.
         24    2    1    2    0    0 -0.35681660816E+02 -0.60095531817E+02 -0.39186450514E+03  0.40614476314E+03  0.80691538417E+02 0.  0.
         23    2    1    2    0    0  0.40073468083E+02  0.40421226108E+02 -0.99665154965E+02  0.14730385759E+03  0.92333769456E+02 0.  0.
        -13    1    3    3    0    0 -0.72759581543E+01 -0.22421651940E+02 -0.18917123517E+02  0.30224619186E+02  0.00000000000E+00 0.  1.
         14    1    3    3    0    0 -0.28405702661E+02 -0.37673879877E+02 -0.37294738162E+03  0.37592014395E+03  0.00000000000E+00 0. -1.
        -13    1    4    4    0    0  0.44757470584E+02 -0.19133389810E+02 -0.47058214286E+02  0.67703717110E+02  0.00000000000E+00 0.  1.
         13    1    4    4    0    0 -0.46840025019E+01  0.59554615917E+02 -0.52606940679E+02  0.79600140478E+02  0.00000000000E+00 0. -1.
          1    1    1    2  501    0 -0.43918072670E+01  0.19674305709E+02  0.11115212621E+03  0.11296531077E+03  0.00000000000E+00 0. -1.
<scales pt_clust_5="13000.00000" pt_clust_6="13000.00000" pt_clust_7="13000.00000" pt_clust_8="13000.00000" pt_clust_9="20.15853"></scales>
<clustering>
<clus scale="   20.159">  1  9  2 -1</clus>
<clus scale="   80.692">  5  6 -1 -1</clus>
<clus scale="   92.334">  7  8 -1 -1</clus>
<clus scale="  104.615">  2  5  1 -1</clus>
<clus scale="   20.159">  1  5  2 -1</clus>
</clustering>
</event>
<event>
 9    2  0.5615294E-005  0.9811238E+02  0.7546771E-02  0.1290640E+00
         21   -1    0    0  501  502  0.00000000000E+00  0.00000000000E+00  0.76017497539E+02  0.76017497539E+02  0.00000000000E+00 0.  1.
          2   -1    0    0  502    0 -0.00000000000E+00 -0.00000000000E+00 -0.37323765477E+03  0.37323765477E+03  0.00000000000E+00 0. -1.
         23    2    1    2    0    0 -0.14956893486E+02 -0.28166897185E+02 -0.28763187935E+03  0.30379432017E+03  0.92421903212E+02 0.  0.
         24    2    1    2    0    0 -0.22427283670E+01  0.40685995246E+02 -0.47429257457E+02  0.10205006685E+03  0.80649250717E+02 0.  0.
        -13    1    4    4    0    0  0.34202938427E+02  0.24962109561E+02 -0.29657399972E+01  0.42446949531E+02  0.00000000000E+00 0.  1.
         14    1    4    4    0    0 -0.36445666794E+02  0.15723885686E+02 -0.44463517459E+02  0.59603117318E+02  0.00000000000E+00 0. -1.
        -13    1    3    3    0    0 -0.51136842049E+02 -0.54070886539E+01 -0.19681300141E+03  0.20341969115E+03  0.00000000000E+00 0.  1.
         13    1    3    3    0    0  0.36179948563E+02 -0.22759808531E+02 -0.90818877931E+02  0.10037462902E+03  0.00000000000E+00 0. -1.
          1    1    1    2  501    0  0.17199621853E+02 -0.12519098062E+02  0.37840979570E+02  0.43410765289E+02  0.00000000000E+00 0. -1.
<scales pt_clust_5="13000.00000" pt_clust_6="13000.00000" pt_clust_7="13000.00000" pt_clust_8="13000.00000" pt_clust_9="21.27334"></scales>
<clustering>
<clus scale="   21.273">  1  9  2 -1</clus>
<clus scale="   80.649">  5  6 -1 -1</clus>
<clus scale="   87.112">  1  5  2 -1</clus>
<clus scale="   92.422">  7  8 -1 -1</clus>
<clus scale="   21.273">  1  5  2 -1</clus>
</clustering>
</event>
<event>
 9    2  0.5615294E-005  0.1432331E+03  0.7546771E-02  0.1232054E+00
          2   -1    0    0  502    0 -0.00000000000E+00  0.00000000000E+00  0.14361638300E+03  0.14361638300E+03  0.00000000000E+00 0. -1.
         21   -1    0    0  501  502  0.00000000000E+00 -0.00000000000E+00 -0.48618344711E+03  0.48618344711E+03  0.00000000000E+00 0. -1.
         24    2    1    2    0    0  0.22015846877E+01 -0.35812965744E+02  0.41793321218E+02  0.97770943926E+02  0.80777845275E+02 0.  0.
         23    2    1    2    0    0 -0.75199724708E+02 -0.81669655377E+02 -0.36692479566E+03  0.39261979574E+03  0.84803108056E+02 0.  0.
        -13    1    3    3    0    0  0.27279975154E+02  0.17856706307E+01 -0.99283227979E+01  0.29085344378E+02  0.00000000000E+00 0.  1.
         14    1    3    3    0    0 -0.25078390466E+02 -0.37598636375E+02  0.51721644016E+02  0.68685599548E+02  0.00000000000E+00 0. -1.
        -11    1    4    4    0    0 -0.37382356660E+02 -0.87438524818E+02 -0.30817272555E+03  0.32251103079E+03  0.00000000000E+00 0. -1.
         11    1    4    4    0    0 -0.37817368049E+02  0.57688694403E+01 -0.58752070109E+02  0.70108764950E+02  0.00000000000E+00 0.  1.
          1    1    1    2  501    0  0.72998140021E+02  0.11748262112E+03 -0.17435589677E+02  0.13940909045E+03  0.00000000000E+00 0. -1.
<scales pt_clust_5="13000.00000" pt_clust_6="13000.00000" pt_clust_7="13000.00000" pt_clust_8="13000.00000" pt_clust_9="115.43040"></scales>
<clustering>
<clus scale="   80.778">  5  6 -1 -1</clus>
<clus scale="   84.803">  7  8 -1 -1</clus>
<clus scale="   88.388">  1  5  2 -1</clus>
<clus scale="  115.430">  2  9  1 -1</clus>
<clus scale="  115.430">  2  5  1 -1</clus>
</clustering>
</event>
<event>
 9    2  0.5615294E-005  0.9221707E+02  0.7546771E-02  0.1304276E+00
         21   -1    0    0  501  502  0.00000000000E+00  0.00000000000E+00  0.29969832309E+03  0.29969832309E+03  0.00000000000E+00 0. -1.
          4   -1    0    0  502    0 -0.00000000000E+00 -0.00000000000E+00 -0.11008014112E+03  0.11008014112E+03  0.00000000000E+00 0. -1.
         24    2    1    2    0    0  0.18084590038E+02  0.64294168266E+01 -0.35529130151E+02  0.90933511071E+02  0.81475116132E+02 0.  0.
         23    2    1    2    0    0  0.45574096639E+02  0.83159456926E+01  0.22062464891E+02  0.10550646791E+03  0.92188443836E+02 0.  0.
        -11    1    3    3    0    0  0.67145244787E+01 -0.37602264008E+02 -0.14962610228E+02  0.41023100837E+02  0.00000000000E+00 0.  1.
         12    1    3    3    0    0  0.11370065559E+02  0.44031680834E+02 -0.20566519923E+02  0.49910410233E+02  0.00000000000E+00 0. -1.
        -11    1    4    4    0    0  0.21937077071E+02  0.46007702312E+02  0.31646926693E+02  0.59995599768E+02  0.00000000000E+00 0.  1.
         11    1    4    4    0    0  0.23637019569E+02 -0.37691756620E+02 -0.95844618018E+01  0.45510868144E+02  0.00000000000E+00 0. -1.
          3    1    1    2  501    0 -0.63658686677E+02 -0.14745362519E+02  0.20308484723E+03  0.21333848523E+03  0.00000000000E+00 0. -1.
<scales pt_clust_5="13000.00000" pt_clust_6="13000.00000" pt_clust_7="13000.00000" pt_clust_8="13000.00000" pt_clust_9="65.34412"></scales>
<clustering>
<clus scale="   65.344">  1  9  2 -1</clus>
<clus scale="   81.475">  5  6 -1 -1</clus>
<clus scale="   81.508">  2  5  1 -1</clus>
<clus scale="   92.188">  7  8 -1 -1</clus>
<clus scale="   65.344">  1  5  2 -1</clus>
</clustering>
</event>
<event>
 9    2  0.5615294E-005  0.1157212E+03  0.7546771E-02  0.1258401E+00
         -1   -1    0    0    0  501 -0.00000000000E+00  0.00000000000E+00  0.11855970253E+04  0.11855970253E+04  0.00000000000E+00 0.  1.
         21   -1    0    0  501  502  0.00000000000E+00 -0.00000000000E+00 -0.22993036341E+02  0.22993036341E+02  0.00000000000E+00 0.  1.
         23    2    1    2    0    0  0.31271356476E+02 -0.19004131487E+02  0.19516620538E+03  0.21865734869E+03  0.91553993166E+02 0.  0.
         24    2    1    2    0    0  0.26078809714E+02 -0.64017075364E+02  0.42227215325E+03  0.43550767127E+03  0.81085572522E+02 0.  0.
        -13    1    4    4    0    0  0.54076979822E+02 -0.31107773464E+02  0.22014820892E+03  0.22881706056E+03  0.00000000000E+00 0.  1.
         14    1    4    4    0    0 -0.27998170108E+02 -0.32909301900E+02  0.20212394434E+03  0.20669061071E+03  0.00000000000E+00 0. -1.
        -11    1    3    3    0    0  0.36734928258E+02  0.24761727913E+02  0.49354004127E+02  0.66320553728E+02  0.00000000000E+00 0.  1.
         11    1    3    3    0    0 -0.54635717821E+01 -0.43765859399E+02  0.14581220125E+03  0.15233679496E+03  0.00000000000E+00 0. -1.
         -2    1    1    2    0  502 -0.57350166190E+02  0.83021206850E+02  0.54516563031E+03  0.55442504166E+03  0.00000000000E+00 0.  1.
<scales pt_clust_5="13000.00000" pt_clust_6="13000.00000" pt_clust_7="13000.00000" pt_clust_8="13000.00000" pt_clust_9="82.56223"></scales>
<clustering>
<clus scale="   81.086">  5  6 -1 -1</clus>
<clus scale="   91.554">  7  8 -1 -1</clus>
<clus scale="   98.596">  1  7  2 -1</clus>
<clus scale="   82.562">  2  9  1 -1</clus>
<clus scale="   82.562">  2  5  1 -1</clus>
</clustering>
</event>
<event>
 9    2  0.5615294E-005  0.2676126E+03  0.7546771E-02  0.1128594E+00
          2   -1    0    0  502    0 -0.00000000000E+00  0.00000000000E+00  0.20581316888E+04  0.20581316888E+04  0.00000000000E+00 0. -1.
         21   -1    0    0  501  502  0.00000000000E+00 -0.00000000000E+00 -0.57252136606E+02  0.57252136606E+02  0.00000000000E+00 0.  1.
         24    2    1    2    0    0 -0.10935197240E+03 -0.29087358743E+02  0.34956884643E+03  0.37624349346E+03  0.80974438371E+02 0.  0.
         23    2    1    2    0    0  0.29282314580E+03  0.28907244621E+02  0.63314280265E+03  0.70457395764E+03  0.94729244339E+02 0.  0.
        -13    1    3    3    0    0 -0.59038187809E+02 -0.38484489393E+02  0.10555248493E+03  0.12691686498E+03  0.00000000000E+00 0.  1.
         14    1    3    3    0    0 -0.50313784590E+02  0.93971306504E+01  0.24401636151E+03  0.24932662847E+03  0.00000000000E+00 0. -1.
        -13    1    4    4    0    0  0.56130147102E+02  0.44774406300E+02  0.13986469077E+03  0.15721791437E+03  0.00000000000E+00 0. -1.
         13    1    4    4    0    0  0.23669299870E+03 -0.15867161679E+02  0.49327811187E+03  0.54735604327E+03  0.00000000000E+00 0.  1.
          1    1    1    2  501    0 -0.18347117340E+03  0.18011412181E+00  0.10181679031E+04  0.10345663743E+04  0.00000000000E+00 0. -1.
<scales pt_clust_5="13000.00000" pt_clust_6="13000.00000" pt_clust_7="13000.00000" pt_clust_8="13000.00000" pt_clust_9="250.28569"></scales>
<clustering>
<clus scale="   80.974">  5  6 -1 -1</clus>
<clus scale="   94.729">  7  8 -1 -1</clus>
<clus scale="  139.143">  1  5  2 -1</clus>
<clus scale="  250.286">  2  9  1 -1</clus>
<clus scale="  250.286">  2  5  1 -1</clus>
</clustering>
</event>
<event>
 9    2  0.5615294E-005  0.1209976E+03  0.7546771E-02  0.1243897E+00
         -1   -1    0    0    0  501 -0.00000000000E+00  0.00000000000E+00  0.20153152157E+03  0.20153152157E+03  0.00000000000E+00 0.  1.
         21   -1    0    0  501  502  0.00000000000E+00 -0.00000000000E+00 -0.86104678663E+02  0.86104678663E+02  0.00000000000E+00 0. -1.
         24    2    1    2    0    0 -0.59213202280E+02 -0.68470878876E+02  0.63265089073E+02  0.13691908624E+03  0.80931453117E+02 0.  0.
         23    2    1    2    0    0  0.56092094527E+02  0.45594267354E+02  0.29584608111E+02  0.11842457341E+03  0.89016685322E+02 0.  0.
        -11    1    3    3    0    0 -0.64826735797E+02 -0.20681194651E+02  0.56264092950E+02  0.88294199367E+02  0.00000000000E+00 0.  1.
         12    1    3    3    0    0  0.56135335173E+01 -0.47789684225E+02  0.70009961220E+01  0.48624886875E+02  0.00000000000E+00 0. -1.
        -11    1    4    4    0    0  0.18534384531E+02  0.49636211152E+02 -0.19525637325E+02  0.56467046854E+02  0.00000000000E+00 0. -1.
         11    1    4    4    0    0  0.37557709996E+02 -0.40419437983E+01  0.49110245436E+02  0.61957526553E+02  0.00000000000E+00 0.  1.
         -2    1    1    2    0  502  0.31211077527E+01  0.22876611522E+02  0.22577145726E+02  0.32292540586E+02  0.00000000000E+00 0.  1.
<scales pt_clust_5="13000.00000" pt_clust_6="13000.00000" pt_clust_7="13000.00000" pt_clust_8="13000.00000" pt_clust_9="23.08855"></scales>
<clustering>
<clus scale="   23.089">  2  9  1 -1</clus>
<clus scale="   80.931">  5  6 -1 -1</clus>
<clus scale="   89.017">  7  8 -1 -1</clus>
<clus scale="  115.180">  1  5  2 -1</clus>
<clus scale="   23.089">  2  5  1 -1</clus>
</clustering>
</event>
<event>
 9    2  0.5615294E-005  0.1243435E+03  0.7546771E-02  0.1240454E+00
          2   -1    0    0  502    0 -0.00000000000E+00  0.00000000000E+00  0.10841793389E+03  0.10841793389E+03  0.00000000000E+00 0. -1.
         21   -1    0    0  501  502  0.00000000000E+00 -0.00000000000E+00 -0.21569757775E+03  0.21569757775E+03  0.00000000000E+00 0.  1.
         24    2    1    2    0    0  0.21490715250E+02  0.76523897427E+02 -0.57753426822E+01  0.11178560443E+03  0.78389470313E+02 0.  0.
         23    2    1    2    0    0  0.91203724309E+01 -0.89617147981E+02 -0.29245835381E+02  0.13277013234E+03  0.93049313532E+02 0.  0.
        -11    1    3    3    0    0  0.24829921362E+02  0.20802459905E+01 -0.24506676159E+02  0.34948956989E+02  0.00000000000E+00 0.  1.
         12    1    3    3    0    0 -0.33392061116E+01  0.74443651437E+02  0.18731333477E+02  0.76836647445E+02  0.00000000000E+00 0. -1.
        -13    1    4    4    0    0 -0.19711376038E+02 -0.11904454997E+02 -0.42971726911E+02  0.48752678981E+02  0.00000000000E+00 0.  1.
         13    1    4    4    0    0  0.28831748469E+02 -0.77712692984E+02  0.13725891530E+02  0.84017453359E+02  0.00000000000E+00 0. -1.
          1    1    1    2  501    0 -0.30611087681E+02  0.13093250554E+02 -0.72258465794E+02  0.79559774874E+02  0.00000000000E+00 0. -1.
<scales pt_clust_5="13000.00000" pt_clust_6="13000.00000" pt_clust_7="13000.00000" pt_clust_8="13000.00000" pt_clust_9="33.29372"></scales>
<clustering>
<clus scale="   33.294">  2  9  1 -1</clus>
<clus scale="   78.389">  5  6 -1 -1</clus>
<clus scale="   93.049">  7  8 -1 -1</clus>
<clus scale="  113.789">  1  5  2 -1</clus>
<clus scale="   33.294">  2  5  1 -1</clus>
</clustering>
</event>
<event>
 9    2  0.5615294E-005  0.1006919E+03  0.7546771E-02  0.1285479E+00
         -3   -1    0    0    0  501 -0.00000000000E+00  0.00000000000E+00  0.30962314814E+03  0.30962314814E+03  0.00000000000E+00 0.  1.
         21   -1    0    0  501  502  0.00000000000E+00 -0.00000000000E+00 -0.62371546710E+02  0.62371546710E+02  0.00000000000E+00 0.  1.
         24    2    1    2    0    0  0.30916835584E+02 -0.28414109424E+02  0.18497533149E+03  0.20562039971E+03  0.79376716852E+02 0.  0.
         23    2    1    2    0    0  0.11147026394E+02  0.51162109242E+02  0.46541200132E+02  0.11603114862E+03  0.92495008081E+02 0.  0.
        -13    1    3    3    0    0  0.45088413305E+02 -0.46189609248E+02  0.15574065168E+03  0.16858705645E+03  0.00000000000E+00 0.  1.
         14    1    3    3    0    0 -0.14171577721E+02  0.17775499824E+02  0.29234679814E+02  0.37033343259E+02  0.00000000000E+00 0. -1.
        -11    1    4    4    0    0 -0.19482525031E+02 -0.16478627731E+02  0.31032606031E+02  0.40176318778E+02  0.00000000000E+00 0. -1.
         11    1    4    4    0    0  0.30629551424E+02  0.67640736973E+02  0.15508594101E+02  0.75854829838E+02  0.00000000000E+00 0.  1.
         -4    1    1    2    0  502 -0.42063861978E+02 -0.22747999818E+02  0.15735069802E+02  0.50343146523E+02  0.00000000000E+00 0.  1.
<scales pt_clust_5="13000.00000" pt_clust_6="13000.00000" pt_clust_7="13000.00000" pt_clust_8="13000.00000" pt_clust_9="47.82092"></scales>
<clustering>
<clus scale="   47.821">  2  9  1 -1</clus>
<clus scale="   79.377">  5  6 -1 -1</clus>
<clus scale="   88.793">  1  5  2 -1</clus>
<clus scale="   92.495">  7  8 -1 -1</clus>
<clus scale="   47.821">  2  5  1 -1</clus>
</clustering>
</event>
<event>
 9    2  0.5615294E-005  0.2706418E+03  0.7546771E-02  0.1102074E+00
          2   -1    0    0  502    0 -0.00000000000E+00  0.00000000000E+00  0.29849846774E+03  0.29849846774E+03  0.00000000000E+00 0. -1.
         21   -1    0    0  501  502  0.00000000000E+00 -0.00000000000E+00 -0.84092563317E+03  0.84092563317E+03  0.00000000000E+00 0.  1.
         23    2    1    2    0    0  0.18099450472E+03 -0.18538802095E+03  0.24528403500E+02  0.28135464481E+03  0.10691615654E+03 0.  0.
         24    2    1    2    0    0 -0.18260927023E+03  0.88066705735E+02 -0.67664866903E+03  0.71141809377E+03  0.84619103132E+02 0.  0.
        -13    1    4    4    0    0 -0.14521149453E+03  0.39401694264E+02 -0.55675971567E+03  0.57673239258E+03  0.00000000000E+00 0.  1.
         14    1    4    4    0    0 -0.37397775705E+02  0.48665011472E+02 -0.11988895335E+03  0.13468570119E+03  0.00000000000E+00 0. -1.
        -13    1    3    3    0    0  0.17925578823E+03 -0.12197801728E+03  0.20661406182E+02  0.21780304869E+03  0.00000000000E+00 0.  1.
         13    1    3    3    0    0  0.17387164822E+01 -0.63410003673E+02  0.38669973180E+01  0.63551596117E+02  0.00000000000E+00 0. -1.
          1    1    1    2  501    0  0.16147655168E+01  0.97321315215E+02  0.10969310010E+03  0.14665136233E+03  0.00000000000E+00 0. -1.
<scales pt_clust_5="13000.00000" pt_clust_6="13000.00000" pt_clust_7="13000.00000" pt_clust_8="13000.00000" pt_clust_9="97.33476"></scales>
<clustering>
<clus scale="   84.619">  5  6 -1 -1</clus>
<clus scale="   97.335">  2  9  1 -1</clus>
<clus scale="  106.916">  7  8 -1 -1</clus>
<clus scale="  262.633">  2  5  1 -1</clus>
<clus scale="   97.335">  2  5  1 -1</clus>
</clustering>
</event>
<event>
 9    2  0.5615294E-005  0.8881686E+02  0.7546771E-02  0.1308114E+00
          2   -1    0    0  502    0 -0.00000000000E+00  0.00000000000E+00  0.28354093085E+03  0.28354093085E+03  0.00000000000E+00 0. -1.
         21   -1    0    0  501  502  0.00000000000E+00 -0.00000000000E+00 -0.50306567995E+02  0.50306567995E+02  0.00000000000E+00 0. -1.
         24    2    1    2    0    0 -0.21262307926E+02 -0.30943968656E+02  0.16550988323E+03  0.18822690056E+03  0.81401656714E+02 0.  0.
         23    2    1    2    0    0  0.30051768563E+01 -0.81532301359E+01  0.45059530614E+02  0.96880330511E+02  0.85322511046E+02 0.  0.
        -11    1    3    3    0    0 -0.41589258113E+02  0.10785555194E+02  0.86746360755E+02  0.96803541751E+02  0.00000000000E+00 0.  1.
         12    1    3    3    0    0  0.20326950187E+02 -0.41729523850E+02  0.78763522471E+02  0.91423358813E+02  0.00000000000E+00 0. -1.
        -13    1    4    4    0    0 -0.37632936380E+02 -0.15274259834E+02  0.79421506068E+01  0.41383797196E+02  0.00000000000E+00 0. -1.
         13    1    4    4    0    0  0.40638113237E+02  0.71210296984E+01  0.37117380008E+02  0.55496533315E+02  0.00000000000E+00 0.  1.
          1    1    1    2  501    0  0.18257131069E+02  0.39097198792E+02  0.22664949013E+02  0.48740267767E+02  0.00000000000E+00 0. -1.
<scales pt_clust_5="13000.00000" pt_clust_6="13000.00000" pt_clust_7="13000.00000" pt_clust_8="13000.00000" pt_clust_9="43.14990"></scales>
<clustering>
<clus scale="   43.150">  2  9  1 -1</clus>
<clus scale="   81.402">  5  6 -1 -1</clus>
<clus scale="   85.057">  1  5  2 -1</clus>
<clus scale="   85.323">  7  8 -1 -1</clus>
<clus scale="   43.150">  2  5  1 -1</clus>
</clustering>
</event>
<event>
 9    2  0.5615294E-005  0.9096439E+02  0.7546771E-02  0.1310025E+00
         21   -1    0    0  501  502  0.00000000000E+00  0.00000000000E+00  0.58997270231E+02  0.58997270231E+02  0.00000000000E+00 0.  1.
          2   -1    0    0  502    0 -0.00000000000E+00 -0.00000000000E+00 -0.29139321346E+03  0.29139321346E+03  0.00000000000E+00 0. -1.
         24    2    1    2    0    0  0.69971689814E+01 -0.28481020539E+01 -0.14834703576E+03  0.16590897459E+03  0.73904484111E+02 0.  0.
         23    2    1    2    0    0 -0.60550624053E+02 -0.12622286138E+01 -0.72149596436E+02  0.12946822915E+03  0.88817153737E+02 0.  0.
        -11    1    3    3    0    0 -0.32735070085E+02  0.63508196309E+01 -0.61333246812E+02  0.69811781870E+02  0.00000000000E+00 0.  1.
         12    1    3    3    0    0  0.39732239067E+02 -0.91989216848E+01 -0.87013788950E+02  0.96097192721E+02  0.00000000000E+00 0. -1.
        -11    1    4    4    0    0 -0.13340369132E+02  0.19726364581E+02 -0.74032595984E+02  0.77768375168E+02  0.00000000000E+00 0. -1.
         11    1    4    4    0    0 -0.47210254921E+02 -0.20988593195E+02  0.18829995478E+01  0.51699853978E+02  0.00000000000E+00 0.  1.
          1    1    1    2  501    0  0.53553455072E+02  0.41103306677E+01 -0.11899311033E+02  0.55013279955E+02  0.00000000000E+00 0. -1.
<scales pt_clust_5="13000.00000" pt_clust_6="13000.00000" pt_clust_7="13000.00000" pt_clust_8="13000.00000" pt_clust_9="53.71096"></scales>
<clustering>
<clus scale="   53.711">  1  9  2 -1</clus>
<clus scale="   73.904">  5  6 -1 -1</clus>
<clus scale="   76.472">  2  5  1 -1</clus>
<clus scale="   88.817">  7  8 -1 -1</clus>
<clus scale="   53.711">  1  5  2 -1</clus>
</clustering>
</event>
<event>
 9    2  0.5615294E-005  0.9134692E+02  0.7546771E-02  0.1305813E+00
         21   -1    0    0  501  502  0.00000000000E+00  0.00000000000E+00  0.88894813368E+02  0.88894813368E+02  0.00000000000E+00 0.  1.
         -1   -1    0    0    0  501 -0.00000000000E+00 -0.00000000000E+00 -0.15064443811E+03  0.15064443811E+03  0.00000000000E+00 0.  1.
         24    2    1    2    0    0  0.26544845273E+02  0.77238379944E+01 -0.32858344822E+02  0.90361819136E+02  0.79506610097E+02 0.  0.
         23    2    1    2    0    0  0.83889044881E+00  0.34440756543E+02 -0.21995205032E+02  0.98430236720E+02  0.89542464830E+02 0.  0.
        -13    1    3    3    0    0  0.49655167648E+02  0.69231368739E+01 -0.42092032384E+02  0.65462238646E+02  0.00000000000E+00 0.  1.
         14    1    3    3    0    0 -0.23110322375E+02  0.80070112044E+00  0.92336875623E+01  0.24899580490E+02  0.00000000000E+00 0. -1.
        -11    1    4    4    0    0 -0.20842042021E+02  0.51529106360E+02 -0.37228994040E+02  0.66900205643E+02  0.00000000000E+00 0.  1.
         11    1    4    4    0    0  0.21680932469E+02 -0.17088349817E+02  0.15233789007E+02  0.31530031077E+02  0.00000000000E+00 0. -1.
         -2    1    1    2    0  502 -0.27383735721E+02 -0.42164594537E+02 -0.68960748866E+01  0.50747195621E+02  0.00000000000E+00 0.  1.
<scales pt_clust_5="13000.00000" pt_clust_6="13000.00000" pt_clust_7="13000.00000" pt_clust_8="13000.00000" pt_clust_9="50.27646"></scales>
<clustering>
<clus scale="   50.276">  1  9  2 -1</clus>
<clus scale="   79.507">  5  6 -1 -1</clus>
<clus scale="   81.533">  2  5  1 -1</clus>
<clus scale="   89.542">  7  8 -1 -1</clus>
<clus scale="   50.276">  1  5  2 -1</clus>
</clustering>
</event>
<event>
 9    2  0.5615294E-005  0.1060571E+03  0.7546771E-02  0.1273664E+00
          2   -1    0    0  502    0 -0.00000000000E+00  0.00000000000E+00  0.27596683272E+02  0.27596683272E+02  0.00000000000E+00 0. -1.
         21   -1    0    0  501  502  0.00000000000E+00 -0.00000000000E+00 -0.53939946477E+03  0.53939946477E+03  0.00000000000E+00 0. -1.
         23    2    1    2    0    0 -0.13347949963E+02 -0.48275253629E+02 -0.14590686363E+03  0.17989783178E+03  0.92551332475E+02 0.  0.
         24    2    1    2    0    0 -0.63684218293E+01  0.56375679040E+02 -0.23680198079E+03  0.25625643918E+03  0.79833642855E+02 0.  0.
        -11    1    4    4    0    0 -0.13516262648E+02  0.33791382567E+02 -0.27493698378E+02  0.45611953940E+02  0.00000000000E+00 0.  1.
         12    1    4    4    0    0  0.71478408189E+01  0.22584296473E+02 -0.20930828241E+03  0.21064448524E+03  0.00000000000E+00 0. -1.
        -13    1    3    3    0    0  0.28950017431E+02  0.12216345805E+02 -0.43678156326E+02  0.53806356075E+02  0.00000000000E+00 0.  1.
         13    1    3    3    0    0 -0.42297967394E+02 -0.60491599435E+02 -0.10222870731E+03  0.12609147571E+03  0.00000000000E+00 0. -1.
          1    1    1    2  501    0  0.19716371793E+02 -0.81004254108E+01 -0.12909393707E+03  0.13084187708E+03  0.00000000000E+00 0. -1.
<scales pt_clust_5="13000.00000" pt_clust_6="13000.00000" pt_clust_7="13000.00000" pt_clust_8="13000.00000" pt_clust_9="21.31554"></scales>
<clustering>
<clus scale="   21.316">  2  9  1 -1</clus>
<clus scale="   79.834">  5  6 -1 -1</clus>
<clus scale="   92.551">  7  8 -1 -1</clus>
<clus scale="   95.162">  2  5  1 -1</clus>
<clus scale="   21.316">  2  5  1 -1</clus>
</clustering>
</event>
<event>
 9    2  0.5615294E-005  0.1034128E+03  0.7546771E-02  0.1280166E+00
         21   -1    0    0  501  502  0.00000000000E+00  0.00000000000E+00  0.32530823068E+03  0.32530823068E+03  0.00000000000E+00 0. -1.
          2   -1    0    0  502    0 -0.00000000000E+00 -0.00000000000E+00 -0.35392413657E+03  0.35392413657E+03  0.00000000000E+00 0. -1.
         24    2    1    2    0    0  0.54351302625E+02 -0.39839190282E+02 -0.33321012967E+03  0.34933622390E+03  0.80408840539E+02 0.  0.
         23    2    1    2    0    0 -0.33145449548E+02  0.39341310595E+01  0.11199911038E+03  0.13283843811E+03  0.63151814716E+02 0.  0.
        -11    1    3    3    0    0 -0.13899135677E+02 -0.23248563488E+02 -0.43585616233E+02  0.51316543329E+02  0.00000000000E+00 0.  1.
         12    1    3    3    0    0  0.68250438302E+02 -0.16590626794E+02 -0.28962451344E+03  0.29801968057E+03  0.00000000000E+00 0. -1.
        -13    1    4    4    0    0 -0.48060929403E+02 -0.11027360388E+02  0.67641216935E+02  0.83706569878E+02  0.00000000000E+00 0. -1.
         13    1    4    4    0    0  0.14915479855E+02  0.14961491447E+02  0.44357893440E+02  0.49131868233E+02  0.00000000000E+00 0.  1.
          1    1    1    2  501    0 -0.21205853076E+02  0.35905059223E+02  0.19259511341E+03  0.19705770524E+03  0.00000000000E+00 0. -1.
<scales pt_clust_5="13000.00000" pt_clust_6="13000.00000" pt_clust_7="13000.00000" pt_clust_8="13000.00000" pt_clust_9="41.69966"></scales>
<clustering>
<clus scale="   41.700">  1  9  2 -1</clus>
<clus scale="   63.152">  7  8 -1 -1</clus>
<clus scale="   80.409">  5  6 -1 -1</clus>
<clus scale="   90.646">  1  7  2 -1</clus>
<clus scale="   41.700">  1  5  2 -1</clus>
</clustering>
</event>
<event>
 9    2  0.5615294E-005  0.1486222E+03  0.7546771E-02  0.1223187E+00
         21   -1    0    0  501  502  0.00000000000E+00  0.00000000000E+00  0.10093369883E+03  0.10093369883E+03  0.00000000000E+00 0. -1.
          2   -1    0    0  502    0 -0.00000000000E+00 -0.00000000000E+00 -0.40989883877E+03  0.40989883877E+03  0.00000000000E+00 0. -1.
         23    2    1    2    0    0  0.41238186217E+01 -0.44100477879E+02 -0.16722988029E+03  0.19237126752E+03  0.84136874646E+02 0.  0.
         24    2    1    2    0    0  0.12147875459E+03  0.69391751404E+01 -0.39066698498E+02  0.15203470288E+03  0.82359601625E+02 0.  0.
        -11    1    4    4    0    0  0.36996457905E+02 -0.35680795967E+02 -0.21880898216E+02  0.55862606501E+02  0.00000000000E+00 0.  1.
         12    1    4    4    0    0  0.84482296689E+02  0.42619971108E+02 -0.17185800281E+02  0.96172096381E+02  0.00000000000E+00 0. -1.
        -11    1    3    3    0    0 -0.71120641256E+01  0.19944042875E+02 -0.84686205792E+02  0.87293182745E+02  0.00000000000E+00 0. -1.
         11    1    3    3    0    0  0.11235882747E+02 -0.64044520754E+02 -0.82543674499E+02  0.10507808477E+03  0.00000000000E+00 0.  1.
          1    1    1    2  501    0 -0.12560257321E+03  0.37161302739E+02 -0.10266856116E+03  0.16642656720E+03  0.00000000000E+00 0. -1.
<scales pt_clust_5="13000.00000" pt_clust_6="13000.00000" pt_clust_7="13000.00000" pt_clust_8="13000.00000" pt_clust_9="123.71523"></scales>
<clustering>
<clus scale="   82.360">  5  6 -1 -1</clus>
<clus scale="   84.137">  7  8 -1 -1</clus>
<clus scale="   95.083">  2  7  1 -1</clus>
<clus scale="  123.715">  1  9  2 -1</clus>
<clus scale="  123.715">  1  5  2 -1</clus>
</clustering>
</event>
<event>
 9    2  0.5615294E-005  0.2088530E+03  0.7546771E-02  0.1171988E+00
         21   -1    0    0  501  502  0.00000000000E+00  0.00000000000E+00  0.11092224158E+03  0.11092224158E+03  0.00000000000E+00 0. -1.
          2   -1    0    0  502    0 -0.00000000000E+00 -0.00000000000E+00 -0.61352681447E+03  0.61352681447E+03  0.00000000000E+00 0. -1.
         24    2    1    2    0    0 -0.62925022503E+02  0.85769733373E+01 -0.16364214906E+03  0.19427501376E+03  0.83252057586E+02 0.  0.
         23    2    1    2    0    0 -0.83412504610E+02  0.14773805960E+03 -0.14278809483E+03  0.23977185787E+03  0.91202651402E+02 0.  0.
        -13    1    3    3    0    0 -0.76513530124E+02  0.19297710046E+01 -0.16185913000E+03  0.17904307379E+03  0.00000000000E+00 0.  1.
         14    1    3    3    0    0  0.13588507622E+02  0.66472023327E+01 -0.17830190655E+01  0.15231939969E+02  0.00000000000E+00 0. -1.
        -13    1    4    4    0    0 -0.15583417579E+02  0.27761828274E+02 -0.84191628610E+02  0.90009956897E+02  0.00000000000E+00 0.  1.
         13    1    4    4    0    0 -0.67829087031E+02  0.11997623132E+03 -0.58596466223E+02  0.14976190098E+03  0.00000000000E+00 0. -1.
          1    1    1    2  501    0  0.14633752711E+03 -0.15631503294E+03 -0.19617432899E+03  0.29040218442E+03  0.00000000000E+00 0. -1.
<scales pt_clust_5="13000.00000" pt_clust_6="13000.00000" pt_clust_7="13000.00000" pt_clust_8="13000.00000" pt_clust_9="187.88739"></scales>
<clustering>
<clus scale="   83.252">  5  6 -1 -1</clus>
<clus scale="   91.203">  7  8 -1 -1</clus>
<clus scale="  104.709">  2  5  1 -1</clus>
<clus scale="  187.887">  1  9  2 -1</clus>
<clus scale="  187.887">  1  5  2 -1</clus>
</clustering>
</event>
<event>
 9    2  0.5615294E-005  0.3086914E+03  0.7546771E-02  0.1081328E+00
         21   -1    0    0  501  502  0.00000000000E+00  0.00000000000E+00  0.20064358588E+03  0.20064358588E+03  0.00000000000E+00 0.  1.
          2   -1    0    0  502    0 -0.00000000000E+00 -0.00000000000E+00 -0.18957239324E+04  0.18957239324E+04  0.00000000000E+00 0. -1.
         23    2    1    2    0    0  0.14648653519E+03 -0.28310562000E+03 -0.16522371979E+04  0.16851991885E+04  0.91659421980E+02 0.  0.
         24    2    1    2    0    0 -0.10873798434E+03  0.17512752761E+03 -0.13913334137E+03  0.26164902424E+03  0.81292835123E+02 0.  0.
        -11    1    4    4    0    0  0.32078389416E+01  0.63130487374E+02 -0.37873302150E+02  0.73689454350E+02  0.00000000000E+00 0.  1.
         12    1    4    4    0    0 -0.11194582328E+03  0.11199704023E+03 -0.10126003922E+03  0.18795956989E+03  0.00000000000E+00 0. -1.
        -13    1    3    3    0    0  0.13240706725E+03 -0.22588883672E+03 -0.14844818721E+04  0.15073963734E+04  0.00000000000E+00 0. -1.
         13    1    3    3    0    0  0.14079467941E+02 -0.57216783280E+02 -0.16775532584E+03  0.17780281509E+03  0.00000000000E+00 0.  1.
          1    1    1    2  501    0 -0.37748550845E+02  0.10797809240E+03  0.96290192727E+02  0.14951930559E+03  0.00000000000E+00 0. -1.
<scales pt_clust_5="13000.00000" pt_clust_6="13000.00000" pt_clust_7="13000.00000" pt_clust_8="13000.00000" pt_clust_9="114.38628"></scales>
<clustering>
<clus scale="   81.293">  5  6 -1 -1</clus>
<clus scale="   91.659">  7  8 -1 -1</clus>
<clus scale="  114.386">  1  9  2 -1</clus>
<clus scale="  305.774">  1  5  2 -1</clus>
<clus scale="  114.386">  1  5  2 -1</clus>
</clustering>
</event>
<event>
 9    2  0.5615294E-005  0.9761192E+02  0.7546771E-02  0.1290579E+00
         21   -1    0    0  501  502  0.00000000000E+00  0.00000000000E+00  0.79648654626E+02  0.79648654626E+02  0.00000000000E+00 0.  1.
          2   -1    0    0  502    0 -0.00000000000E+00 -0.00000000000E+00 -0.26798211122E+03  0.26798211122E+03  0.00000000000E+00 0. -1.
         23    2    1    2    0    0 -0.19270137640E+01 -0.42966951145E+02 -0.20888251422E+03  0.23144589131E+03  0.89918983466E+02 0.  0.
         24    2    1    2    0    0  0.12402254326E+02  0.13428752066E+02  0.21489897416E+02  0.84830113346E+02  0.80001157147E+02 0.  0.
        -13    1    4    4    0    0  0.41438344082E+02  0.26153285230E+02  0.54559846089E+01  0.49304142388E+02  0.00000000000E+00 0.  1.
         14    1    4    4    0    0 -0.29036089756E+02 -0.12724533163E+02  0.16033912807E+02  0.35525970958E+02  0.00000000000E+00 0. -1.
        -13    1    3    3    0    0  0.28277823932E+02 -0.51851333086E+02 -0.84193105330E+02  0.10284296308E+03  0.00000000000E+00 0. -1.
         13    1    3    3    0    0 -0.30204837696E+02  0.88843819409E+01 -0.12468940889E+03  0.12860292824E+03  0.00000000000E+00 0.  1.
          1    1    1    2  501    0 -0.10475240562E+02  0.29538199079E+02 -0.94083979494E+00  0.31354761188E+02  0.00000000000E+00 0. -1.
<scales pt_clust_5="13000.00000" pt_clust_6="13000.00000" pt_clust_7="13000.00000" pt_clust_8="13000.00000" pt_clust_9="31.34064"></scales>
<clustering>
<clus scale="   31.341">  1  9  2 -1</clus>
<clus scale="   80.001">  5  6 -1 -1</clus>
<clus scale="   88.560">  1  5  2 -1</clus>
<clus scale="   89.919">  7  8 -1 -1</clus>
<clus scale="   31.341">  1  5  2 -1</clus>
</clustering>
</event>
<event>
 9    2  0.5615294E-005  0.4225437E+03  0.7546771E-02  0.1072480E+00
          2   -1    0    0  502    0 -0.00000000000E+00  0.00000000000E+00  0.20502513270E+04  0.20502513270E+04  0.00000000000E+00 0. -1.
         21   -1    0    0  501  502  0.00000000000E+00 -0.00000000000E+00 -0.15470990641E+03  0.15470990641E+03  0.00000000000E+00 0. -1.
         24    2    1    2    0    0 -0.67067749165E+02  0.10805310797E+03  0.52396425868E+03  0.54543386825E+03  0.82377200390E+02 0.  0.
         23    2    1    2    0    0  0.15917251423E+03  0.35709066509E+03  0.34686401084E+03  0.53042194079E+03  0.90460825093E+02 0.  0.
        -11    1    3    3    0    0  0.40782929325E+01  0.59012041228E+02  0.14220386295E+03  0.15401620733E+03  0.00000000000E+00 0.  1.
         12    1    3    3    0    0 -0.71146042097E+02  0.49041066740E+02  0.38176039572E+03  0.39141766092E+03  0.00000000000E+00 0. -1.
        -11    1    4    4    0    0  0.74836219803E+02  0.71502687612E+02  0.90573466745E+02  0.13753780211E+03  0.00000000000E+00 0.  1.
         11    1    4    4    0    0  0.84336294426E+02  0.28558797748E+03  0.25629054410E+03  0.39288413869E+03  0.00000000000E+00 0. -1.
          1    1    1    2  501    0 -0.92104765065E+02 -0.46514377306E+03  0.10247131511E+04  0.11291054244E+04  0.00000000000E+00 0. -1.
<scales pt_clust_5="13000.00000" pt_clust_6="13000.00000" pt_clust_7="13000.00000" pt_clust_8="13000.00000" pt_clust_9="412.74709"></scales>
<clustering>
<clus scale="   82.377">  5  6 -1 -1</clus>
<clus scale="   90.461">  7  8 -1 -1</clus>
<clus scale="  151.524">  1  5  2 -1</clus>
<clus scale="  412.747">  2  9  1 -1</clus>
<clus scale="  412.747">  2  5  1 -1</clus>
</clustering>
</event>
<event>
 9    2  0.5615294E-005  0.9334265E+02  0.7546771E-02  0.1301219E+00
          2   -1    0    0  502    0 -0.00000000000E+00  0.00000000000E+00  0.31409324512E+03  0.31409324512E+03  0.00000000000E+00 0. -1.
         21   -1    0    0  501  502  0.00000000000E+00 -0.00000000000E+00 -0.88866785785E+02  0.88866785785E+02  0.00000000000E+00 0.  1.
         24    2    1    2    0    0 -0.45218385790E+01 -0.27930262976E+02  0.54872656545E+02  0.10187555518E+03  0.81037483260E+02 0.  0.
         23    2    1    2    0    0 -0.56968784231E+02 -0.24066808590E+02 -0.24340855724E+01  0.11045277188E+03  0.91483530711E+02 0.  0.
        -13    1    3    3    0    0 -0.14695463031E+02  0.26557035826E+02  0.21154679299E+02  0.36996665279E+02  0.00000000000E+00 0.  1.
         14    1    3    3    0    0  0.10173624452E+02 -0.54487298802E+02  0.33717977247E+02  0.64878889902E+02  0.00000000000E+00 0. -1.
        -11    1    4    4    0    0 -0.54783198850E+02  0.25721226701E+02  0.60891335259E+00  0.60523971736E+02  0.00000000000E+00 0.  1.
         11    1    4    4    0    0 -0.21855853817E+01 -0.49788035291E+02 -0.30429989250E+01  0.49928800147E+02  0.00000000000E+00 0. -1.
          1    1    1    2  501    0  0.61490622810E+02  0.51997071566E+02  0.17278788836E+03  0.19063170384E+03  0.00000000000E+00 0. -1.
<scales pt_clust_5="13000.00000" pt_clust_6="13000.00000" pt_clust_7="13000.00000" pt_clust_8="13000.00000" pt_clust_9="80.52825"></scales>
<clustering>
<clus scale="   80.528">  2  9  1 -1</clus>
<clus scale="   81.037">  5  6 -1 -1</clus>
<clus scale="   83.131">  1  5  2 -1</clus>
<clus scale="   91.484">  7  8 -1 -1</clus>
<clus scale="   80.528">  2  5  1 -1</clus>
</clustering>
</event>
<event>
 9    2  0.5615294E-005  0.1945888E+03  0.7546771E-02  0.1155344E+00
          4   -1    0    0  502    0 -0.00000000000E+00  0.00000000000E+00  0.18343676190E+03  0.18343676190E+03  0.00000000000E+00 0. -1.
         21   -1    0    0  501  502  0.00000000000E+00 -0.00000000000E+00 -0.32152159015E+03  0.32152159015E+03  0.00000000000E+00 0. -1.
         23    2    1    2    0    0  0.23976175859E+02  0.19307732713E+03  0.45711341189E+02  0.21909025768E+03  0.89762481241E+02 0.  0.
         24    2    1    2    0    0 -0.15633566812E+02 -0.12736256271E+03 -0.14279872399E+03  0.20796546334E+03  0.79953283700E+02 0.  0.
        -13    1    4    4    0    0  0.28650032881E+02 -0.58648216841E+02 -0.39726364613E+02  0.76410874672E+02  0.00000000000E+00 0.  1.
         14    1    4    4    0    0 -0.44283599693E+02 -0.68714345871E+02 -0.10307235938E+03  0.13155458866E+03  0.00000000000E+00 0. -1.
        -11    1    3    3    0    0 -0.28179888025E+01  0.15416993236E+03  0.12258308197E+01  0.15420055696E+03  0.00000000000E+00 0. -1.
         11    1    3    3    0    0  0.26794164661E+02  0.38907394770E+02  0.44485510369E+02  0.64889700727E+02  0.00000000000E+00 0.  1.
          3    1    1    2  501    0 -0.83426090465E+01 -0.65714764415E+02 -0.40997445449E+02  0.77902631029E+02  0.00000000000E+00 0. -1.
<scales pt_clust_5="13000.00000" pt_clust_6="13000.00000" pt_clust_7="13000.00000" pt_clust_8="13000.00000" pt_clust_9="66.24220"></scales>
<clustering>
<clus scale="   66.242">  2  9  1 -1</clus>
<clus scale="   79.953">  5  6 -1 -1</clus>
<clus scale="   89.762">  7  8 -1 -1</clus>
<clus scale="  190.263">  2  5  1 -1</clus>
<clus scale="   66.242">  2  5  1 -1</clus>
</clustering>
</event>
<event>
 9    2  0.5615294E-005  0.1223281E+03  0.7546771E-02  0.1242132E+00
         21   -1    0    0  501  502  0.00000000000E+00  0.00000000000E+00  0.38429627992E+03  0.38429627992E+03  0.00000000000E+00 0. -1.
          2   -1    0    0  502    0 -0.00000000000E+00 -0.00000000000E+00 -0.23373096989E+03  0.23373096989E+03  0.00000000000E+00 0. -1.
         24    2    1    2    0    0  0.41658642935E+02  0.82737156248E+02 -0.16379864294E+03  0.20434269992E+03  0.79655910164E+02 0.  0.
         23    2    1    2    0    0 -0.41513020905E+02 -0.42686211339E+02  0.11188338304E+02  0.10787488242E+03  0.89254511368E+02 0.  0.
        -13    1    3    3    0    0  0.57425752950E+02  0.31770825834E+02 -0.66824223899E+02  0.93662048749E+02  0.00000000000E+00 0.  1.
         14    1    3    3    0    0 -0.15767110015E+02  0.50966330414E+02 -0.96974419043E+02  0.11068065117E+03  0.00000000000E+00 0. -1.
        -13    1    4    4    0    0  0.26905556339E+02 -0.24700747803E+02  0.26936582087E+01  0.36623649442E+02  0.00000000000E+00 0.  1.
         13    1    4    4    0    0 -0.68418577244E+02 -0.17985463536E+02  0.84946800957E+01  0.71251232976E+02  0.00000000000E+00 0. -1.
          1    1    1    2  501    0 -0.14562202998E+00 -0.40050944909E+02  0.30317561467E+03  0.30580966748E+03  0.00000000000E+00 0. -1.
<scales pt_clust_5="13000.00000" pt_clust_6="13000.00000" pt_clust_7="13000.00000" pt_clust_8="13000.00000" pt_clust_9="40.05121"></scales>
<clustering>
<clus scale="   40.051">  1  9  2 -1</clus>
<clus scale="   79.656">  5  6 -1 -1</clus>
<clus scale="   89.255">  7  8 -1 -1</clus>
<clus scale="  115.511">  2  5  1 -1</clus>
<clus scale="   40.051">  1  5  2 -1</clus>
</clustering>
</event>
<event>
 9    2  0.5615294E-005  0.2157987E+03  0.7546771E-02  0.1173741E+00
         21   -1    0    0  501  502  0.00000000000E+00  0.00000000000E+00  0.52605347719E+02  0.52605347719E+02  0.00000000000E+00 0. -1.
          2   -1    0    0  502    0 -0.00000000000E+00 -0.00000000000E+00 -0.14071047018E+04  0.14071047018E+04  0.00000000000E+00 0. -1.
         24    2    1    2    0    0 -0.23594507158E+02 -0.21952082062E+02 -0.23763342897E+03  0.25453644640E+03  0.85326205279E+02 0.  0.
         23    2    1    2    0    0 -0.17159959678E+03 -0.70915987734E+02 -0.33453839051E+03  0.39353231043E+03  0.92066528650E+02 0.  0.
        -11    1    3    3    0    0  0.27848536380E+02 -0.24244307187E+02 -0.13126372499E+03  0.13635795873E+03  0.00000000000E+00 0.  1.
         12    1    3    3    0    0 -0.51443043538E+02  0.22922251258E+01 -0.10636970398E+03  0.11817848768E+03  0.00000000000E+00 0. -1.
        -13    1    4    4    0    0 -0.11704017929E+03 -0.35825182429E+00 -0.20891723822E+03  0.23946804450E+03  0.00000000000E+00 0. -1.
         13    1    4    4    0    0 -0.54559417488E+02 -0.70557735910E+02 -0.12562115229E+03  0.15406426593E+03  0.00000000000E+00 0.  1.
          1    1    1    2  501    0  0.19519410394E+03  0.92868069795E+02 -0.78232753456E+03  0.81164129265E+03  0.00000000000E+00 0. -1.
<scales pt_clust_5="13000.00000" pt_clust_6="13000.00000" pt_clust_7="13000.00000" pt_clust_8="13000.00000" pt_clust_9="195.17394"></scales>
<clustering>
<clus scale="   85.326">  5  6 -1 -1</clus>
<clus scale="   91.209">  2  5  1 -1</clus>
<clus scale="   92.067">  7  8 -1 -1</clus>
<clus scale="  195.174">  1  9  2 -1</clus>
<clus scale="  195.174">  1  5  2 -1</clus>
</clustering>
</event>
<event>
 9    2  0.5615294E-005  0.9578968E+02  0.7546771E-02  0.1294891E+00
          2   -1    0    0  502    0 -0.00000000000E+00  0.00000000000E+00  0.61021843876E+03  0.61021843876E+03  0.00000000000E+00 0. -1.
         21   -1    0    0  501  502  0.00000000000E+00 -0.00000000000E+00 -0.37951370654E+02  0.37951370654E+02  0.00000000000E+00 0.  1.
         23    2    1    2    0    0  0.18641884624E+02  0.32322874211E+02  0.29310656283E+03  0.30894970964E+03  0.90256179007E+02 0.  0.
         24    2    1    2    0    0  0.59280703877E+02 -0.31162310046E+02  0.10385276864E+03  0.14737099441E+03  0.80296457076E+02 0.  0.
        -13    1    4    4    0    0  0.74838229580E+02 -0.29285485643E+02  0.58539657591E+02  0.99424804686E+02  0.00000000000E+00 0.  1.
         14    1    4    4    0    0 -0.15557525703E+02 -0.18768244028E+01  0.45313111051E+02  0.47946189723E+02  0.00000000000E+00 0. -1.
        -11    1    3    3    0    0  0.85263324935E+01  0.59752215687E+02  0.13110517603E+03  0.14433153782E+03  0.00000000000E+00 0. -1.
         11    1    3    3    0    0  0.10115552131E+02 -0.27429341476E+02  0.16200138680E+03  0.16461817182E+03  0.00000000000E+00 0.  1.
          1    1    1    2  501    0 -0.77922588502E+02 -0.11605641659E+01  0.17530773663E+03  0.19184910537E+03  0.00000000000E+00 0. -1.
<scales pt_clust_5="13000.00000" pt_clust_6="13000.00000" pt_clust_7="13000.00000" pt_clust_8="13000.00000" pt_clust_9="77.93127"></scales>
<clustering>
<clus scale="   77.931">  2  9  1 -1</clus>
<clus scale="   80.296">  5  6 -1 -1</clus>
<clus scale="   86.470">  2  5  1 -1</clus>
<clus scale="   90.256">  7  8 -1 -1</clus>
<clus scale="   77.931">  2  5  1 -1</clus>
</clustering>
</event>
<event>
 9    2  0.5615294E-005  0.2018771E+03  0.7546771E-02  0.1149273E+00
         21   -1    0    0  501  502  0.00000000000E+00  0.00000000000E+00  0.29405448924E+02  0.29405448924E+02  0.00000000000E+00 0. -1.
          2   -1    0    0  502    0 -0.00000000000E+00 -0.00000000000E+00 -0.27099725374E+04  0.27099725374E+04  0.00000000000E+00 0. -1.
         24    2    1    2    0    0 -0.11131579348E+03  0.80173560466E+02 -0.73988296720E+03  0.75678214395E+03  0.80457458178E+02 0.  0.
         23    2    1    2    0    0  0.14896065607E+03 -0.20810813764E+03 -0.13055592881E+04  0.13336213087E+04  0.92533594450E+02 0.  0.
        -13    1    3    3    0    0 -0.28167568296E+02  0.27582984217E+01 -0.48717399439E+02  0.56341859412E+02  0.00000000000E+00 0.  1.
         14    1    3    3    0    0 -0.83148225187E+02  0.77415262044E+02 -0.69116556776E+03  0.70044028454E+03  0.00000000000E+00 0. -1.
        -13    1    4    4    0    0  0.13250678089E+03 -0.16995756837E+03 -0.12152826733E+04  0.12342429251E+04  0.00000000000E+00 0.  1.
         13    1    4    4    0    0  0.16453875184E+02 -0.38150569263E+02 -0.90276614809E+02  0.99378383591E+02  0.00000000000E+00 0. -1.
          1    1    1    2  501    0 -0.37644862588E+02  0.12793457717E+03 -0.63512483313E+03  0.64897453369E+03  0.00000000000E+00 0. -1.
<scales pt_clust_5="13000.00000" pt_clust_6="13000.00000" pt_clust_7="13000.00000" pt_clust_8="13000.00000" pt_clust_9="133.35820"></scales>
<clustering>
<clus scale="   80.457">  5  6 -1 -1</clus>
<clus scale="   92.534">  7  8 -1 -1</clus>
<clus scale="  133.358">  1  9  2 -1</clus>
<clus scale="  196.635">  2  5  1 -1</clus>
<clus scale="  133.358">  1  5  2 -1</clus>
</clustering>
</event>
<event>
 9    2  0.5615294E-005  0.9626167E+02  0.7546771E-02  0.1294858E+00
         21   -1    0    0  501  502  0.00000000000E+00  0.00000000000E+00  0.11065326977E+03  0.11065326977E+03  0.00000000000E+00 0. -1.
          2   -1    0    0  502    0 -0.00000000000E+00 -0.00000000000E+00 -0.42094206583E+03  0.42094206583E+03  0.00000000000E+00 0. -1.
         24    2    1    2    0    0  0.40054872044E+02  0.83117066289E+01 -0.30089154740E+03  0.31392278146E+03  0.79613517589E+02 0.  0.
         23    2    1    2    0    0 -0.43480087576E+00  0.33349694738E+01 -0.89282870182E+02  0.12774420693E+03  0.91300823781E+02 0.  0.
        -11    1    3    3    0    0  0.51273691269E+02 -0.17829586782E+02 -0.13322760341E+03  0.14386271196E+03  0.00000000000E+00 0.  1.
         12    1    3    3    0    0 -0.11218819225E+02  0.26141293411E+02 -0.16766394399E+03  0.17006006951E+03  0.00000000000E+00 0. -1.
        -13    1    4    4    0    0 -0.41544050005E+02  0.63920247129E+01 -0.71304965926E+02  0.82771759897E+02  0.00000000000E+00 0. -1.
         13    1    4    4    0    0  0.41109249129E+02 -0.30570552391E+01 -0.17977904256E+02  0.44972447033E+02  0.00000000000E+00 0.  1.
          1    1    1    2  501    0 -0.39620071168E+02 -0.11646676103E+02  0.79885621525E+02  0.89928347199E+02  0.00000000000E+00 0. -1.
<scales pt_clust_5="13000.00000" pt_clust_6="13000.00000" pt_clust_7="13000.00000" pt_clust_8="13000.00000" pt_clust_9="41.29643"></scales>
<clustering>
<clus scale="   41.296">  1  9  2 -1</clus>
<clus scale="   79.614">  5  6 -1 -1</clus>
<clus scale="   85.257">  2  5  1 -1</clus>
<clus scale="   91.301">  7  8 -1 -1</clus>
<clus scale="   41.296">  1  5  2 -1</clus>
</clustering>
</event>
<event>
 9    2  0.5615294E-005  0.3320749E+03  0.7546771E-02  0.1097737E+00
         21   -1    0    0  501  502  0.00000000000E+00  0.00000000000E+00  0.54024955904E+03  0.54024955904E+03  0.00000000000E+00 0. -1.
          2   -1    0    0  502    0 -0.00000000000E+00 -0.00000000000E+00 -0.65896855062E+03  0.65896855062E+03  0.00000000000E+00 0. -1.
         24    2    1    2    0    0  0.10144505003E+03  0.93064965776E+02 -0.77865024909E+02  0.17714136875E+03  0.79774158642E+02 0.  0.
         23    2    1    2    0    0  0.78022352242E+02  0.18939432072E+03 -0.44454452560E+03  0.49771249310E+03  0.90223025773E+02 0.  0.
        -13    1    3    3    0    0  0.94040757750E+02  0.35152083080E+02 -0.54691527135E+02  0.11432627084E+03  0.00000000000E+00 0.  1.
         14    1    3    3    0    0  0.74042922791E+01  0.57912882697E+02 -0.23173497773E+02  0.62815097910E+02  0.00000000000E+00 0. -1.
        -11    1    4    4    0    0 -0.18101719772E+02  0.50236241116E+02 -0.85103957495E+02  0.10046907863E+03  0.00000000000E+00 0.  1.
         11    1    4    4    0    0  0.96124072015E+02  0.13915807960E+03 -0.35944056811E+03  0.39724341447E+03  0.00000000000E+00 0. -1.
          1    1    1    2  501    0 -0.17946740227E+03 -0.28245928649E+03  0.40369055894E+03  0.52436424781E+03  0.00000000000E+00 0. -1.
<scales pt_clust_5="13000.00000" pt_clust_6="13000.00000" pt_clust_7="13000.00000" pt_clust_8="13000.00000" pt_clust_9="319.58336"></scales>
<clustering>
<clus scale="   79.774">  5  6 -1 -1</clus>
<clus scale="   90.223">  7  8 -1 -1</clus>
<clus scale="  159.110">  2  5  1 -1</clus>
<clus scale="  319.583">  1  9  2 -1</clus>
<clus scale="  319.583">  1  5  2 -1</clus>
</clustering>
</event>
<event>
 9    2  0.5615294E-005  0.1409298E+03  0.7546771E-02  0.1232015E+00
         21   -1    0    0  501  502  0.00000000000E+00  0.00000000000E+00  0.79246588811E+02  0.79246588811E+02  0.00000000000E+00 0.  1.
         -1   -1    0    0    0  501 -0.00000000000E+00 -0.00000000000E+00 -0.53590538936E+03  0.53590538936E+03  0.00000000000E+00 0.  1.
         24    2    1    2    0    0 -0.33645013175E+02 -0.33878082971E+02 -0.16425508100E+03  0.18869025207E+03  0.79652797654E+02 0.  0.
         23    2    1    2    0    0 -0.76449264601E+02 -0.26855045048E+01 -0.28713816333E+03  0.31033519162E+03  0.89486894712E+02 0.  0.
        -11    1    3    3    0    0  0.15794221407E+02 -0.36659348964E+02 -0.48673761462E+02  0.62948394349E+02  0.00000000000E+00 0.  1.
         12    1    3    3    0    0 -0.49439234582E+02  0.27812659932E+01 -0.11558131954E+03  0.12574185772E+03  0.00000000000E+00 0. -1.
        -13    1    4    4    0    0 -0.50719449701E+02  0.19494351110E+02 -0.26326840150E+03  0.26881730512E+03  0.00000000000E+00 0.  1.
         13    1    4    4    0    0 -0.25729814900E+02 -0.22179855615E+02 -0.23869761836E+02  0.41517886507E+02  0.00000000000E+00 0. -1.
         -2    1    1    2    0  502  0.11009427778E+03  0.36563587476E+02 -0.52655562172E+01  0.11612653448E+03  0.00000000000E+00 0.  1.
<scales pt_clust_5="13000.00000" pt_clust_6="13000.00000" pt_clust_7="13000.00000" pt_clust_8="13000.00000" pt_clust_9="108.87286"></scales>
<clustering>
<clus scale="   79.653">  5  6 -1 -1</clus>
<clus scale="   89.487">  7  8 -1 -1</clus>
<clus scale="   92.867">  2  5  1 -1</clus>
<clus scale="  108.873">  1  9  2 -1</clus>
<clus scale="  108.873">  1  5  2 -1</clus>
</clustering>
</event>
<event>
 9    2  0.5615294E-005  0.1280989E+03  0.7546771E-02  0.1233075E+00
          2   -1    0    0  502    0 -0.00000000000E+00  0.00000000000E+00  0.15878105950E+03  0.15878105950E+03  0.00000000000E+00 0. -1.
         21   -1    0    0  501  502  0.00000000000E+00 -0.00000000000E+00 -0.22957777726E+03  0.22957777726E+03  0.00000000000E+00 0.  1.
         24    2    1    2    0    0  0.93237976346E+02  0.24918217916E+02  0.93790715223E+02  0.15682307772E+03  0.80514232440E+02 0.  0.
         23    2    1    2    0    0 -0.49436612256E+02 -0.41231039035E+02 -0.13951664082E+03  0.17849603573E+03  0.90840324164E+02 0.  0.
        -13    1    3    3    0    0  0.22171403527E+02  0.15279346060E+01 -0.13514361696E+02  0.26010453487E+02  0.00000000000E+00 0.  1.
         14    1    3    3    0    0  0.71066572819E+02  0.23390283310E+02  0.10730507692E+03  0.13081262423E+03  0.00000000000E+00 0. -1.
        -13    1    4    4    0    0 -0.39445721261E+02  0.13266397736E+02 -0.18788886052E+02  0.45661630214E+02  0.00000000000E+00 0. -1.
         13    1    4    4    0    0 -0.99908909943E+01 -0.54497436771E+02 -0.12072775477E+03  0.13283440552E+03  0.00000000000E+00 0.  1.
          1    1    1    2  501    0 -0.43801364091E+02  0.16312821118E+02 -0.25070792167E+02  0.53039723311E+02  0.00000000000E+00 0. -1.
<scales pt_clust_5="13000.00000" pt_clust_6="13000.00000" pt_clust_7="13000.00000" pt_clust_8="13000.00000" pt_clust_9="46.74043"></scales>
<clustering>
<clus scale="   46.740">  2  9  1 -1</clus>
<clus scale="   80.514">  5  6 -1 -1</clus>
<clus scale="   90.840">  7  8 -1 -1</clus>
<clus scale="  120.995">  1  5  2 -1</clus>
<clus scale="   46.740">  2  5  1 -1</clus>
</clustering>
</event>
<event>
 9    2  0.5615294E-005  0.9163146E+02  0.7546771E-02  0.1301419E+00
         21   -1    0    0  501  502  0.00000000000E+00  0.00000000000E+00  0.52581702311E+03  0.52581702311E+03  0.00000000000E+00 0.  1.
          2   -1    0    0  502    0 -0.00000000000E+00 -0.00000000000E+00 -0.42291620742E+02  0.42291620742E+02  0.00000000000E+00 0. -1.
         24    2    1    2    0    0 -0.13589526862E+02 -0.11792832451E+02  0.30873212726E+02  0.92767350195E+02  0.85608877230E+02 0.  0.
         23    2    1    2    0    0 -0.10673852142E+02  0.32861963807E+02  0.21515983130E+03  0.23568478920E+03  0.89775982709E+02 0.  0.
        -11    1    3    3    0    0  0.17042138024E+02  0.30606932145E+02  0.14968627940E+02  0.38095650489E+02  0.00000000000E+00 0.  1.
         12    1    3    3    0    0 -0.30631664887E+02 -0.42399764596E+02  0.15904584787E+02  0.54671699706E+02  0.00000000000E+00 0. -1.
        -13    1    4    4    0    0  0.18347494660E+02  0.87154253642E+01  0.34109320303E+01  0.20596690436E+02  0.00000000000E+00 0. -1.
         13    1    4    4    0    0 -0.29021346802E+02  0.24146538443E+02  0.21174889927E+03  0.21508809877E+03  0.00000000000E+00 0.  1.
          1    1    1    2  501    0  0.24263379004E+02 -0.21069131357E+02  0.23749235834E+03  0.23965650446E+03  0.00000000000E+00 0. -1.
<scales pt_clust_5="13000.00000" pt_clust_6="13000.00000" pt_clust_7="13000.00000" pt_clust_8="13000.00000" pt_clust_9="32.13440"></scales>
<clustering>
<clus scale="   32.134">  1  9  2 -1</clus>
<clus scale="   85.609">  5  6 -1 -1</clus>
<clus scale="   87.553">  2  5  1 -1</clus>
<clus scale="   89.776">  7  8 -1 -1</clus>
<clus scale="   32.134">  1  5  2 -1</clus>
</clustering>
</event>
<event>
 9    2  0.5615294E-005  0.1277226E+03  0.7546771E-02  0.1233872E+00
          2   -1    0    0  502    0 -0.00000000000E+00  0.00000000000E+00  0.79772562610E+03  0.79772562610E+03  0.00000000000E+00 0. -1.
         21   -1    0    0  501  502  0.00000000000E+00 -0.00000000000E+00 -0.38425824206E+02  0.38425824206E+02  0.00000000000E+00 0. -1.
         24    2    1    2    0    0  0.25273835394E+02  0.11142801075E+03  0.42831779602E+03  0.45056558808E+03  0.80611701603E+02 0.  0.
         23    2    1    2    0    0 -0.67809439525E+01 -0.39423635336E+02  0.93979172376E+02  0.13719713423E+03  0.91601116674E+02 0.  0.
        -11    1    3    3    0    0 -0.11280077807E+02  0.53841482145E+02  0.90316294849E+02  0.10575054832E+03  0.00000000000E+00 0.  1.
         12    1    3    3    0    0  0.36553913201E+02  0.57586528603E+02  0.33800150117E+03  0.34481503976E+03  0.00000000000E+00 0. -1.
        -13    1    4    4    0    0  0.40169503465E+02 -0.63982064043E+01  0.52317871067E+02  0.66269794679E+02  0.00000000000E+00 0.  1.
         13    1    4    4    0    0 -0.46950447417E+02 -0.33025428931E+02  0.41661301309E+02  0.70927339549E+02  0.00000000000E+00 0. -1.
          1    1    1    2  501    0 -0.18492891441E+02 -0.72004375413E+02  0.23700283349E+03  0.24838872800E+03  0.00000000000E+00 0. -1.
<scales pt_clust_5="13000.00000" pt_clust_6="13000.00000" pt_clust_7="13000.00000" pt_clust_8="13000.00000" pt_clust_9="74.34126"></scales>
<clustering>
<clus scale="   74.341">  2  9  1 -1</clus>
<clus scale="   80.612">  5  6 -1 -1</clus>
<clus scale="   91.601">  7  8 -1 -1</clus>
<clus scale="  120.086">  1  5  2 -1</clus>
<clus scale="   74.341">  2  5  1 -1</clus>
</clustering>
</event>
<event>
 9    2  0.5615294E-005  0.9906139E+02  0.7546771E-02  0.1286193E+00
         -1   -1    0    0    0  501 -0.00000000000E+00  0.00000000000E+00  0.27771148340E+03  0.27771148340E+03  0.00000000000E+00 0.  1.
         21   -1    0    0  501  502  0.00000000000E+00 -0.00000000000E+00 -0.90011906920E+02  0.90011906920E+02  0.00000000000E+00 0. -1.
         24    2    1    2    0    0 -0.15074039274E+02  0.38576781433E+02  0.21721158218E+03  0.23657906778E+03  0.84103443169E+02 0.  0.
         23    2    1    2    0    0  0.77534620479E+01 -0.15563652408E+02 -0.51173444861E+00  0.93405606466E+02  0.91771466138E+02 0.  0.
        -11    1    3    3    0    0 -0.10825131512E+02  0.62464198582E+02  0.18910819032E+03  0.19945141570E+03  0.00000000000E+00 0.  1.
         12    1    3    3    0    0 -0.42489077622E+01 -0.23887417149E+02  0.28103391855E+02  0.37127652080E+02  0.00000000000E+00 0. -1.
        -11    1    4    4    0    0 -0.11465850435E+02  0.34348479973E+02 -0.13014028039E+02  0.38479198646E+02  0.00000000000E+00 0.  1.
         11    1    4    4    0    0  0.19219312483E+02 -0.49912132381E+02  0.12502293590E+02  0.54926407821E+02  0.00000000000E+00 0. -1.
         -2    1    1    2    0  502  0.73205772262E+01 -0.23013129024E+02 -0.29000271249E+02  0.37738716075E+02  0.00000000000E+00 0.  1.
<scales pt_clust_5="13000.00000" pt_clust_6="13000.00000" pt_clust_7="13000.00000" pt_clust_8="13000.00000" pt_clust_9="24.14943"></scales>
<clustering>
<clus scale="   24.149">  2  9  1 -1</clus>
<clus scale="   84.103">  5  6 -1 -1</clus>
<clus scale="   91.771">  7  8 -1 -1</clus>
<clus scale="   92.003">  1  5  2 -1</clus>
<clus scale="   24.149">  2  5  1 -1</clus>
</clustering>
</event>
<event>
 9    2  0.5615294E-005  0.1140754E+03  0.7546771E-02  0.1256718E+00
          2   -1    0    0  502    0 -0.00000000000E+00  0.00000000000E+00  0.22687394077E+03  0.22687394077E+03  0.00000000000E+00 0. -1.
         21   -1    0    0  501  502  0.00000000000E+00 -0.00000000000E+00 -0.11216705597E+03  0.11216705597E+03  0.00000000000E+00 0. -1.
         24    2    1    2    0    0  0.97269488770E+01  0.89653063943E+02  0.35700681475E+02  0.12724781629E+03  0.82372220344E+02 0.  0.
         23    2    1    2    0    0 -0.24890639900E+02 -0.34346276914E+02 -0.14194950694E+02  0.10236177122E+03  0.92071846342E+02 0.  0.
        -13    1    3    3    0    0  0.25486103534E+02  0.11785953877E+02  0.38619421757E+02  0.47748402266E+02  0.00000000000E+00 0.  1.
         14    1    3    3    0    0 -0.15759154657E+02  0.77867110067E+02 -0.29187402821E+01  0.79499414026E+02  0.00000000000E+00 0. -1.
        -13    1    4    4    0    0 -0.45303950028E+02  0.78586619150E+01 -0.27565177310E+02  0.53610124560E+02  0.00000000000E+00 0.  1.
         13    1    4    4    0    0  0.20413310128E+02 -0.42204938829E+02  0.13370226616E+02  0.48751646656E+02  0.00000000000E+00 0. -1.
          1    1    1    2  501    0  0.15163691023E+02 -0.55306787029E+02  0.93201154021E+02  0.10943140924E+03  0.00000000000E+00 0. -1.
<scales pt_clust_5="13000.00000" pt_clust_6="13000.00000" pt_clust_7="13000.00000" pt_clust_8="13000.00000" pt_clust_9="57.34790"></scales>
<clustering>
<clus scale="   57.348">  2  9  1 -1</clus>
<clus scale="   82.372">  5  6 -1 -1</clus>
<clus scale="   92.072">  7  8 -1 -1</clus>
<clus scale="  106.401">  1  5  2 -1</clus>
<clus scale="   57.348">  2  5  1 -1</clus>
</clustering>
</event>
<event>
 9    2  0.5615294E-005  0.9498568E+02  0.7546771E-02  0.1296063E+00
          2   -1    0    0  502    0 -0.00000000000E+00  0.00000000000E+00  0.52504499592E+03  0.52504499592E+03  0.00000000000E+00 0. -1.
         21   -1    0    0  501  502  0.00000000000E+00 -0.00000000000E+00 -0.28489818086E+02  0.28489818086E+02  0.00000000000E+00 0.  1.
         23    2    1    2    0    0  0.28849915566E+02 -0.51858958433E+01  0.28776300702E+03  0.30254547355E+03  0.88696134141E+02 0.  0.
         24    2    1    2    0    0 -0.24607957865E+02  0.46173303058E+02  0.16662523607E+03  0.19203162560E+03  0.79841407994E+02 0.  0.
        -13    1    4    4    0    0  0.50481147362E+01  0.58309521036E+02  0.76107275713E+02  0.96009380388E+02  0.00000000000E+00 0.  1.
         14    1    4    4    0    0 -0.29656072601E+02 -0.12136217978E+02  0.90517960357E+02  0.96022245215E+02  0.00000000000E+00 0. -1.
        -13    1    3    3    0    0 -0.28716779977E+02  0.72727631835E+00  0.15617195294E+03  0.15879188036E+03  0.00000000000E+00 0.  1.
         13    1    3    3    0    0  0.57566695543E+02 -0.59131721617E+01  0.13159105408E+03  0.14375359319E+03  0.00000000000E+00 0. -1.
          1    1    1    2  501    0 -0.42419577012E+01 -0.40987407215E+02  0.42166934744E+02  0.58957714856E+02  0.00000000000E+00 0. -1.
<scales pt_clust_5="13000.00000" pt_clust_6="13000.00000" pt_clust_7="13000.00000" pt_clust_8="13000.00000" pt_clust_9="41.20633"></scales>
<clustering>
<clus scale="   41.206">  2  9  1 -1</clus>
<clus scale="   79.841">  5  6 -1 -1</clus>
<clus scale="   86.775">  2  5  1 -1</clus>
<clus scale="   88.696">  7  8 -1 -1</clus>
<clus scale="   41.206">  2  5  1 -1</clus>
</clustering>
</event>
<event>
 9    2  0.5615294E-005  0.3346014E+03  0.7546771E-02  0.1069119E+00
         -3   -1    0    0    0  501 -0.00000000000E+00  0.00000000000E+00  0.50985085830E+03  0.50985085830E+03  0.00000000000E+00 0.  1.
         21   -1    0    0  501  502  0.00000000000E+00 -0.00000000000E+00 -0.21601497242E+03  0.21601497242E+03  0.00000000000E+00 0.  1.
         24    2    1    2    0    0 -0.76866573859E+02  0.14363657150E+02  0.80473986081E+02  0.13872123744E+03  0.81564296467E+02 0.  0.
         23    2    1    2    0    0 -0.17846794564E+03 -0.85220406368E+02  0.23516722566E+03  0.32126516948E+03  0.93778248096E+02 0.  0.
        -11    1    3    3    0    0 -0.55026550502E+02  0.42883906137E+02  0.74921275422E+02  0.10237259485E+03  0.00000000000E+00 0.  1.
         12    1    3    3    0    0 -0.21840023357E+02 -0.28520248987E+02  0.55527106585E+01  0.36348642590E+02  0.00000000000E+00 0. -1.
        -13    1    4    4    0    0 -0.17282106437E+03 -0.48055397187E+02  0.17696243008E+03  0.25197647341E+03  0.00000000000E+00 0.  1.
         13    1    4    4    0    0 -0.56468812641E+01 -0.37165009181E+02  0.58204795583E+02  0.69288696079E+02  0.00000000000E+00 0. -1.
         -4    1    1    2    0  502  0.25533451950E+03  0.70856749218E+02 -0.21805325867E+02  0.26587942379E+03  0.00000000000E+00 0.  1.
<scales pt_clust_5="13000.00000" pt_clust_6="13000.00000" pt_clust_7="13000.00000" pt_clust_8="13000.00000" pt_clust_9="264.98377"></scales>
<clustering>
<clus scale="   81.564">  5  6 -1 -1</clus>
<clus scale="   93.778">  7  8 -1 -1</clus>
<clus scale="  106.947">  5  7 -1 -1</clus>
<clus scale="  264.984">  2  9  1 -1</clus>
<clus scale="  264.984">  2  5  1 -1</clus>
</clustering>
</event>
<event>
 9    2  0.5615294E-005  0.1183519E+03  0.7546771E-02  0.1249291E+00
          2   -1    0    0  502    0 -0.00000000000E+00  0.00000000000E+00  0.72479901746E+02  0.72479901746E+02  0.00000000000E+00 0. -1.
         21   -1    0    0  501  502  0.00000000000E+00 -0.00000000000E+00 -0.51401696457E+03  0.51401696457E+03  0.00000000000E+00 0.  1.
         24    2    1    2    0    0 -0.17204237302E+02 -0.10002040686E+03 -0.38668336243E+02  0.13524265340E+03  0.80593222434E+02 0.  0.
         23    2    1    2    0    0 -0.37986498639E+02  0.30812765352E+02 -0.14128118420E+03  0.17509527805E+03  0.91134970227E+02 0.  0.
        -13    1    3    3    0    0  0.25035533711E+02 -0.21638832716E+02 -0.31873892823E+02  0.45945207293E+02  0.00000000000E+00 0.  1.
         14    1    3    3    0    0 -0.42239771013E+02 -0.78381574142E+02 -0.67944434195E+01  0.89297446109E+02  0.00000000000E+00 0. -1.
        -13    1    4    4    0    0 -0.67218237346E+02  0.30661122690E+02 -0.10722821643E+03  0.13021630572E+03  0.00000000000E+00 0.  1.
         13    1    4    4    0    0  0.29231738707E+02  0.15164266150E+00 -0.34052967768E+02  0.44878972327E+02  0.00000000000E+00 0. -1.
          1    1    1    2  501    0  0.55190735941E+02  0.69207641506E+02 -0.26158754239E+03  0.27615893487E+03  0.00000000000E+00 0. -1.
<scales pt_clust_5="13000.00000" pt_clust_6="13000.00000" pt_clust_7="13000.00000" pt_clust_8="13000.00000" pt_clust_9="88.51957"></scales>
<clustering>
<clus scale="   80.593">  5  6 -1 -1</clus>
<clus scale="   88.520">  2  9  1 -1</clus>
<clus scale="   91.135">  7  8 -1 -1</clus>
<clus scale="  110.439">  1  5  2 -1</clus>
<clus scale="   88.520">  2  5  1 -1</clus>
</clustering>
</event>
<event>
 9    2  0.5615294E-005  0.1922763E+03  0.7546771E-02  0.1164865E+00
         21   -1    0    0  501  502  0.00000000000E+00  0.00000000000E+00  0.75678992817E+02  0.75678992817E+02  0.00000000000E+00 0.  1.
          2   -1    0    0  502    0 -0.00000000000E+00 -0.00000000000E+00 -0.17505439095E+04  0.17505439095E+04  0.00000000000E+00 0. -1.
         24    2    1    2    0    0 -0.12996935379E+03  0.26117494483E+02 -0.60212869981E+03  0.62251653875E+03  0.85986704993E+02 0.  0.
         23    2    1    2    0    0 -0.13774301746E+03  0.59676271942E+02 -0.12547564327E+03  0.21561068076E+03  0.90605917642E+02 0.  0.
        -11    1    3    3    0    0 -0.10280899627E+03  0.51662403854E+02 -0.51584517003E+03  0.52852145948E+03  0.00000000000E+00 0.  1.
         12    1    3    3    0    0 -0.27160357519E+02 -0.25544909371E+02 -0.86283529786E+02  0.93995079274E+02  0.00000000000E+00 0. -1.
        -13    1    4    4    0    0 -0.63973137442E+02  0.94876200286E+01 -0.38766994599E+01  0.64788934600E+02  0.00000000000E+00 0.  1.
         13    1    4    4    0    0 -0.73769880022E+02  0.50188651913E+02 -0.12159894381E+03  0.15082174616E+03  0.00000000000E+00 0. -1.
          1    1    1    2  501    0  0.26771237125E+03 -0.85793766425E+02 -0.94726057357E+03  0.98809568277E+03  0.00000000000E+00 0. -1.
<scales pt_clust_5="13000.00000" pt_clust_6="13000.00000" pt_clust_7="13000.00000" pt_clust_8="13000.00000" pt_clust_9="169.58996"></scales>
<clustering>
<clus scale="   85.987">  5  6 -1 -1</clus>
<clus scale="   90.606">  7  8 -1 -1</clus>
<clus scale="  158.012">  2  5  1 -1</clus>
<clus scale="  169.590">  1  9  2 -1</clus>
<clus scale="  169.590">  1  5  2 -1</clus>
</clustering>
</event>
<event>
 9    2  0.5615294E-005  0.1101334E+03  0.7546771E-02  0.1263821E+00
          2   -1    0    0  502    0 -0.00000000000E+00  0.00000000000E+00  0.30653142842E+03  0.30653142842E+03  0.00000000000E+00 0. -1.
         21   -1    0    0  501  502  0.00000000000E+00 -0.00000000000E+00 -0.21292123457E+03  0.21292123457E+03  0.00000000000E+00 0. -1.
         23    2    1    2    0    0 -0.57376179549E+02  0.32618415674E+02  0.13259537056E+03  0.17371542257E+03  0.90771849858E+02 0.  0.
         24    2    1    2    0    0  0.67694199980E+02  0.47751736338E+02  0.12007106528E+03  0.16723034701E+03  0.81769158067E+02 0.  0.
        -13    1    4    4    0    0  0.10868816175E+02  0.52571052892E+02  0.32586702949E+02  0.62799203628E+02  0.00000000000E+00 0.  1.
         14    1    4    4    0    0  0.56825383805E+02 -0.48193165538E+01  0.87484362329E+02  0.10443114338E+03  0.00000000000E+00 0. -1.
        -11    1    3    3    0    0 -0.13534600836E+01 -0.28455018635E+02  0.24995509721E+02  0.37898488702E+02  0.00000000000E+00 0.  1.
         11    1    3    3    0    0 -0.56022719465E+02  0.61073434310E+02  0.10759986084E+03  0.13581693387E+03  0.00000000000E+00 0. -1.
          1    1    1    2  501    0 -0.10318020431E+02 -0.80370152013E+02 -0.15905624198E+03  0.17850689340E+03  0.00000000000E+00 0. -1.
<scales pt_clust_5="13000.00000" pt_clust_6="13000.00000" pt_clust_7="13000.00000" pt_clust_8="13000.00000" pt_clust_9="81.02977"></scales>
<clustering>
<clus scale="   81.030">  2  9  1 -1</clus>
<clus scale="   81.769">  5  6 -1 -1</clus>
<clus scale="   90.772">  7  8 -1 -1</clus>
<clus scale="  102.840">  2  5  1 -1</clus>
<clus scale="   81.030">  2  5  1 -1</clus>
</clustering>
</event>
<event>
 9    2  0.5615294E-005  0.9115109E+02  0.7546771E-02  0.1304761E+00
          2   -1    0    0  502    0 -0.00000000000E+00  0.00000000000E+00  0.10485521002E+03  0.10485521002E+03  0.00000000000E+00 0. -1.
         21   -1    0    0  501  502  0.00000000000E+00 -0.00000000000E+00 -0.22510296847E+03  0.22510296847E+03  0.00000000000E+00 0.  1.
         24    2    1    2    0    0 -0.79311105095E+00  0.22338223907E+02  0.98253082893E+01  0.84155391063E+02  0.80535507011E+02 0.  0.
         23    2    1    2    0    0 -0.59295903713E+02 -0.10546369957E+02 -0.14748403607E+03  0.18214055869E+03  0.88297293887E+02 0.  0.
        -11    1    3    3    0    0 -0.24108647194E+02  0.37828168943E+02  0.25978453296E+02  0.51837026060E+02  0.00000000000E+00 0.  1.
         12    1    3    3    0    0  0.23315536143E+02 -0.15489945036E+02 -0.16153145007E+02  0.32318365003E+02  0.00000000000E+00 0. -1.
        -13    1    4    4    0    0 -0.57290967892E+02 -0.44191050522E+02 -0.11071956676E+03  0.13226460755E+03  0.00000000000E+00 0.  1.
         13    1    4    4    0    0 -0.20049358210E+01  0.33644680565E+02 -0.36764469314E+02  0.49875951138E+02  0.00000000000E+00 0. -1.
          1    1    1    2  501    0  0.60089014764E+02 -0.11791853949E+02  0.17410969330E+02  0.63662228738E+02  0.00000000000E+00 0. -1.
<scales pt_clust_5="13000.00000" pt_clust_6="13000.00000" pt_clust_7="13000.00000" pt_clust_8="13000.00000" pt_clust_9="61.23513"></scales>
<clustering>
<clus scale="   61.235">  2  9  1 -1</clus>
<clus scale="   80.536">  5  6 -1 -1</clus>
<clus scale="   83.655">  1  5  2 -1</clus>
<clus scale="   88.297">  7  8 -1 -1</clus>
<clus scale="   61.235">  2  5  1 -1</clus>
</clustering>
</event>
<event>
 9    2  0.5615294E-005  0.1283540E+03  0.7546771E-02  0.1233504E+00
         -1   -1    0    0    0  501 -0.00000000000E+00  0.00000000000E+00  0.29910986254E+03  0.29910986254E+03  0.00000000000E+00 0.  1.
         21   -1    0    0  501  502  0.00000000000E+00 -0.00000000000E+00 -0.14489352154E+03  0.14489352154E+03  0.00000000000E+00 0.  1.
         23    2    1    2    0    0  0.52086817530E+02  0.74338383759E+02  0.22566248655E+03  0.25994946499E+03  0.91711147904E+02 0.  0.
         24    2    1    2    0    0 -0.80776938272E+02 -0.43989229341E+02 -0.74822712055E+02  0.14215409328E+03  0.78417995021E+02 0.  0.
        -11    1    4    4    0    0 -0.94625658767E+02 -0.26002228092E+02 -0.62093750845E+02  0.11612822679E+03  0.00000000000E+00 0.  1.
         12    1    4    4    0    0  0.13848720496E+02 -0.17987001249E+02 -0.12728961210E+02  0.26025866494E+02  0.00000000000E+00 0. -1.
        -11    1    3    3    0    0  0.19373342016E+02 -0.16879538375E+02  0.87465827083E+02  0.91162032140E+02  0.00000000000E+00 0. -1.
         11    1    3    3    0    0  0.32713475514E+02  0.91217922134E+02  0.13819665947E+03  0.16878743285E+03  0.00000000000E+00 0.  1.
         -2    1    1    2    0  502  0.28690120741E+02 -0.30349154418E+02  0.33765665009E+01  0.41899825816E+02  0.00000000000E+00 0.  1.
<scales pt_clust_5="13000.00000" pt_clust_6="13000.00000" pt_clust_7="13000.00000" pt_clust_8="13000.00000" pt_clust_9="41.76355"></scales>
<clustering>
<clus scale="   41.764">  2  9  1 -1</clus>
<clus scale="   78.418">  5  6 -1 -1</clus>
<clus scale="   91.711">  7  8 -1 -1</clus>
<clus scale="  119.219">  2  5  1 -1</clus>
<clus scale="   41.764">  2  5  1 -1</clus>
</clustering>
</event>
<event>
 9    2  0.5615294E-005  0.4215364E+03  0.7546771E-02  0.1053999E+00
         21   -1    0    0  501  502  0.00000000000E+00  0.00000000000E+00  0.20485020364E+03  0.20485020364E+03  0.00000000000E+00 0. -1.
          2   -1    0    0  502    0 -0.00000000000E+00 -0.00000000000E+00 -0.21260298544E+04  0.21260298544E+04  0.00000000000E+00 0. -1.
         24    2    1    2    0    0 -0.18092555700E+03 -0.16241658941E+03 -0.41264534383E+02  0.25848270097E+03  0.77442489731E+02 0.  0.
         23    2    1    2    0    0  0.10935518419E+03 -0.32115746278E+03 -0.10726598302E+04  0.11286668451E+04  0.90493445006E+02 0.  0.
        -13    1    3    3    0    0 -0.11285399084E+03 -0.53200625981E+02 -0.35250932767E+02  0.12964936604E+03  0.00000000000E+00 0.  1.
         14    1    3    3    0    0 -0.68071566158E+02 -0.10921596343E+03 -0.60136016159E+01  0.12883333494E+03  0.00000000000E+00 0. -1.
        -11    1    4    4    0    0  0.97333297730E+02 -0.14555305284E+03 -0.53969255476E+03  0.56738656637E+03  0.00000000000E+00 0.  1.
         11    1    4    4    0    0  0.12021886461E+02 -0.17560440995E+03 -0.53296727549E+03  0.56128027873E+03  0.00000000000E+00 0. -1.
          1    1    1    2  501    0  0.71570372804E+02  0.48357405219E+03 -0.80725528611E+03  0.94373051194E+03  0.00000000000E+00 0. -1.
<scales pt_clust_5="13000.00000" pt_clust_6="13000.00000" pt_clust_7="13000.00000" pt_clust_8="13000.00000" pt_clust_9="411.70844"></scales>
<clustering>
<clus scale="   77.442">  5  6 -1 -1</clus>
<clus scale="   90.493">  7  8 -1 -1</clus>
<clus scale="  255.168">  2  5  1 -1</clus>
<clus scale="  411.708">  1  9  2 -1</clus>
<clus scale="  411.708">  1  5  2 -1</clus>
</clustering>
</event>
<event>
 9    2  0.5615294E-005  0.1023381E+03  0.7546771E-02  0.1282156E+00
         21   -1    0    0  501  502  0.00000000000E+00  0.00000000000E+00  0.81340857885E+03  0.81340857885E+03  0.00000000000E+00 0.  1.
         -3   -1    0    0    0  501 -0.00000000000E+00 -0.00000000000E+00 -0.21554622620E+02  0.21554622620E+02  0.00000000000E+00 0.  1.
         23    2    1    2    0    0  0.53939574885E+02 -0.40134399920E+02  0.37875417342E+03  0.39534274783E+03  0.91219058232E+02 0.  0.
         24    2    1    2    0    0 -0.13117181514E+02  0.25117058254E+02  0.36755725955E+03  0.37664339610E+03  0.77194440943E+02 0.  0.
        -13    1    4    4    0    0  0.24057793841E+02  0.34256459557E+02  0.14943809879E+03  0.15519029556E+03  0.00000000000E+00 0.  1.
         14    1    4    4    0    0 -0.37174975355E+02 -0.91394013038E+01  0.21811916075E+03  0.22145310054E+03  0.00000000000E+00 0. -1.
        -13    1    3    3    0    0  0.70244270273E+02 -0.31439250500E+01  0.19773848734E+03  0.20986817564E+03  0.00000000000E+00 0. -1.
         13    1    3    3    0    0 -0.16304695389E+02 -0.36990474869E+02  0.18101568608E+03  0.18547457219E+03  0.00000000000E+00 0.  1.
         -4    1    1    2    0  502 -0.40822393370E+02  0.15017341666E+02  0.45542523262E+02  0.62977057539E+02  0.00000000000E+00 0.  1.
<scales pt_clust_5="13000.00000" pt_clust_6="13000.00000" pt_clust_7="13000.00000" pt_clust_8="13000.00000" pt_clust_9="43.49701"></scales>
<clustering>
<clus scale="   43.497">  1  9  2 -1</clus>
<clus scale="   77.194">  5  6 -1 -1</clus>
<clus scale="   90.062">  1  5  2 -1</clus>
<clus scale="   91.219">  7  8 -1 -1</clus>
<clus scale="   43.497">  1  5  2 -1</clus>
</clustering>
</event>
<event>
 9    2  0.5615294E-005  0.1283975E+03  0.7546771E-02  0.1237927E+00
         -1   -1    0    0    0  501 -0.00000000000E+00  0.00000000000E+00  0.10159327224E+04  0.10159327224E+04  0.00000000000E+00 0.  1.
         21   -1    0    0  501  502  0.00000000000E+00 -0.00000000000E+00 -0.34323116792E+02  0.34323116792E+02  0.00000000000E+00 0.  1.
         24    2    1    2    0    0 -0.32618779856E+01  0.68830981664E+02  0.33840162332E+03  0.35546098991E+03  0.84193306128E+02 0.  0.
         23    2    1    2    0    0  0.90241247118E+02  0.11438453851E+02  0.19900564177E+03  0.23509460754E+03  0.85976206780E+02 0.  0.
        -13    1    3    3    0    0 -0.33527915232E+02  0.34124798637E+01  0.72284142638E+02  0.79754394208E+02  0.00000000000E+00 0.  1.
         14    1    3    3    0    0  0.30266037246E+02  0.65418501801E+02  0.26611748068E+03  0.27570659570E+03  0.00000000000E+00 0. -1.
        -11    1    4    4    0    0  0.21855605187E+02 -0.35520807849E+02  0.76774332881E+02  0.87371010396E+02  0.00000000000E+00 0. -1.
         11    1    4    4    0    0  0.68385641931E+02  0.46959261699E+02  0.12223130888E+03  0.14772359714E+03  0.00000000000E+00 0.  1.
         -2    1    1    2    0  502 -0.86979369133E+02 -0.80269435515E+02  0.44420234051E+03  0.45970024174E+03  0.00000000000E+00 0.  1.
<scales pt_clust_5="13000.00000" pt_clust_6="13000.00000" pt_clust_7="13000.00000" pt_clust_8="13000.00000" pt_clust_9="95.36256"></scales>
<clustering>
<clus scale="   84.193">  5  6 -1 -1</clus>
<clus scale="   85.976">  7  8 -1 -1</clus>
<clus scale="  108.797">  1  5  2 -1</clus>
<clus scale="   95.363">  2  9  1 -1</clus>
<clus scale="   95.363">  2  5  1 -1</clus>
</clustering>
</event>
<event>
 9    2  0.5615294E-005  0.1342458E+03  0.7546771E-02  0.1225505E+00
         21   -1    0    0  501  502  0.00000000000E+00  0.00000000000E+00  0.58064205356E+02  0.58064205356E+02  0.00000000000E+00 0.  1.
          2   -1    0    0  502    0 -0.00000000000E+00 -0.00000000000E+00 -0.13528474772E+04  0.13528474772E+04  0.00000000000E+00 0. -1.
         24    2    1    2    0    0  0.21089438541E+02  0.95606902329E+02 -0.12291904365E+04  0.12354462167E+04  0.76372645820E+02 0.  0.
         23    2    1    2    0    0 -0.22529639851E+02 -0.67283521724E+02 -0.16170555695E+02  0.11848433042E+03  0.93500763181E+02 0.  0.
        -11    1    3    3    0    0  0.21588923419E+02  0.36758684451E+02 -0.19605999622E+03  0.20064098438E+03  0.00000000000E+00 0.  1.
         12    1    3    3    0    0 -0.49948487747E+00  0.58848217878E+02 -0.10331304402E+04  0.10348052323E+04  0.00000000000E+00 0. -1.
        -11    1    4    4    0    0  0.16544798445E+02 -0.75609848332E+02 -0.11825984042E+02  0.78297084358E+02  0.00000000000E+00 0.  1.
         11    1    4    4    0    0 -0.39074438296E+02  0.83263266079E+01 -0.43445716533E+01  0.40187246059E+02  0.00000000000E+00 0. -1.
          1    1    1    2  501    0  0.14402013094E+01 -0.28323380604E+02 -0.49422279673E+02  0.56981135446E+02  0.00000000000E+00 0. -1.
<scales pt_clust_5="13000.00000" pt_clust_6="13000.00000" pt_clust_7="13000.00000" pt_clust_8="13000.00000" pt_clust_9="28.35997"></scales>
<clustering>
<clus scale="   28.360">  1  9  2 -1</clus>
<clus scale="   76.373">  5  6 -1 -1</clus>
<clus scale="   93.501">  7  8 -1 -1</clus>
<clus scale="  122.932">  2  5  1 -1</clus>
<clus scale="   28.360">  1  5  2 -1</clus>
</clustering>
</event>
<event>
 9    2  0.5615294E-005  0.1254092E+03  0.7546771E-02  0.1247322E+00
          2   -1    0    0  502    0 -0.00000000000E+00  0.00000000000E+00  0.15494998407E+03  0.15494998407E+03  0.00000000000E+00 0. -1.
         21   -1    0    0  501  502  0.00000000000E+00 -0.00000000000E+00 -0.20743060941E+03  0.20743060941E+03  0.00000000000E+00 0.  1.
         23    2    1    2    0    0 -0.11064504243E+02 -0.28538873228E+02 -0.85954669121E+02  0.12927389481E+03  0.91578623035E+02 0.  0.
         24    2    1    2    0    0  0.10611742698E+03  0.67074248610E+01 -0.80611880595E+00  0.12972971957E+03  0.74318587548E+02 0.  0.
        -13    1    4    4    0    0  0.77380968848E+02  0.38869238545E+02 -0.12750035326E+00  0.86594735990E+02  0.00000000000E+00 0.  1.
         14    1    4    4    0    0  0.28736458135E+02 -0.32161813684E+02 -0.67861845270E+00  0.43134983582E+02  0.00000000000E+00 0. -1.
        -13    1    3    3    0    0 -0.25971202105E+02  0.27916253942E+02 -0.35769665231E+02  0.52280871489E+02  0.00000000000E+00 0. -1.
         13    1    3    3    0    0  0.14906697862E+02 -0.56455127170E+02 -0.50185003890E+02  0.76993023323E+02  0.00000000000E+00 0.  1.
          1    1    1    2  501    0 -0.95052922740E+02  0.21831448367E+02  0.34280162584E+02  0.10337697909E+03  0.00000000000E+00 0. -1.
<scales pt_clust_5="13000.00000" pt_clust_6="13000.00000" pt_clust_7="13000.00000" pt_clust_8="13000.00000" pt_clust_9="101.01591"></scales>
<clustering>
<clus scale="   74.319">  5  6 -1 -1</clus>
<clus scale="   91.579">  7  8 -1 -1</clus>
<clus scale="   96.559">  1  7  2 -1</clus>
<clus scale="  101.016">  2  9  1 -1</clus>
<clus scale="  101.016">  2  5  1 -1</clus>
</clustering>
</event>
<event>
 9    2  0.5615294E-005  0.1262784E+03  0.7546771E-02  0.1246903E+00
          2   -1    0    0  502    0 -0.00000000000E+00  0.00000000000E+00  0.32707952216E+03  0.32707952216E+03  0.00000000000E+00 0. -1.
         21   -1    0    0  501  502  0.00000000000E+00 -0.00000000000E+00 -0.12525482296E+03  0.12525482296E+03  0.00000000000E+00 0. -1.
         24    2    1    2    0    0  0.22174905561E+02  0.50856923203E+02  0.20435837074E+03  0.22551927399E+03  0.77578645096E+02 0.  0.
         23    2    1    2    0    0  0.72782633672E+02  0.38650307510E+01 -0.10891156788E+02  0.11690022199E+03  0.90745767822E+02 0.  0.
        -11    1    3    3    0    0  0.29767347069E+02  0.12540400653E+01  0.23844957915E+02  0.38160838381E+02  0.00000000000E+00 0.  1.
         12    1    3    3    0    0 -0.75924415081E+01  0.49602883138E+02  0.18051341283E+03  0.18735843561E+03  0.00000000000E+00 0. -1.
        -13    1    4    4    0    0  0.47489227265E+02 -0.92292167707E+01 -0.49307689434E+02  0.69077155310E+02  0.00000000000E+00 0. -1.
         13    1    4    4    0    0  0.25293406407E+02  0.13094247522E+02  0.38416532647E+02  0.47823066677E+02  0.00000000000E+00 0.  1.
          1    1    1    2  501    0 -0.94957539233E+02 -0.54721953954E+02  0.83574852485E+01  0.10991484914E+03  0.00000000000E+00 0. -1.
<scales pt_clust_5="13000.00000" pt_clust_6="13000.00000" pt_clust_7="13000.00000" pt_clust_8="13000.00000" pt_clust_9="87.81492"></scales>
<clustering>
<clus scale="   77.579">  5  6 -1 -1</clus>
<clus scale="   90.746">  7  8 -1 -1</clus>
<clus scale="   95.376">  1  5  2 -1</clus>
<clus scale="   87.815">  2  9  1 -1</clus>
<clus scale="   87.815">  2  5  1 -1</clus>
</clustering>
</event>
<event>
 9    2  0.5615294E-005  0.1670002E+03  0.7546771E-02  0.1214746E+00
         21   -1    0    0  501  502  0.00000000000E+00  0.00000000000E+00  0.22657189599E+03  0.22657189599E+03  0.00000000000E+00 0.  1.
         -1   -1    0    0    0  501 -0.00000000000E+00 -0.00000000000E+00 -0.37751032231E+03  0.37751032231E+03  0.00000000000E+00 0.  1.
         24    2    1    2    0    0  0.74852158661E+01  0.17430228293E+02 -0.56623372249E+02  0.98044361280E+02  0.77760203054E+02 0.  0.
         23    2    1    2    0    0 -0.14294090485E+03  0.14824590133E+02 -0.24653018194E+03  0.29974180243E+03  0.91739559414E+02 0.  0.
        -11    1    3    3    0    0 -0.20099656853E+02 -0.20759568558E+02 -0.72290834052E+01  0.29786163553E+02  0.00000000000E+00 0.  1.
         12    1    3    3    0    0  0.27584872720E+02  0.38189796852E+02 -0.49394288844E+02  0.68258197727E+02  0.00000000000E+00 0. -1.
        -13    1    4    4    0    0 -0.84451584678E+02  0.32874410131E+02 -0.20935094278E+03  0.22812412025E+03  0.00000000000E+00 0.  1.
         13    1    4    4    0    0 -0.58489320169E+02 -0.18049819999E+02 -0.37179239165E+02  0.71617682179E+02  0.00000000000E+00 0. -1.
         -2    1    1    2    0  502  0.13545568898E+03 -0.32254818426E+02  0.15221512787E+03  0.20629605460E+03  0.00000000000E+00 0.  1.
<scales pt_clust_5="13000.00000" pt_clust_6="13000.00000" pt_clust_7="13000.00000" pt_clust_8="13000.00000" pt_clust_9="139.54540"></scales>
<clustering>
<clus scale="   77.760">  5  6 -1 -1</clus>
<clus scale="   80.041">  2  5  1 -1</clus>
<clus scale="   91.740">  7  8 -1 -1</clus>
<clus scale="  139.545">  1  9  2 -1</clus>
<clus scale="  139.545">  1  5  2 -1</clus>
</clustering>
</event>
<event>
 9    2  0.5615294E-005  0.1215747E+03  0.7546771E-02  0.1244007E+00
         21   -1    0    0  501  502  0.00000000000E+00  0.00000000000E+00  0.85116454238E+02  0.85116454238E+02  0.00000000000E+00 0. -1.
          2   -1    0    0  502    0 -0.00000000000E+00 -0.00000000000E+00 -0.10425046968E+04  0.10425046968E+04  0.00000000000E+00 0. -1.
         24    2    1    2    0    0  0.54503595187E+02  0.67787504578E+02 -0.83068798898E+03  0.83902291477E+03  0.79693969660E+02 0.  0.
         23    2    1    2    0    0 -0.53235580273E+02 -0.30075452645E+02 -0.18738760684E+03  0.21713662717E+03  0.91080402967E+02 0.  0.
        -11    1    3    3    0    0  0.14704530503E+02  0.71942112086E+02 -0.41811117843E+03  0.42451012737E+03  0.00000000000E+00 0.  1.
         12    1    3    3    0    0  0.39799064685E+02 -0.41546075080E+01 -0.41257681055E+03  0.41451278740E+03  0.00000000000E+00 0. -1.
        -13    1    4    4    0    0  0.18103886502E+02  0.12063442360E+02 -0.71078331418E+02  0.74333078405E+02  0.00000000000E+00 0. -1.
         13    1    4    4    0    0 -0.71339466774E+02 -0.42138895005E+02 -0.11630927542E+03  0.14280354877E+03  0.00000000000E+00 0.  1.
          1    1    1    2  501    0 -0.12680149149E+01 -0.37712051933E+02  0.60687353283E+02  0.71461609074E+02  0.00000000000E+00 0. -1.
<scales pt_clust_5="13000.00000" pt_clust_6="13000.00000" pt_clust_7="13000.00000" pt_clust_8="13000.00000" pt_clust_9="37.73336"></scales>
<clustering>
<clus scale="   37.733">  1  9  2 -1</clus>
<clus scale="   79.694">  5  6 -1 -1</clus>
<clus scale="   91.080">  7  8 -1 -1</clus>
<clus scale="  113.296">  2  5  1 -1</clus>
<clus scale="   37.733">  1  5  2 -1</clus>
</clustering>
</event>
<event>
 9    2  0.5615294E-005  0.1170790E+03  0.7546771E-02  0.1250306E+00
          2   -1    0    0  502    0 -0.00000000000E+00  0.00000000000E+00  0.62015362436E+02  0.62015362436E+02  0.00000000000E+00 0. -1.
         21   -1    0    0  501  502  0.00000000000E+00 -0.00000000000E+00 -0.75797397647E+03  0.75797397647E+03  0.00000000000E+00 0. -1.
         24    2    1    2    0    0 -0.28122944463E+02 -0.44295258040E+02 -0.29271927454E+03  0.30795820446E+03  0.80004450613E+02 0.  0.
         23    2    1    2    0    0  0.17948246180E+02  0.11686704484E+03 -0.41275891635E+03  0.43813383364E+03  0.87242692774E+02 0.  0.
        -11    1    3    3    0    0 -0.38613921412E+02 -0.52814733451E+02 -0.13879863127E+03  0.15344540084E+03  0.00000000000E+00 0.  1.
         12    1    3    3    0    0  0.10490976948E+02  0.85194754108E+01 -0.15392064327E+03  0.15451280362E+03  0.00000000000E+00 0. -1.
        -13    1    4    4    0    0  0.44386600976E+02  0.24162560139E+02 -0.14305446573E+03  0.15171875238E+03  0.00000000000E+00 0.  1.
         13    1    4    4    0    0 -0.26438354797E+02  0.92704484701E+02 -0.26970445062E+03  0.28641508126E+03  0.00000000000E+00 0. -1.
          1    1    1    2  501    0  0.10174698284E+02 -0.72571786799E+02  0.95195768466E+01  0.73897300814E+02  0.00000000000E+00 0. -1.
<scales pt_clust_5="13000.00000" pt_clust_6="13000.00000" pt_clust_7="13000.00000" pt_clust_8="13000.00000" pt_clust_9="73.28161"></scales>
<clustering>
<clus scale="   73.282">  2  9  1 -1</clus>
<clus scale="   80.004">  5  6 -1 -1</clus>
<clus scale="   87.243">  7  8 -1 -1</clus>
<clus scale="  111.790">  1  5  2 -1</clus>
<clus scale="   73.282">  2  5  1 -1</clus>
</clustering>
</event>
<event>
 9    2  0.5615294E-005  0.1193986E+03  0.7546771E-02  0.1253503E+00
         21   -1    0    0  501  502  0.00000000000E+00  0.00000000000E+00  0.11609403493E+03  0.11609403493E+03  0.00000000000E+00 0. -1.
          2   -1    0    0  502    0 -0.00000000000E+00 -0.00000000000E+00 -0.33342845736E+03  0.33342845736E+03  0.00000000000E+00 0. -1.
         24    2    1    2    0    0 -0.12388953740E+02 -0.48244789589E+02 -0.15112554480E+03  0.17829414936E+03  0.80429021555E+02 0.  0.
         23    2    1    2    0    0  0.36549878967E+02  0.63194177899E+02 -0.14164343648E+03  0.19062060640E+03  0.10461335820E+03 0.  0.
        -11    1    3    3    0    0 -0.24382282637E+01  0.22003451655E+02 -0.23583715141E+02  0.32346382513E+02  0.00000000000E+00 0.  1.
         12    1    3    3    0    0 -0.99507254760E+01 -0.70248241245E+02 -0.12754182966E+03  0.14594776685E+03  0.00000000000E+00 0. -1.
        -11    1    4    4    0    0 -0.18932885896E+02 -0.19340022085E+02 -0.41029379927E+02  0.49151812172E+02  0.00000000000E+00 0. -1.
         11    1    4    4    0    0  0.55482764863E+02  0.82534199984E+02 -0.10061405655E+03  0.14146879423E+03  0.00000000000E+00 0.  1.
          1    1    1    2  501    0 -0.24160925228E+02 -0.14949388310E+02  0.75434558855E+02  0.80607736529E+02  0.00000000000E+00 0. -1.
<scales pt_clust_5="13000.00000" pt_clust_6="13000.00000" pt_clust_7="13000.00000" pt_clust_8="13000.00000" pt_clust_9="28.41187"></scales>
<clustering>
<clus scale="   28.412">  1  9  2 -1</clus>
<clus scale="   80.429">  5  6 -1 -1</clus>
<clus scale="   98.898">  2  5  1 -1</clus>
<clus scale="  104.613">  7  8 -1 -1</clus>
<clus scale="   28.412">  1  5  2 -1</clus>
</clustering>
</event>
<event>
 9    2  0.5615294E-005  0.9878670E+02  0.7546771E-02  0.1289577E+00
          2   -1    0    0  502    0 -0.00000000000E+00  0.00000000000E+00  0.17554123908E+03  0.17554123908E+03  0.00000000000E+00 0. -1.
         21   -1    0    0  501  502  0.00000000000E+00 -0.00000000000E+00 -0.12786875084E+03  0.12786875084E+03  0.00000000000E+00 0.  1.
         24    2    1    2    0    0  0.40747059786E+01 -0.37406910536E+02  0.12139800185E+03  0.15034066305E+03  0.80305416568E+02 0.  0.
         23    2    1    2    0    0  0.21661904117E+02  0.14962919852E+02 -0.38315383176E+02  0.10387600258E+03  0.92892563018E+02 0.  0.
        -11    1    3    3    0    0  0.18911864910E+02  0.15508669392E+02  0.10587659554E+02  0.26651003649E+02  0.00000000000E+00 0.  1.
         12    1    3    3    0    0 -0.14837158931E+02 -0.52915579928E+02  0.11081034229E+03  0.12368965940E+03  0.00000000000E+00 0. -1.
        -13    1    4    4    0    0 -0.17686700784E+02  0.25080304408E+02 -0.52525664311E+02  0.60834089663E+02  0.00000000000E+00 0.  1.
         13    1    4    4    0    0  0.39348604901E+02 -0.10117384556E+02  0.14210281134E+02  0.43041912920E+02  0.00000000000E+00 0. -1.
          1    1    1    2  501    0 -0.25736610095E+02  0.22443990684E+02 -0.35410130427E+02  0.49193324282E+02  0.00000000000E+00 0. -1.
<scales pt_clust_5="13000.00000" pt_clust_6="13000.00000" pt_clust_7="13000.00000" pt_clust_8="13000.00000" pt_clust_9="34.14829"></scales>
<clustering>
<clus scale="   34.148">  2  9  1 -1</clus>
<clus scale="   80.305">  5  6 -1 -1</clus>
<clus scale="   87.056">  1  5  2 -1</clus>
<clus scale="   92.893">  7  8 -1 -1</clus>
<clus scale="   34.148">  2  5  1 -1</clus>
</clustering>
</event>
<event>
 9    2  0.5615294E-005  0.2349886E+03  0.7546771E-02  0.1123177E+00
         21   -1    0    0  501  502  0.00000000000E+00  0.00000000000E+00  0.21367258972E+03  0.21367258972E+03  0.00000000000E+00 0.  1.
         -1   -1    0    0    0  501 -0.00000000000E+00 -0.00000000000E+00 -0.17533735689E+03  0.17533735689E+03  0.00000000000E+00 0.  1.
         24    2    1    2    0    0  0.23549143805E+02 -0.83401286820E+02  0.39026864983E+02  0.12546876770E+03  0.81908355260E+02 0.  0.
         23    2    1    2    0    0 -0.28279295664E+02 -0.63034296646E+02  0.16594768642E+02  0.11601296434E+03  0.91709216719E+02 0.  0.
        -13    1    3    3    0    0  0.25831039836E+02 -0.32991764221E+01  0.37079850132E+02  0.45310511694E+02  0.00000000000E+00 0.  1.
         14    1    3    3    0    0 -0.22818960318E+01 -0.80102110398E+02  0.19470148502E+01  0.80158256009E+02  0.00000000000E+00 0. -1.
        -11    1    4    4    0    0 -0.39333357595E+02 -0.12925194784E+02  0.41807906674E+02  0.58839397858E+02  0.00000000000E+00 0.  1.
         11    1    4    4    0    0  0.11054061931E+02 -0.50109101862E+02 -0.25213138032E+02  0.57173566480E+02  0.00000000000E+00 0. -1.
         -2    1    1    2    0  502  0.47301518598E+01  0.14643558347E+03 -0.17286400791E+02  0.14752821457E+03  0.00000000000E+00 0.  1.
<scales pt_clust_5="13000.00000" pt_clust_6="13000.00000" pt_clust_7="13000.00000" pt_clust_8="13000.00000" pt_clust_9="146.51203"></scales>
<clustering>
<clus scale="   81.908">  5  6 -1 -1</clus>
<clus scale="   91.709">  7  8 -1 -1</clus>
<clus scale="  104.349">  5  7 -1 -1</clus>
<clus scale="  146.512">  1  9  2 -1</clus>
<clus scale="  146.512">  1  5  2 -1</clus>
</clustering>
</event>
<event>
 9    2  0.5615294E-005  0.1560368E+03  0.7546771E-02  0.1194682E+00
         21   -1    0    0  501  502  0.00000000000E+00  0.00000000000E+00  0.17960595234E+03  0.17960595234E+03  0.00000000000E+00 0.  1.
          2   -1    0    0  502    0 -0.00000000000E+00 -0.00000000000E+00 -0.20585263519E+03  0.20585263519E+03  0.00000000000E+00 0. -1.
         24    2    1    2    0    0  0.72339655040E+02 -0.10581199958E+03 -0.89838193347E+02  0.17652584468E+03  0.81616590906E+02 0.  0.
         23    2    1    2    0    0 -0.41762647712E+02  0.12108501647E+03  0.73874722146E+02  0.17324012646E+03  0.90271628357E+02 0.  0.
        -11    1    3    3    0    0  0.25867706273E+02 -0.97157136803E+01  0.10946062196E+02  0.29721197785E+02  0.00000000000E+00 0.  1.
         12    1    3    3    0    0  0.46471948767E+02 -0.96096285896E+02 -0.10078425554E+03  0.14680464690E+03  0.00000000000E+00 0. -1.
        -11    1    4    4    0    0 -0.85742981541E+01  0.99022428679E+02  0.86157885131E+02  0.13153760352E+03  0.00000000000E+00 0.  1.
         11    1    4    4    0    0 -0.33188349558E+02  0.22062587793E+02 -0.12283162985E+02  0.41702522938E+02  0.00000000000E+00 0. -1.
          1    1    1    2  501    0 -0.30577007328E+02 -0.15273016896E+02 -0.10283211650E+02  0.35692616381E+02  0.00000000000E+00 0. -1.
<scales pt_clust_5="13000.00000" pt_clust_6="13000.00000" pt_clust_7="13000.00000" pt_clust_8="13000.00000" pt_clust_9="34.17923"></scales>
<clustering>
<clus scale="   34.179">  1  9  2 -1</clus>
<clus scale="   81.617">  5  6 -1 -1</clus>
<clus scale="   90.272">  7  8 -1 -1</clus>
<clus scale="  151.194">  2  5  1 -1</clus>
<clus scale="   34.179">  1  5  2 -1</clus>
</clustering>
</event>
<event>
 9    2  0.5615294E-005  0.9735569E+02  0.7546771E-02  0.1289072E+00
         21   -1    0    0  501  502  0.00000000000E+00  0.00000000000E+00  0.35046383904E+02  0.35046383904E+02  0.00000000000E+00 0.  1.
          2   -1    0    0  502    0 -0.00000000000E+00 -0.00000000000E+00 -0.62186307329E+03  0.62186307329E+03  0.00000000000E+00 0. -1.
         24    2    1    2    0    0  0.41937693375E+01  0.38818988584E+02 -0.28205450771E+03  0.29618578176E+03  0.81527727933E+02 0.  0.
         23    2    1    2    0    0 -0.49640315843E+02 -0.43480691976E+02 -0.92338396269E+02  0.14344278655E+03  0.87719564840E+02 0.  0.
        -13    1    3    3    0    0 -0.27747108168E+02  0.48181903959E+02 -0.20138034719E+03  0.20891491597E+03  0.00000000000E+00 0.  1.
         14    1    3    3    0    0  0.31940877505E+02 -0.93629153757E+01 -0.80674160522E+02  0.87270865792E+02  0.00000000000E+00 0. -1.
        -11    1    4    4    0    0 -0.52116769271E+02  0.64017996230E+01 -0.21434891178E+02  0.56715035374E+02  0.00000000000E+00 0.  1.
         11    1    4    4    0    0  0.24764534280E+01 -0.49882491599E+02 -0.70903505091E+02  0.86727751175E+02  0.00000000000E+00 0. -1.
          1    1    1    2  501    0  0.45446546506E+02  0.46617033927E+01 -0.21242378540E+03  0.21728088888E+03  0.00000000000E+00 0. -1.
<scales pt_clust_5="13000.00000" pt_clust_6="13000.00000" pt_clust_7="13000.00000" pt_clust_8="13000.00000" pt_clust_9="45.68503"></scales>
<clustering>
<clus scale="   45.685">  1  9  2 -1</clus>
<clus scale="   81.528">  5  6 -1 -1</clus>
<clus scale="   87.720">  7  8 -1 -1</clus>
<clus scale="   91.816">  2  5  1 -1</clus>
<clus scale="   45.685">  1  5  2 -1</clus>
</clustering>
</event>
<event>
 9    2  0.5615294E-005  0.9667699E+02  0.7546771E-02  0.1290675E+00
         21   -1    0    0  501  502  0.00000000000E+00  0.00000000000E+00  0.68878169433E+02  0.68878169433E+02  0.00000000000E+00 0. -1.
         -3   -1    0    0    0  501 -0.00000000000E+00 -0.00000000000E+00 -0.41274707591E+03  0.41274707591E+03  0.00000000000E+00 0.  1.
         23    2    1    2    0    0  0.12812966253E+02 -0.36994483346E+02 -0.13377458279E+03  0.15738946644E+03  0.73096109616E+02 0.  0.
         24    2    1    2    0    0 -0.70951042052E+02  0.93236335482E+02 -0.60690165717E+02  0.15433938634E+03  0.80064257562E+02 0.  0.
        -11    1    4    4    0    0  0.14015427268E+02  0.15016556547E+02 -0.27215644804E+02  0.34097221209E+02  0.00000000000E+00 0.  1.
         12    1    4    4    0    0 -0.84966469320E+02  0.78219778935E+02 -0.33474520912E+02  0.12024216513E+03  0.00000000000E+00 0. -1.
        -13    1    3    3    0    0  0.42096981626E+02 -0.10554975338E+02 -0.66916913662E+02  0.79758615212E+02  0.00000000000E+00 0.  1.
         13    1    3    3    0    0 -0.29284015373E+02 -0.26439508008E+02 -0.66857669131E+02  0.77630851224E+02  0.00000000000E+00 0. -1.
         -4    1    1    2    0  502  0.58138075799E+02 -0.56241852136E+02 -0.14940415796E+03  0.16989639256E+03  0.00000000000E+00 0.  1.
<scales pt_clust_5="13000.00000" pt_clust_6="13000.00000" pt_clust_7="13000.00000" pt_clust_8="13000.00000" pt_clust_9="80.88998"></scales>
<clustering>
<clus scale="   73.096">  7  8 -1 -1</clus>
<clus scale="   80.064">  5  6 -1 -1</clus>
<clus scale="   80.890">  1  9  2 -1</clus>
<clus scale="   90.990">  2  7  1 -1</clus>
<clus scale="   80.890">  1  5  2 -1</clus>
</clustering>
</event>
<event>
 9    2  0.5615294E-005  0.1528218E+03  0.7546771E-02  0.1223006E+00
         21   -1    0    0  501  502  0.00000000000E+00  0.00000000000E+00  0.36559613655E+02  0.36559613655E+02  0.00000000000E+00 0. -1.
          2   -1    0    0  502    0 -0.00000000000E+00 -0.00000000000E+00 -0.11769119184E+04  0.11769119184E+04  0.00000000000E+00 0. -1.
         23    2    1    2    0    0 -0.30459468007E+02 -0.35773225780E+01 -0.39273888049E+03  0.40243083239E+03  0.82256733356E+02 0.  0.
         24    2    1    2    0    0 -0.30549362384E+02  0.12255811732E+03 -0.22254585968E+03  0.26921558556E+03  0.83645778047E+02 0.  0.
        -11    1    4    4    0    0 -0.55900955285E+02  0.90650643477E+02 -0.18670386908E+03  0.21494369192E+03  0.00000000000E+00 0.  1.
         12    1    4    4    0    0  0.25351592901E+02  0.31907473845E+02 -0.35841990598E+02  0.54271893646E+02  0.00000000000E+00 0. -1.
        -13    1    3    3    0    0  0.17072455393E+02 -0.24526589300E+02 -0.79832369237E+02  0.85242181423E+02  0.00000000000E+00 0.  1.
         13    1    3    3    0    0 -0.47531923400E+02  0.20949266722E+02 -0.31290651125E+03  0.31718865097E+03  0.00000000000E+00 0. -1.
          1    1    1    2  501    0  0.61008830391E+02 -0.11898079474E+03 -0.52506756461E+03  0.54182511414E+03  0.00000000000E+00 0. -1.
<scales pt_clust_5="13000.00000" pt_clust_6="13000.00000" pt_clust_7="13000.00000" pt_clust_8="13000.00000" pt_clust_9="127.89805"></scales>
<clustering>
<clus scale="   82.257">  7  8 -1 -1</clus>
<clus scale="   83.646">  5  6 -1 -1</clus>
<clus scale="   87.788">  2  7  1 -1</clus>
<clus scale="  127.898">  1  9  2 -1</clus>
<clus scale="  127.898">  1  5  2 -1</clus>
</clustering>
</event>
<event>
 9    2  0.5615294E-005  0.1008533E+03  0.7546771E-02  0.1280804E+00
         21   -1    0    0  501  502  0.00000000000E+00  0.00000000000E+00  0.36449765413E+02  0.36449765413E+02  0.00000000000E+00 0. -1.
         -3   -1    0    0    0  501 -0.00000000000E+00 -0.00000000000E+00 -0.69656022068E+03  0.69656022068E+03  0.00000000000E+00 0.  1.
         23    2    1    2    0    0  0.58335955388E+02  0.43338869870E+02 -0.28120221834E+03  0.30309078572E+03  0.86648689855E+02 0.  0.
         24    2    1    2    0    0 -0.44166653129E+02  0.52161818531E+02 -0.22097838611E+03  0.24481655753E+03  0.80200692954E+02 0.  0.
        -13    1    4    4    0    0 -0.43156034146E+02 -0.13184650281E+01 -0.14906022704E+03  0.15518741225E+03  0.00000000000E+00 0.  1.
         14    1    4    4    0    0 -0.10106189831E+01  0.53480283559E+02 -0.71918159070E+02  0.89629145284E+02  0.00000000000E+00 0. -1.
        -11    1    3    3    0    0  0.66563428718E+02  0.17545894811E+01 -0.13002843888E+03  0.14608615110E+03  0.00000000000E+00 0. -1.
         11    1    3    3    0    0 -0.82274733304E+01  0.41584280389E+02 -0.15117377947E+03  0.15700463462E+03  0.00000000000E+00 0.  1.
         -4    1    1    2    0  502 -0.14169302258E+02 -0.95500688401E+02 -0.15792985081E+03  0.18510264285E+03  0.00000000000E+00 0.  1.
<scales pt_clust_5="13000.00000" pt_clust_6="13000.00000" pt_clust_7="13000.00000" pt_clust_8="13000.00000" pt_clust_9="96.54611"></scales>
<clustering>
<clus scale="   80.201">  5  6 -1 -1</clus>
<clus scale="   86.649">  7  8 -1 -1</clus>
<clus scale="   96.546">  1  9  2 -1</clus>
<clus scale="   96.546">  1  5  2 -1</clus>
<clus scale="   96.546">  1  5  2 -1</clus>
</clustering>
</event>
<event>
 9    2  0.5615294E-005  0.1000954E+03  0.7546771E-02  0.1286344E+00
         21   -1    0    0  501  502  0.00000000000E+00  0.00000000000E+00  0.24719573613E+03  0.24719573613E+03  0.00000000000E+00 0.  1.
         -1   -1    0    0    0  501 -0.00000000000E+00 -0.00000000000E+00 -0.43794227975E+03  0.43794227975E+03  0.00000000000E+00 0.  1.
         23    2    1    2    0    0  0.25205660257E+02  0.31092476448E+02 -0.31351541421E+03  0.32923607270E+03  0.92208509481E+02 0.  0.
         24    2    1    2    0    0 -0.62274697234E+02  0.20616621057E+02 -0.87969664576E+02  0.13576863251E+03  0.79945460841E+02 0.  0.
        -11    1    4    4    0    0 -0.72703248687E+02 -0.22969819075E+01 -0.43744593676E+02  0.84880079944E+02  0.00000000000E+00 0.  1.
         12    1    4    4    0    0  0.10428551454E+02  0.22913602965E+02 -0.44225070900E+02  0.50888552567E+02  0.00000000000E+00 0. -1.
        -11    1    3    3    0    0  0.25953333233E+02 -0.26525604505E+02 -0.18050478843E+03  0.18428011788E+03  0.00000000000E+00 0. -1.
         11    1    3    3    0    0 -0.74767297613E+00  0.57618080953E+02 -0.13301062577E+03  0.14495595482E+03  0.00000000000E+00 0.  1.
         -2    1    1    2    0  502  0.37069036977E+02 -0.51709097505E+02  0.21073853516E+03  0.22013331067E+03  0.00000000000E+00 0.  1.
<scales pt_clust_5="13000.00000" pt_clust_6="13000.00000" pt_clust_7="13000.00000" pt_clust_8="13000.00000" pt_clust_9="63.62346"></scales>
<clustering>
<clus scale="   63.623">  1  9  2 -1</clus>
<clus scale="   79.945">  5  6 -1 -1</clus>
<clus scale="   88.927">  1  5  2 -1</clus>
<clus scale="   92.209">  7  8 -1 -1</clus>
<clus scale="   63.623">  1  5  2 -1</clus>
</clustering>
</event>
<event>
 9    2  0.5615294E-005  0.2448779E+03  0.7546771E-02  0.1116585E+00
         21   -1    0    0  501  502  0.00000000000E+00  0.00000000000E+00  0.31515122450E+02  0.31515122450E+02  0.00000000000E+00 0.  1.
          2   -1    0    0  502    0 -0.00000000000E+00 -0.00000000000E+00 -0.15622662752E+04  0.15622662752E+04  0.00000000000E+00 0. -1.
         24    2    1    2    0    0 -0.39358748263E+02 -0.74439175334E+02 -0.31497090831E+03  0.33659694246E+03  0.83669150255E+02 0.  0.
         23    2    1    2    0    0  0.55941273915E+00 -0.87399102545E+02 -0.28127971763E+03  0.30798044591E+03  0.89970881085E+02 0.  0.
        -13    1    3    3    0    0 -0.41698336704E+02 -0.91367151600E+02 -0.25007617824E+03  0.26948989332E+03  0.00000000000E+00 0.  1.
         14    1    3    3    0    0  0.23395884402E+01  0.16927976267E+02 -0.64894730067E+02  0.67107049145E+02  0.00000000000E+00 0. -1.
        -13    1    4    4    0    0  0.30697049748E+02 -0.82596912141E+02 -0.24614732077E+03  0.26144418578E+03  0.00000000000E+00 0.  1.
         13    1    4    4    0    0 -0.30137637009E+02 -0.48021904045E+01 -0.35132396863E+02  0.46536260126E+02  0.00000000000E+00 0. -1.
          1    1    1    2  501    0  0.38799335524E+02  0.16183827788E+03 -0.93450052682E+03  0.94920400929E+03  0.00000000000E+00 0. -1.
<scales pt_clust_5="13000.00000" pt_clust_6="13000.00000" pt_clust_7="13000.00000" pt_clust_8="13000.00000" pt_clust_9="166.42429"></scales>
<clustering>
<clus scale="   83.669">  5  6 -1 -1</clus>
<clus scale="   89.971">  7  8 -1 -1</clus>
<clus scale="  100.605">  5  7 -1 -1</clus>
<clus scale="  166.424">  1  9  2 -1</clus>
<clus scale="  166.424">  1  5  2 -1</clus>
</clustering>
</event>
<event>
 9    2  0.5615294E-005  0.9454827E+02  0.7546771E-02  0.1296376E+00
         21   -1    0    0  501  502  0.00000000000E+00  0.00000000000E+00  0.34806775427E+02  0.34806775427E+02  0.00000000000E+00 0.  1.
          2   -1    0    0  502    0 -0.00000000000E+00 -0.00000000000E+00 -0.46854022242E+03  0.46854022242E+03  0.00000000000E+00 0. -1.
         23    2    1    2    0    0  0.11894614925E+02  0.30154455623E+02 -0.19765354490E+03  0.21966006696E+03  0.90182305046E+02 0.  0.
         24    2    1    2    0    0  0.25435763670E+02 -0.24919460583E+02 -0.71947426362E+02  0.11528137300E+03  0.82736964003E+02 0.  0.
        -13    1    4    4    0    0  0.41622101927E+02  0.16217953473E+02 -0.45520892947E+02  0.63777528004E+02  0.00000000000E+00 0.  1.
         14    1    4    4    0    0 -0.16186338257E+02 -0.41137414057E+02 -0.26426533415E+02  0.51503845000E+02  0.00000000000E+00 0. -1.
        -13    1    3    3    0    0  0.47956406734E+02  0.30507619683E+02 -0.14590495368E+03  0.15658476079E+03  0.00000000000E+00 0. -1.
         13    1    3    3    0    0 -0.36061791809E+02 -0.35316405985E+00 -0.51748591229E+02  0.63075306162E+02  0.00000000000E+00 0.  1.
          1    1    1    2  501    0 -0.37330378595E+02 -0.52349950394E+01 -0.16413247573E+03  0.16840555789E+03  0.00000000000E+00 0. -1.
<scales pt_clust_5="13000.00000" pt_clust_6="13000.00000" pt_clust_7="13000.00000" pt_clust_8="13000.00000" pt_clust_9="37.69567"></scales>
<clustering>
<clus scale="   37.696">  1  9  2 -1</clus>
<clus scale="   82.737">  5  6 -1 -1</clus>
<clus scale="   87.475">  1  5  2 -1</clus>
<clus scale="   90.182">  7  8 -1 -1</clus>
<clus scale="   37.696">  1  5  2 -1</clus>
</clustering>
</event>
<event>
 9    2  0.5615294E-005  0.9480731E+02  0.7546771E-02  0.1297442E+00
         21   -1    0    0  501  502  0.00000000000E+00  0.00000000000E+00  0.67159162098E+02  0.67159162098E+02  0.00000000000E+00 0. -1.
          2   -1    0    0  502    0 -0.00000000000E+00 -0.00000000000E+00 -0.25118907882E+03  0.25118907882E+03  0.00000000000E+00 0. -1.
         23    2    1    2    0    0  0.12643444089E+02 -0.33893961613E+02 -0.16947590335E+03  0.19558392203E+03  0.90677072218E+02 0.  0.
         24    2    1    2    0    0 -0.19818741706E+02 -0.31228768589E+01 -0.18227457872E+02  0.84879949805E+02  0.80435258287E+02 0.  0.
        -13    1    4    4    0    0  0.12935133632E+02  0.31253391187E+02 -0.15808533683E+02  0.37336334581E+02  0.00000000000E+00 0.  1.
         14    1    4    4    0    0 -0.32753875337E+02 -0.34376268045E+02 -0.24189241886E+01  0.47543615224E+02  0.00000000000E+00 0. -1.
        -11    1    3    3    0    0  0.33471219320E+02 -0.92938974881E+00 -0.15775056963E+02  0.37014033964E+02  0.00000000000E+00 0.  1.
         11    1    3    3    0    0 -0.20827775232E+02 -0.32964571864E+02 -0.15370084639E+03  0.15856988807E+03  0.00000000000E+00 0. -1.
          1    1    1    2  501    0  0.71752976169E+01  0.37016838472E+02  0.36734445053E+01  0.37884369084E+02  0.00000000000E+00 0. -1.
<scales pt_clust_5="13000.00000" pt_clust_6="13000.00000" pt_clust_7="13000.00000" pt_clust_8="13000.00000" pt_clust_9="37.70585"></scales>
<clustering>
<clus scale="   37.706">  1  9  2 -1</clus>
<clus scale="   80.435">  5  6 -1 -1</clus>
<clus scale="   85.064">  1  5  2 -1</clus>
<clus scale="   90.677">  7  8 -1 -1</clus>
<clus scale="   37.706">  1  5  2 -1</clus>
</clustering>
</event>
<event>
 9    2  0.5615294E-005  0.1033699E+03  0.7546771E-02  0.1278191E+00
         21   -1    0    0  501  502  0.00000000000E+00  0.00000000000E+00  0.47882083676E+03  0.47882083676E+03  0.00000000000E+00 0. -1.
          2   -1    0    0  502    0 -0.00000000000E+00 -0.00000000000E+00 -0.90572398192E+02  0.90572398192E+02  0.00000000000E+00 0. -1.
         24    2    1    2    0    0 -0.36362923940E+02 -0.52431437648E+02  0.13196950929E+02  0.10397780773E+03  0.81030285044E+02 0.  0.
         23    2    1    2    0    0  0.56475638287E+02 -0.30033497853E+02  0.38126645262E+02  0.11796278833E+03  0.91488084679E+02 0.  0.
        -13    1    3    3    0    0 -0.14425753541E+02 -0.38073879379E+02  0.46361462477E+02  0.61701765446E+02  0.00000000000E+00 0.  1.
         14    1    3    3    0    0 -0.21937170399E+02 -0.14357558269E+02 -0.33164511548E+02  0.42276042279E+02  0.00000000000E+00 0. -1.
        -11    1    4    4    0    0  0.56557076299E+01 -0.44558404352E+02 -0.10516998740E+02  0.46130745601E+02  0.00000000000E+00 0.  1.
         11    1    4    4    0    0  0.50819930657E+02  0.14524906499E+02  0.48643644002E+02  0.71832042729E+02  0.00000000000E+00 0. -1.
          1    1    1    2  501    0 -0.20112714348E+02  0.82464935502E+02  0.33692484238E+03  0.34745263890E+03  0.00000000000E+00 0. -1.
<scales pt_clust_5="13000.00000" pt_clust_6="13000.00000" pt_clust_7="13000.00000" pt_clust_8="13000.00000" pt_clust_9="84.88219"></scales>
<clustering>
<clus scale="   81.030">  5  6 -1 -1</clus>
<clus scale="   84.882">  1  9  2 -1</clus>
<clus scale="   91.488">  7  8 -1 -1</clus>
<clus scale="   94.240">  2  5  1 -1</clus>
<clus scale="   84.882">  1  5  2 -1</clus>
</clustering>
</event>
<event>
 9    2  0.5615294E-005  0.1043443E+03  0.7546771E-02  0.1275296E+00
         21   -1    0    0  501  502  0.00000000000E+00  0.00000000000E+00  0.93713471310E+02  0.93713471310E+02  0.00000000000E+00 0. -1.
          2   -1    0    0  502    0 -0.00000000000E+00 -0.00000000000E+00 -0.24498757296E+03  0.24498757296E+03  0.00000000000E+00 0. -1.
         24    2    1    2    0    0  0.79804079805E+02  0.62984972910E+01 -0.12412701101E+03  0.16910456820E+03  0.82343657332E+02 0.  0.
         23    2    1    2    0    0 -0.11835646551E+02 -0.38144544526E+01 -0.40266847930E+02  0.10032883270E+03  0.91048465315E+02 0.  0.
        -11    1    3    3    0    0  0.45616757915E+01  0.23876693034E+02 -0.17449613142E+01  0.24371094482E+02  0.00000000000E+00 0.  1.
         12    1    3    3    0    0  0.75242404014E+02 -0.17578195743E+02 -0.12238204969E+03  0.14473347372E+03  0.00000000000E+00 0. -1.
        -13    1    4    4    0    0 -0.47012844072E+02 -0.27707002445E+01 -0.44610693918E+02  0.64869085854E+02  0.00000000000E+00 0.  1.
         13    1    4    4    0    0  0.35177197521E+02 -0.10437542082E+01  0.43438459886E+01  0.35459746844E+02  0.00000000000E+00 0. -1.
          1    1    1    2  501    0 -0.67968433254E+02 -0.24840428384E+01  0.13119757282E+02  0.69267643377E+02  0.00000000000E+00 0. -1.
<scales pt_clust_5="13000.00000" pt_clust_6="13000.00000" pt_clust_7="13000.00000" pt_clust_8="13000.00000" pt_clust_9="68.01381"></scales>
<clustering>
<clus scale="   68.014">  1  9  2 -1</clus>
<clus scale="   82.344">  5  6 -1 -1</clus>
<clus scale="   91.048">  7  8 -1 -1</clus>
<clus scale="   96.842">  2  5  1 -1</clus>
<clus scale="   68.014">  1  5  2 -1</clus>
</clustering>
</event>
<event>
 9    2  0.5615294E-005  0.2744744E+03  0.7546771E-02  0.1099502E+00
          2   -1    0    0  502    0 -0.00000000000E+00  0.00000000000E+00  0.47943035882E+03  0.47943035882E+03  0.00000000000E+00 0. -1.
         21   -1    0    0  501  502  0.00000000000E+00 -0.00000000000E+00 -0.26375639966E+03  0.26375639966E+03  0.00000000000E+00 0. -1.
         24    2    1    2    0    0 -0.24668318588E+03 -0.14841956960E+03  0.22833735071E+03  0.37673929023E+03  0.83147965949E+02 0.  0.
         23    2    1    2    0    0  0.20861990202E+03  0.25774493414E+02 -0.38231418376E+02  0.23551102456E+03  0.99081851556E+02 0.  0.
        -13    1    3    3    0    0 -0.31955365398E+01 -0.23109968857E+02  0.62274750736E+01  0.24146709095E+02  0.00000000000E+00 0.  1.
         14    1    3    3    0    0 -0.24348764934E+03 -0.12530960074E+03  0.22210987564E+03  0.35259258114E+03  0.00000000000E+00 0. -1.
        -13    1    4    4    0    0  0.63851109841E+02  0.13114171145E+02  0.33679599688E+02  0.73370710422E+02  0.00000000000E+00 0.  1.
         13    1    4    4    0    0  0.14476879218E+03  0.12660322269E+02 -0.71911018065E+02  0.16214031414E+03  0.00000000000E+00 0. -1.
          1    1    1    2  501    0  0.38063283853E+02  0.12264507619E+03  0.25568026824E+02  0.13093644369E+03  0.00000000000E+00 0. -1.
<scales pt_clust_5="13000.00000" pt_clust_6="13000.00000" pt_clust_7="13000.00000" pt_clust_8="13000.00000" pt_clust_9="128.41584"></scales>
<clustering>
<clus scale="   83.148">  5  6 -1 -1</clus>
<clus scale="   99.082">  7  8 -1 -1</clus>
<clus scale="  128.416">  2  9  1 -1</clus>
<clus scale="  269.133">  1  5  2 -1</clus>
<clus scale="  128.416">  2  5  1 -1</clus>
</clustering>
</event>
<event>
 9    2  0.5615294E-005  0.1068498E+03  0.7546771E-02  0.1270163E+00
         21   -1    0    0  501  502  0.00000000000E+00  0.00000000000E+00  0.47906150673E+02  0.47906150673E+02  0.00000000000E+00 0.  1.
          2   -1    0    0  502    0 -0.00000000000E+00 -0.00000000000E+00 -0.80534687415E+03  0.80534687415E+03  0.00000000000E+00 0. -1.
         24    2    1    2    0    0  0.54160552087E+02 -0.20120983378E+01 -0.65893982148E+03  0.66634973385E+03  0.82963037135E+02 0.  0.
         23    2    1    2    0    0 -0.60617390771E+02  0.40242582267E+02 -0.57036487245E+02  0.13013570904E+03  0.91587162853E+02 0.  0.
        -11    1    3    3    0    0 -0.18750362195E+02 -0.77990706816E+01 -0.70017546988E+02  0.72903075876E+02  0.00000000000E+00 0.  1.
         12    1    3    3    0    0  0.72910914282E+02  0.57869723438E+01 -0.58892227449E+03  0.59344665797E+03  0.00000000000E+00 0. -1.
        -11    1    4    4    0    0 -0.43385103230E+02 -0.19361280482E+02 -0.25750819713E+01  0.47578959755E+02  0.00000000000E+00 0.  1.
         11    1    4    4    0    0 -0.17232287541E+02  0.59603862750E+02 -0.54461405274E+02  0.82556749288E+02  0.00000000000E+00 0. -1.
          1    1    1    2  501    0  0.64568386834E+01 -0.38230483930E+02 -0.41464414752E+02  0.56767581929E+02  0.00000000000E+00 0. -1.
<scales pt_clust_5="13000.00000" pt_clust_6="13000.00000" pt_clust_7="13000.00000" pt_clust_8="13000.00000" pt_clust_9="38.77191"></scales>
<clustering>
<clus scale="   38.772">  1  9  2 -1</clus>
<clus scale="   82.963">  5  6 -1 -1</clus>
<clus scale="   91.587">  7  8 -1 -1</clus>
<clus scale="   99.557">  2  5  1 -1</clus>
<clus scale="   38.772">  1  5  2 -1</clus>
</clustering>
</event>
<event>
 9    2  0.5615294E-005  0.9110618E+02  0.7546771E-02  0.1306393E+00
          2   -1    0    0  502    0 -0.00000000000E+00  0.00000000000E+00  0.42258487241E+03  0.42258487241E+03  0.00000000000E+00 0. -1.
         21   -1    0    0  501  502  0.00000000000E+00 -0.00000000000E+00 -0.24201658179E+02  0.24201658179E+02  0.00000000000E+00 0. -1.
         23    2    1    2    0    0  0.12441054639E+02 -0.11067922508E+01  0.17832606482E+03  0.19979273948E+03  0.89224147641E+02 0.  0.
         24    2    1    2    0    0 -0.16218896621E+02  0.23505321582E+02  0.13626270606E+03  0.16017515866E+03  0.79202295652E+02 0.  0.
        -13    1    4    4    0    0  0.14510792071E+02  0.43797994748E+02  0.89108717702E+02  0.10034535864E+03  0.00000000000E+00 0.  1.
         14    1    4    4    0    0 -0.30729688692E+02 -0.20292673166E+02  0.47153988361E+02  0.59829800014E+02  0.00000000000E+00 0. -1.
        -11    1    3    3    0    0  0.36842629315E+02 -0.27986429356E+02  0.58480839329E+02  0.74569619361E+02  0.00000000000E+00 0.  1.
         11    1    3    3    0    0 -0.24401574676E+02  0.26879637105E+02  0.11984522549E+03  0.12522312011E+03  0.00000000000E+00 0. -1.
          1    1    1    2  501    0  0.37778419817E+01 -0.22398529332E+02  0.83794443345E+02  0.86818632457E+02  0.00000000000E+00 0. -1.
<scales pt_clust_5="13000.00000" pt_clust_6="13000.00000" pt_clust_7="13000.00000" pt_clust_8="13000.00000" pt_clust_9="22.71490"></scales>
<clustering>
<clus scale="   22.715">  2  9  1 -1</clus>
<clus scale="   79.202">  5  6 -1 -1</clus>
<clus scale="   81.317">  2  5  1 -1</clus>
<clus scale="   89.224">  7  8 -1 -1</clus>
<clus scale="   22.715">  2  5  1 -1</clus>
</clustering>
</event>
<event>
 9    2  0.5615294E-005  0.1780104E+03  0.7546771E-02  0.1170738E+00
          2   -1    0    0  502    0 -0.00000000000E+00  0.00000000000E+00  0.77460999939E+03  0.77460999939E+03  0.00000000000E+00 0. -1.
         21   -1    0    0  501  502  0.00000000000E+00 -0.00000000000E+00 -0.72222367990E+02  0.72222367990E+02  0.00000000000E+00 0. -1.
         24    2    1    2    0    0 -0.13049244855E+03 -0.10592361594E+03  0.43386321159E+03  0.47215184569E+03  0.80261992732E+02 0.  0.
         23    2    1    2    0    0  0.49981163576E+02  0.12782406511E+03  0.11446880493E+03  0.19948112341E+03  0.88614349631E+02 0.  0.
        -13    1    3    3    0    0 -0.37320633421E+02 -0.34966776349E+02  0.52840551030E+02  0.73536582463E+02  0.00000000000E+00 0.  1.
         14    1    3    3    0    0 -0.93171815125E+02 -0.70956839590E+02  0.38102266056E+03  0.39861526323E+03  0.00000000000E+00 0. -1.
        -13    1    4    4    0    0  0.19647582061E+02  0.31760890673E+02  0.87587944755E+02  0.95217801506E+02  0.00000000000E+00 0.  1.
         13    1    4    4    0    0  0.30333581515E+02  0.96063174439E+02  0.26880860177E+02  0.10426332191E+03  0.00000000000E+00 0. -1.
          1    1    1    2  501    0  0.80511284970E+02 -0.21900449174E+02  0.15405561488E+03  0.17519939828E+03  0.00000000000E+00 0. -1.
<scales pt_clust_5="13000.00000" pt_clust_6="13000.00000" pt_clust_7="13000.00000" pt_clust_8="13000.00000" pt_clust_9="83.43682"></scales>
<clustering>
<clus scale="   80.262">  5  6 -1 -1</clus>
<clus scale="   83.437">  2  9  1 -1</clus>
<clus scale="   88.614">  7  8 -1 -1</clus>
<clus scale="  174.003">  1  5  2 -1</clus>
<clus scale="   83.437">  2  5  1 -1</clus>
</clustering>
</event>
<event>
 9    2  0.5615294E-005  0.1282744E+03  0.7546771E-02  0.1233440E+00
          4   -1    0    0  502    0 -0.00000000000E+00  0.00000000000E+00  0.15592397714E+03  0.15592397714E+03  0.00000000000E+00 0. -1.
         21   -1    0    0  501  502  0.00000000000E+00 -0.00000000000E+00 -0.12126592101E+03  0.12126592101E+03  0.00000000000E+00 0.  1.
         24    2    1    2    0    0 -0.70883861500E+02 -0.39399098544E+02  0.86790574098E+01  0.11414515049E+03  0.79855986345E+02 0.  0.
         23    2    1    2    0    0  0.91916799618E+02  0.36748871925E+02  0.86264836813E+01  0.13564916471E+03  0.92342308971E+02 0.  0.
        -11    1    3    3    0    0 -0.25009014552E+02 -0.87250613886E+01 -0.34910367165E+02  0.43821355989E+02  0.00000000000E+00 0.  1.
         12    1    3    3    0    0 -0.45874846948E+02 -0.30674037156E+02  0.43589424575E+02  0.70323794499E+02  0.00000000000E+00 0. -1.
        -11    1    4    4    0    0 -0.60651580794E+01  0.35457140205E+02 -0.63269346203E+01  0.36524307465E+02  0.00000000000E+00 0.  1.
         11    1    4    4    0    0  0.97981957697E+02  0.12917317195E+01  0.14953418302E+02  0.99124857245E+02  0.00000000000E+00 0. -1.
          3    1    1    2  501    0 -0.21032938118E+02  0.26502266194E+01  0.17352515044E+02  0.27395582954E+02  0.00000000000E+00 0. -1.
<scales pt_clust_5="13000.00000" pt_clust_6="13000.00000" pt_clust_7="13000.00000" pt_clust_8="13000.00000" pt_clust_9="21.19926"></scales>
<clustering>
<clus scale="   21.199">  2  9  1 -1</clus>
<clus scale="   79.856">  5  6 -1 -1</clus>
<clus scale="   92.342">  7  8 -1 -1</clus>
<clus scale="  119.600">  1  5  2 -1</clus>
<clus scale="   21.199">  2  5  1 -1</clus>
</clustering>
</event>
<event>
 9    2  0.6976592E-005  0.1459224E+03  0.7546771E-02  0.1220486E+00
          2   -1    0    0  502    0 -0.00000000000E+00  0.00000000000E+00  0.40040439022E+03  0.40040439022E+03  0.00000000000E+00 0. -1.
         21   -1    0    0  501  502  0.00000000000E+00 -0.00000000000E+00 -0.27890616652E+03  0.27890616652E+03  0.00000000000E+00 0. -1.
         23    2    1    2    0    0 -0.16144333405E+02 -0.51522792707E+02  0.63301323674E+02  0.12372284497E+03  0.91569902915E+02 0.  0.
         24    2    1    2    0    0 -0.55250261274E+02 -0.50353254156E+02  0.28027160216E+03  0.30104284265E+03  0.80539310648E+02 0.  0.
        -13    1    4    4    0    0  0.16850867425E+02 -0.22488087051E+02  0.41894253788E+02  0.50445954175E+02  0.00000000000E+00 0.  1.
         14    1    4    4    0    0 -0.72101128698E+02 -0.27865167104E+02  0.23837734837E+03  0.25059688847E+03  0.00000000000E+00 0. -1.
        -13    1    3    3    0    0 -0.30684606089E+02  0.70607092956E+01  0.54196554706E+02  0.62679065154E+02  0.00000000000E+00 0.  1.
         13    1    3    3    0    0  0.14540272683E+02 -0.58583502002E+02  0.91047689676E+01  0.61043779818E+02  0.00000000000E+00 0. -1.
          1    1    1    2  501    0  0.71394594679E+02  0.10187604686E+03 -0.22207470213E+03  0.25454486913E+03  0.00000000000E+00 0. -1.
<scales pt_clust_5="13000.00000" pt_clust_6="13000.00000" pt_clust_7="13000.00000" pt_clust_8="13000.00000" pt_clust_9="121.68308"></scales>
<clustering>
<clus scale="   80.539">  5  6 -1 -1</clus>
<clus scale="   91.570">  7  8 -1 -1</clus>
<clus scale="  106.303">  1  7  2 -1</clus>
<clus scale="  121.683">  2  9  1 -1</clus>
<clus scale="  121.683">  2  5  1 -1</clus>
</clustering>
</event>
<event>
 9    2  0.5615294E-005  0.1401513E+03  0.7546771E-02  0.1213474E+00
         21   -1    0    0  501  502  0.00000000000E+00  0.00000000000E+00  0.61026191489E+02  0.61026191489E+02  0.00000000000E+00 0. -1.
         -3   -1    0    0    0  501 -0.00000000000E+00 -0.00000000000E+00 -0.43932039188E+03  0.43932039188E+03  0.00000000000E+00 0.  1.
         23    2    1    2    0    0 -0.98769008461E+02  0.19307077407E+02 -0.18872230620E+03  0.22902420916E+03  0.81901765887E+02 0.  0.
         24    2    1    2    0    0  0.12951409541E+03 -0.33013316051E+02 -0.13689328504E+03  0.20880711838E+03  0.83647242917E+02 0.  0.
        -11    1    4    4    0    0  0.53966519017E+02  0.27753145007E+02 -0.54826860869E+02  0.81783903706E+02  0.00000000000E+00 0.  1.
         12    1    4    4    0    0  0.75547576397E+02 -0.60766461057E+02 -0.82066424175E+02  0.12702321467E+03  0.00000000000E+00 0. -1.
        -11    1    3    3    0    0 -0.93306946030E+02 -0.30490320605E+01 -0.18280243045E+03  0.20526132454E+03  0.00000000000E+00 0.  1.
         11    1    3    3    0    0 -0.54620624307E+01  0.22356109467E+02 -0.59198757430E+01  0.23762884617E+02  0.00000000000E+00 0. -1.
         -4    1    1    2    0  502 -0.30745086953E+02  0.13706238644E+02 -0.52678609152E+02  0.62515255832E+02  0.00000000000E+00 0.  1.
<scales pt_clust_5="13000.00000" pt_clust_6="13000.00000" pt_clust_7="13000.00000" pt_clust_8="13000.00000" pt_clust_9="33.66188"></scales>
<clustering>
<clus scale="   33.662">  1  9  2 -1</clus>
<clus scale="   81.902">  7  8 -1 -1</clus>
<clus scale="   83.647">  5  6 -1 -1</clus>
<clus scale="  139.117">  2  7  1 -1</clus>
<clus scale="   33.662">  1  5  2 -1</clus>
</clustering>
</event>
<event>
 9    2  0.5615294E-005  0.9340953E+02  0.7546771E-02  0.1301719E+00
          4   -1    0    0  502    0 -0.00000000000E+00  0.00000000000E+00  0.33037411020E+03  0.33037411020E+03  0.00000000000E+00 0. -1.
         21   -1    0    0  501  502  0.00000000000E+00 -0.00000000000E+00 -0.95000612907E+02  0.95000612907E+02  0.00000000000E+00 0. -1.
         24    2    1    2    0    0 -0.81764976098E+01  0.18210823704E+01  0.22318703005E+03  0.23740584653E+03  0.80491702227E+02 0.  0.
         23    2    1    2    0    0  0.48817259911E+02 -0.47031886511E+02  0.40139869315E+02  0.12105788302E+03  0.91916694445E+02 0.  0.
        -11    1    3    3    0    0 -0.82297089452E+01  0.31321749889E+02  0.19107482161E+03  0.19379981315E+03  0.00000000000E+00 0.  1.
         12    1    3    3    0    0  0.53211335376E-01 -0.29500667518E+02  0.32112208444E+02  0.43606033374E+02  0.00000000000E+00 0. -1.
        -11    1    4    4    0    0  0.25031648186E+02  0.10066748212E+02  0.51527510649E+02  0.58163624235E+02  0.00000000000E+00 0.  1.
         11    1    4    4    0    0  0.23785611725E+02 -0.57098634723E+02 -0.11387641334E+02  0.62894258781E+02  0.00000000000E+00 0. -1.
          3    1    1    2  501    0 -0.40640762302E+02  0.45210804141E+02 -0.27953402078E+02  0.66910993560E+02  0.00000000000E+00 0. -1.
<scales pt_clust_5="13000.00000" pt_clust_6="13000.00000" pt_clust_7="13000.00000" pt_clust_8="13000.00000" pt_clust_9="60.79217"></scales>
<clustering>
<clus scale="   60.792">  2  9  1 -1</clus>
<clus scale="   80.492">  5  6 -1 -1</clus>
<clus scale="   82.192">  1  5  2 -1</clus>
<clus scale="   91.917">  7  8 -1 -1</clus>
<clus scale="   60.792">  2  5  1 -1</clus>
</clustering>
</event>
<event>
 9    2  0.5615294E-005  0.2710118E+03  0.7546771E-02  0.1115224E+00
          2   -1    0    0  502    0 -0.00000000000E+00  0.00000000000E+00  0.27171244352E+03  0.27171244352E+03  0.00000000000E+00 0. -1.
         21   -1    0    0  501  502  0.00000000000E+00 -0.00000000000E+00 -0.57547293445E+03  0.57547293445E+03  0.00000000000E+00 0. -1.
         24    2    1    2    0    0 -0.16851095017E+03 -0.10989334276E+02 -0.21299482199E+03  0.28340483891E+03  0.80217222148E+02 0.  0.
         23    2    1    2    0    0  0.58726388237E+02  0.25876130778E+03 -0.86790865776E+01  0.28061661499E+03  0.90907397868E+02 0.  0.
        -11    1    3    3    0    0 -0.16642801520E+03 -0.22912638252E+02 -0.17106695157E+03  0.23976483302E+03  0.00000000000E+00 0.  1.
         12    1    3    3    0    0 -0.20829349670E+01  0.11923303975E+02 -0.41927870427E+02  0.43640005893E+02  0.00000000000E+00 0. -1.
        -11    1    4    4    0    0  0.57288381047E+02  0.10336737479E+03  0.26880288597E+02  0.12119951604E+03  0.00000000000E+00 0.  1.
         11    1    4    4    0    0  0.14380071900E+01  0.15539393299E+03 -0.35559375175E+02  0.15941709895E+03  0.00000000000E+00 0. -1.
          1    1    1    2  501    0  0.10978456193E+03 -0.24777197350E+03 -0.82086582357E+02  0.28316392407E+03  0.00000000000E+00 0. -1.
<scales pt_clust_5="13000.00000" pt_clust_6="13000.00000" pt_clust_7="13000.00000" pt_clust_8="13000.00000" pt_clust_9="255.31006"></scales>
<clustering>
<clus scale="   80.217">  5  6 -1 -1</clus>
<clus scale="   90.907">  7  8 -1 -1</clus>
<clus scale="  186.953">  1  5  2 -1</clus>
<clus scale="  255.310">  2  9  1 -1</clus>
<clus scale="  255.310">  2  5  1 -1</clus>
</clustering>
</event>
<event>
 9    2  0.5615294E-005  0.3093215E+03  0.7546771E-02  0.1088706E+00
         21   -1    0    0  501  502  0.00000000000E+00  0.00000000000E+00  0.22343611944E+03  0.22343611944E+03  0.00000000000E+00 0. -1.
          2   -1    0    0  502    0 -0.00000000000E+00 -0.00000000000E+00 -0.96048427743E+03  0.96048427743E+03  0.00000000000E+00 0. -1.
         23    2    1    2    0    0  0.22609095143E+03  0.58369744675E+02 -0.27379594105E+03  0.37049322152E+03  0.88186532084E+02 0.  0.
         24    2    1    2    0    0 -0.22631007378E+03  0.24198403621E+03 -0.13010841354E+03  0.36487702714E+03  0.80215474747E+02 0.  0.
        -11    1    4    4    0    0 -0.90635074099E+02  0.72733994444E+02 -0.83258216304E+02  0.14295762025E+03  0.00000000000E+00 0.  1.
         12    1    4    4    0    0 -0.13567499968E+03  0.16925004177E+03 -0.46850197237E+02  0.22191940690E+03  0.00000000000E+00 0. -1.
        -11    1    3    3    0    0  0.18682801513E+03  0.61811808108E+02 -0.17209902109E+03  0.26142585932E+03  0.00000000000E+00 0.  1.
         11    1    3    3    0    0  0.39262936300E+02 -0.34420634326E+01 -0.10169691996E+03  0.10906736220E+03  0.00000000000E+00 0. -1.
          1    1    1    2  501    0  0.21912234488E+00 -0.30035378089E+03 -0.33314380340E+03  0.44855014820E+03  0.00000000000E+00 0. -1.
<scales pt_clust_5="13000.00000" pt_clust_6="13000.00000" pt_clust_7="13000.00000" pt_clust_8="13000.00000" pt_clust_9="298.73957"></scales>
<clustering>
<clus scale="   80.215">  5  6 -1 -1</clus>
<clus scale="   88.187">  7  8 -1 -1</clus>
<clus scale="  249.602">  2  7  1 -1</clus>
<clus scale="  298.740">  1  9  2 -1</clus>
<clus scale="  298.740">  1  5  2 -1</clus>
</clustering>
</event>
<event>
 9    2  0.5615294E-005  0.1190849E+03  0.7546771E-02  0.1249221E+00
          2   -1    0    0  502    0 -0.00000000000E+00  0.00000000000E+00  0.43846430214E+03  0.43846430214E+03  0.00000000000E+00 0. -1.
         21   -1    0    0  501  502  0.00000000000E+00 -0.00000000000E+00 -0.14863972894E+03  0.14863972894E+03  0.00000000000E+00 0. -1.
         23    2    1    2    0    0 -0.41942459652E+02  0.63794153431E+02  0.36158441412E+03  0.38105281513E+03  0.92892924644E+02 0.  0.
         24    2    1    2    0    0  0.50628082410E+02 -0.25859406418E+02 -0.11315794948E+03  0.14923318655E+03  0.78955118939E+02 0.  0.
        -13    1    4    4    0    0  0.37703086368E+02 -0.10889229984E+00 -0.58868062095E+01  0.38160045421E+02  0.00000000000E+00 0.  1.
         14    1    4    4    0    0  0.12924996042E+02 -0.25750514118E+02 -0.10727114327E+03  0.11107314113E+03  0.00000000000E+00 0. -1.
        -11    1    3    3    0    0 -0.55952094563E+02  0.78459666151E+02  0.25597894398E+03  0.27351741418E+03  0.00000000000E+00 0. -1.
         11    1    3    3    0    0  0.14009634911E+02 -0.14665512719E+02  0.10560547014E+03  0.10753540095E+03  0.00000000000E+00 0.  1.
          1    1    1    2  501    0 -0.86856227576E+01 -0.37934747014E+02  0.41398108567E+02  0.56818029415E+02  0.00000000000E+00 0. -1.
<scales pt_clust_5="13000.00000" pt_clust_6="13000.00000" pt_clust_7="13000.00000" pt_clust_8="13000.00000" pt_clust_9="38.91641"></scales>
<clustering>
<clus scale="   38.916">  2  9  1 -1</clus>
<clus scale="   78.955">  5  6 -1 -1</clus>
<clus scale="   92.893">  7  8 -1 -1</clus>
<clus scale="  108.563">  2  5  1 -1</clus>
<clus scale="   38.916">  2  5  1 -1</clus>
</clustering>
</event>
<event>
 9    2  0.5615294E-005  0.1092146E+03  0.7546771E-02  0.1266601E+00
         21   -1    0    0  501  502  0.00000000000E+00  0.00000000000E+00  0.22555228562E+03  0.22555228562E+03  0.00000000000E+00 0.  1.
          2   -1    0    0  502    0 -0.00000000000E+00 -0.00000000000E+00 -0.21897957100E+03  0.21897957100E+03  0.00000000000E+00 0. -1.
         23    2    1    2    0    0 -0.25832517634E+02  0.46840408051E+02 -0.16305061592E+03  0.19500592841E+03  0.92630804642E+02 0.  0.
         24    2    1    2    0    0  0.23111505891E+02 -0.99294068444E+02  0.12125437846E+03  0.17812322574E+03  0.81435898227E+02 0.  0.
        -13    1    4    4    0    0 -0.27651888098E+02 -0.59969050799E+02  0.56186504416E+02  0.86705462617E+02  0.00000000000E+00 0.  1.
         14    1    4    4    0    0  0.50763393989E+02 -0.39325017645E+02  0.65067874041E+02  0.91417763122E+02  0.00000000000E+00 0. -1.
        -13    1    3    3    0    0  0.10430701642E+01 -0.23412119835E+02 -0.12149805768E+02  0.26397597064E+02  0.00000000000E+00 0.  1.
         13    1    3    3    0    0 -0.26875587798E+02  0.70252527886E+02 -0.15090081016E+03  0.16860833135E+03  0.00000000000E+00 0. -1.
          1    1    1    2  501    0  0.27210117429E+01  0.52453660393E+02  0.48368952086E+02  0.71402702466E+02  0.00000000000E+00 0. -1.
<scales pt_clust_5="13000.00000" pt_clust_6="13000.00000" pt_clust_7="13000.00000" pt_clust_8="13000.00000" pt_clust_9="52.52419"></scales>
<clustering>
<clus scale="   52.524">  1  9  2 -1</clus>
<clus scale="   81.436">  5  6 -1 -1</clus>
<clus scale="   92.631">  7  8 -1 -1</clus>
<clus scale="   99.896">  1  5  2 -1</clus>
<clus scale="   52.524">  1  5  2 -1</clus>
</clustering>
</event>
<event>
 9    2  0.5615294E-005  0.9745902E+02  0.7546771E-02  0.1289462E+00
         21   -1    0    0  501  502  0.00000000000E+00  0.00000000000E+00  0.26785767570E+02  0.26785767570E+02  0.00000000000E+00 0. -1.
          2   -1    0    0  502    0 -0.00000000000E+00 -0.00000000000E+00 -0.53766549113E+03  0.53766549113E+03  0.00000000000E+00 0. -1.
         23    2    1    2    0    0 -0.26103744138E+01 -0.43116571254E+02 -0.26694409961E+03  0.28511282877E+03  0.90356626976E+02 0.  0.
         24    2    1    2    0    0 -0.10523659140E+02  0.24169722520E+02 -0.96490487473E+02  0.13010185873E+03  0.83193488832E+02 0.  0.
        -13    1    4    4    0    0  0.27867546194E+02  0.37216179910E+02 -0.46822907498E+02  0.65985065314E+02  0.00000000000E+00 0.  1.
         14    1    4    4    0    0 -0.38391205334E+02 -0.13046457389E+02 -0.49667579975E+02  0.64116793417E+02  0.00000000000E+00 0. -1.
        -11    1    3    3    0    0  0.21153723541E+02 -0.56514617878E+02 -0.23718761162E+03  0.24474342720E+03  0.00000000000E+00 0.  1.
         11    1    3    3    0    0 -0.23764097955E+02  0.13398046624E+02 -0.29756487993E+02  0.40369401564E+02  0.00000000000E+00 0. -1.
          1    1    1    2  501    0  0.13134033554E+02  0.18946848733E+02 -0.14744513648E+03  0.14923657120E+03  0.00000000000E+00 0. -1.
<scales pt_clust_5="13000.00000" pt_clust_6="13000.00000" pt_clust_7="13000.00000" pt_clust_8="13000.00000" pt_clust_9="23.05399"></scales>
<clustering>
<clus scale="   23.054">  1  9  2 -1</clus>
<clus scale="   83.193">  5  6 -1 -1</clus>
<clus scale="   90.357">  7  8 -1 -1</clus>
<clus scale="   90.858">  1  5  2 -1</clus>
<clus scale="   23.054">  1  5  2 -1</clus>
</clustering>
</event>
<event>
 9    2  0.5615294E-005  0.1347920E+03  0.7546771E-02  0.1232587E+00
          2   -1    0    0  502    0 -0.00000000000E+00  0.00000000000E+00  0.25010202011E+03  0.25010202011E+03  0.00000000000E+00 0. -1.
         21   -1    0    0  501  502  0.00000000000E+00 -0.00000000000E+00 -0.63258795247E+03  0.63258795247E+03  0.00000000000E+00 0. -1.
         24    2    1    2    0    0  0.63820843479E+01  0.67562483258E+02  0.21419787429E+03  0.23850448074E+03  0.79988985747E+02 0.  0.
         23    2    1    2    0    0  0.62502206643E+02  0.32554306470E+02 -0.22600041951E+03  0.25408987454E+03  0.92299328395E+02 0.  0.
        -13    1    3    3    0    0 -0.27214157297E+02  0.76139741011E+01  0.26971394812E+02  0.39064550389E+02  0.00000000000E+00 0.  1.
         14    1    3    3    0    0  0.33596241645E+02  0.59948509157E+02  0.18722647948E+03  0.19943993036E+03  0.00000000000E+00 0. -1.
        -13    1    4    4    0    0  0.76657724393E+02  0.50781738897E+02 -0.16536426970E+03  0.18921028885E+03  0.00000000000E+00 0. -1.
         13    1    4    4    0    0 -0.14155517750E+02 -0.18227432426E+02 -0.60636149809E+02  0.64879585690E+02  0.00000000000E+00 0.  1.
          1    1    1    2  501    0 -0.68884290991E+02 -0.10011678973E+03 -0.37068338714E+03  0.39009561729E+03  0.00000000000E+00 0. -1.
<scales pt_clust_5="13000.00000" pt_clust_6="13000.00000" pt_clust_7="13000.00000" pt_clust_8="13000.00000" pt_clust_9="98.23295"></scales>
<clustering>
<clus scale="   79.989">  5  6 -1 -1</clus>
<clus scale="   92.299">  7  8 -1 -1</clus>
<clus scale="  104.898">  1  5  2 -1</clus>
<clus scale="   98.233">  2  9  1 -1</clus>
<clus scale="   98.233">  2  5  1 -1</clus>
</clustering>
</event>
<event>
 9    2  0.5615294E-005  0.1047084E+03  0.7546771E-02  0.1275051E+00
         21   -1    0    0  501  502  0.00000000000E+00  0.00000000000E+00  0.19386863418E+03  0.19386863418E+03  0.00000000000E+00 0. -1.
          2   -1    0    0  502    0 -0.00000000000E+00 -0.00000000000E+00 -0.42475971371E+03  0.42475971371E+03  0.00000000000E+00 0. -1.
         24    2    1    2    0    0 -0.68622796620E+02 -0.12628187654E+02 -0.23718782315E+03  0.26006246840E+03  0.80658940485E+02 0.  0.
         23    2    1    2    0    0  0.32317752183E+02  0.44305836925E+01 -0.16078526118E+03  0.18738862255E+03  0.90545725848E+02 0.  0.
        -13    1    3    3    0    0  0.15142037694E+02 -0.15726438105E+02 -0.64744417014E+02  0.68325995752E+02  0.00000000000E+00 0.  1.
         14    1    3    3    0    0 -0.83764834315E+02  0.30982504509E+01 -0.17244340614E+03  0.19173647265E+03  0.00000000000E+00 0. -1.
        -13    1    4    4    0    0  0.50854249131E+02 -0.18800385951E+02 -0.14256838972E+03  0.15252984926E+03  0.00000000000E+00 0. -1.
         13    1    4    4    0    0 -0.18536496948E+02  0.23230969643E+02 -0.18216871463E+02  0.34858773294E+02  0.00000000000E+00 0.  1.
          1    1    1    2  501    0  0.36305044437E+02  0.81976039618E+01  0.16708200481E+03  0.17117725694E+03  0.00000000000E+00 0. -1.
<scales pt_clust_5="13000.00000" pt_clust_6="13000.00000" pt_clust_7="13000.00000" pt_clust_8="13000.00000" pt_clust_9="37.21904"></scales>
<clustering>
<clus scale="   37.219">  1  9  2 -1</clus>
<clus scale="   80.659">  5  6 -1 -1</clus>
<clus scale="   90.546">  7  8 -1 -1</clus>
<clus scale="   96.287">  2  5  1 -1</clus>
<clus scale="   37.219">  1  5  2 -1</clus>
</clustering>
</event>
<event>
 9    2  0.5615294E-005  0.1427599E+03  0.7546771E-02  0.1211672E+00
         21   -1    0    0  501  502  0.00000000000E+00  0.00000000000E+00  0.27407741459E+03  0.27407741459E+03  0.00000000000E+00 0. -1.
          2   -1    0    0  502    0 -0.00000000000E+00 -0.00000000000E+00 -0.13763290783E+03  0.13763290783E+03  0.00000000000E+00 0. -1.
         24    2    1    2    0    0  0.69211364082E+02 -0.26059090672E+02  0.43280252417E+02  0.11746388714E+03  0.80344853031E+02 0.  0.
         23    2    1    2    0    0 -0.14216416304E+03  0.57128416350E+02  0.81026313796E+01  0.17795845837E+03  0.90162381643E+02 0.  0.
        -11    1    3    3    0    0  0.65983094699E+01 -0.40343719855E+02  0.32758567005E+02  0.52385848583E+02  0.00000000000E+00 0.  1.
         12    1    3    3    0    0  0.62613054612E+02  0.14284629183E+02  0.10521685412E+02  0.65078038559E+02  0.00000000000E+00 0. -1.
        -11    1    4    4    0    0 -0.13466961239E+03  0.15719364880E+02  0.88204340490E+01  0.13587053761E+03  0.00000000000E+00 0. -1.
         11    1    4    4    0    0 -0.74945506433E+01  0.41409051470E+02 -0.71780266941E+00  0.42087920757E+02  0.00000000000E+00 0.  1.
          1    1    1    2  501    0  0.72952798954E+02 -0.31069325678E+02  0.85061622960E+02  0.11628797691E+03  0.00000000000E+00 0. -1.
<scales pt_clust_5="13000.00000" pt_clust_6="13000.00000" pt_clust_7="13000.00000" pt_clust_8="13000.00000" pt_clust_9="79.29321"></scales>
<clustering>
<clus scale="   79.293">  1  9  2 -1</clus>
<clus scale="   80.345">  5  6 -1 -1</clus>
<clus scale="   90.162">  7  8 -1 -1</clus>
<clus scale="  136.771">  2  5  1 -1</clus>
<clus scale="   79.293">  1  5  2 -1</clus>
</clustering>
</event>
<event>
 9    2  0.5615294E-005  0.1270053E+03  0.7546771E-02  0.1246586E+00
         21   -1    0    0  501  502  0.00000000000E+00  0.00000000000E+00  0.24551679346E+02  0.24551679346E+02  0.00000000000E+00 0. -1.
          2   -1    0    0  502    0 -0.00000000000E+00 -0.00000000000E+00 -0.11326219776E+04  0.11326219776E+04  0.00000000000E+00 0. -1.
         24    2    1    2    0    0 -0.14494067650E+02  0.48421913597E+02 -0.44458896015E+03  0.45448966091E+03  0.79666484001E+02 0.  0.
         23    2    1    2    0    0 -0.56153367462E+02  0.40319853803E+02 -0.28095946696E+03  0.30369885437E+03  0.92281530013E+02 0.  0.
        -13    1    3    3    0    0  0.22678000927E+02  0.21781414737E+02 -0.65548523075E+02  0.72700279445E+02  0.00000000000E+00 0.  1.
         14    1    3    3    0    0 -0.37172068576E+02  0.26640498860E+02 -0.37904043707E+03  0.38178938147E+03  0.00000000000E+00 0. -1.
        -11    1    4    4    0    0 -0.13309251063E+02  0.62459817722E+02 -0.19427417690E+03  0.20450139560E+03  0.00000000000E+00 0.  1.
         11    1    4    4    0    0 -0.42844116400E+02 -0.22139963919E+02 -0.86685290062E+02  0.99197458766E+02  0.00000000000E+00 0. -1.
          1    1    1    2  501    0  0.70647435112E+02 -0.88741767400E+02 -0.38252187114E+03  0.39898514166E+03  0.00000000000E+00 0. -1.
<scales pt_clust_5="13000.00000" pt_clust_6="13000.00000" pt_clust_7="13000.00000" pt_clust_8="13000.00000" pt_clust_9="87.26089"></scales>
<clustering>
<clus scale="   79.666">  5  6 -1 -1</clus>
<clus scale="   92.282">  7  8 -1 -1</clus>
<clus scale="   94.348">  2  5  1 -1</clus>
<clus scale="   87.261">  1  9  2 -1</clus>
<clus scale="   87.261">  1  5  2 -1</clus>
</clustering>
</event>
<event>
 9    2  0.5615294E-005  0.1364425E+03  0.7546771E-02  0.1225679E+00
          2   -1    0    0  502    0 -0.00000000000E+00  0.00000000000E+00  0.49169204797E+03  0.49169204797E+03  0.00000000000E+00 0. -1.
         21   -1    0    0  501  502  0.00000000000E+00 -0.00000000000E+00 -0.84383151550E+02  0.84383151550E+02  0.00000000000E+00 0. -1.
         24    2    1    2    0    0 -0.41227296727E+02  0.88317192453E+02  0.34056434194E+03  0.36417965363E+03  0.84517055317E+02 0.  0.
         23    2    1    2    0    0 -0.21538398856E+02 -0.35127341926E+02  0.50433427880E+02  0.12802215564E+03  0.11021936722E+03 0.  0.
        -13    1    3    3    0    0 -0.32080680209E+02 -0.61888387763E+01  0.65644592542E+02  0.73325877411E+02  0.00000000000E+00 0.  1.
         14    1    3    3    0    0 -0.91466165184E+01  0.94506031229E+02  0.27491974940E+03  0.29085377622E+03  0.00000000000E+00 0. -1.
        -11    1    4    4    0    0  0.13200359187E+02 -0.48329575425E+02 -0.15408935782E+02  0.52415957927E+02  0.00000000000E+00 0.  1.
         11    1    4    4    0    0 -0.34738758043E+02  0.13202233499E+02  0.65842363662E+02  0.75606197712E+02  0.00000000000E+00 0. -1.
          1    1    1    2  501    0  0.62765695584E+02 -0.53189850527E+02  0.16311126600E+02  0.83873390250E+02  0.00000000000E+00 0. -1.
<scales pt_clust_5="13000.00000" pt_clust_6="13000.00000" pt_clust_7="13000.00000" pt_clust_8="13000.00000" pt_clust_9="82.27207"></scales>
<clustering>
<clus scale="   82.272">  2  9  1 -1</clus>
<clus scale="   84.517">  5  6 -1 -1</clus>
<clus scale="  110.219">  7  8 -1 -1</clus>
<clus scale="  116.668">  1  5  2 -1</clus>
<clus scale="   82.272">  2  5  1 -1</clus>
</clustering>
</event>
<event>
 9    2  0.5615294E-005  0.1939159E+03  0.7546771E-02  0.1178648E+00
         21   -1    0    0  501  502  0.00000000000E+00  0.00000000000E+00  0.56088849863E+02  0.56088849863E+02  0.00000000000E+00 0.  1.
          2   -1    0    0  502    0 -0.00000000000E+00 -0.00000000000E+00 -0.18446898570E+04  0.18446898570E+04  0.00000000000E+00 0. -1.
         24    2    1    2    0    0  0.29474951451E+02 -0.70553338955E+02 -0.24347995255E+03  0.26821064093E+03  0.82510085537E+02 0.  0.
         23    2    1    2    0    0 -0.65536780161E+02 -0.14878326716E+03 -0.21737337544E+03  0.28634263839E+03  0.91155866888E+02 0.  0.
        -13    1    3    3    0    0 -0.19178651168E+02 -0.31953267340E+02 -0.15929297945E+03  0.16359427024E+03  0.00000000000E+00 0.  1.
         14    1    3    3    0    0  0.48653602619E+02 -0.38600071615E+02 -0.84186973094E+02  0.10461637068E+03  0.00000000000E+00 0. -1.
        -11    1    4    4    0    0 -0.48900190692E+02 -0.43227732111E+02 -0.13983333602E+03  0.15431535029E+03  0.00000000000E+00 0. -1.
         11    1    4    4    0    0 -0.16636589469E+02 -0.10555553505E+03 -0.77540039424E+02  0.13202728810E+03  0.00000000000E+00 0.  1.
          1    1    1    2  501    0  0.36061828709E+02  0.21933660612E+03 -0.13277476792E+04  0.13462254276E+04  0.00000000000E+00 0. -1.
<scales pt_clust_5="13000.00000" pt_clust_6="13000.00000" pt_clust_7="13000.00000" pt_clust_8="13000.00000" pt_clust_9="171.15491"></scales>
<clustering>
<clus scale="   82.510">  5  6 -1 -1</clus>
<clus scale="   91.156">  7  8 -1 -1</clus>
<clus scale="  112.492">  2  5  1 -1</clus>
<clus scale="  171.155">  1  9  2 -1</clus>
<clus scale="  171.155">  1  5  2 -1</clus>
</clustering>
</event>
<event>
 9    2  0.5615294E-005  0.9301558E+02  0.7546771E-02  0.1302673E+00
         21   -1    0    0  501  502  0.00000000000E+00  0.00000000000E+00  0.15355653577E+03  0.15355653577E+03  0.00000000000E+00 0. -1.
          2   -1    0    0  502    0 -0.00000000000E+00 -0.00000000000E+00 -0.60773690647E+03  0.60773690647E+03  0.00000000000E+00 0. -1.
         24    2    1    2    0    0 -0.13812918534E+02 -0.40014996239E+01 -0.52079391711E+03  0.52711876236E+03  0.80131621873E+02 0.  0.
         23    2    1    2    0    0  0.32043000479E+02  0.15195057698E+02 -0.53743713267E+02  0.11193106415E+03  0.91556172642E+02 0.  0.
        -11    1    3    3    0    0  0.29394470059E+02  0.14444668335E+02 -0.16338330540E+03  0.16663369346E+03  0.00000000000E+00 0.  1.
         12    1    3    3    0    0 -0.43207388593E+02 -0.18446167959E+02 -0.35741061171E+03  0.36048506890E+03  0.00000000000E+00 0. -1.
        -13    1    4    4    0    0  0.30285307495E+02  0.52578880026E+02 -0.31009324457E+02  0.68141886370E+02  0.00000000000E+00 0.  1.
         13    1    4    4    0    0  0.17576929842E+01 -0.37383822327E+02 -0.22734388810E+02  0.43789177784E+02  0.00000000000E+00 0. -1.
          1    1    1    2  501    0 -0.18230081945E+02 -0.11193558074E+02  0.12035725967E+03  0.12224361573E+03  0.00000000000E+00 0. -1.
<scales pt_clust_5="13000.00000" pt_clust_6="13000.00000" pt_clust_7="13000.00000" pt_clust_8="13000.00000" pt_clust_9="21.39233"></scales>
<clustering>
<clus scale="   21.392">  1  9  2 -1</clus>
<clus scale="   80.132">  5  6 -1 -1</clus>
<clus scale="   81.795">  2  5  1 -1</clus>
<clus scale="   91.556">  7  8 -1 -1</clus>
<clus scale="   21.392">  1  5  2 -1</clus>
</clustering>
</event>
<event>
 9    2  0.5615294E-005  0.1109196E+03  0.7546771E-02  0.1262649E+00
          2   -1    0    0  502    0 -0.00000000000E+00  0.00000000000E+00  0.10720390642E+03  0.10720390642E+03  0.00000000000E+00 0. -1.
         21   -1    0    0  501  502  0.00000000000E+00 -0.00000000000E+00 -0.48656046271E+03  0.48656046271E+03  0.00000000000E+00 0. -1.
         24    2    1    2    0    0 -0.13191693613E+02 -0.72462146610E+02  0.33181107364E+02  0.11365759194E+03  0.79951728234E+02 0.  0.
         23    2    1    2    0    0 -0.95293107486E+01 -0.14683522042E+02 -0.36876504432E+03  0.37997359684E+03  0.89921425696E+02 0.  0.
        -13    1    3    3    0    0  0.32233841513E+02 -0.17552855447E+02  0.17625792145E+02  0.40715989756E+02  0.00000000000E+00 0.  1.
         14    1    3    3    0    0 -0.45425535126E+02 -0.54909291162E+02  0.15555315219E+02  0.72941602183E+02  0.00000000000E+00 0. -1.
        -11    1    4    4    0    0  0.27522712704E+02  0.22836551227E+02 -0.10312229720E+03  0.10914767962E+03  0.00000000000E+00 0.  1.
         11    1    4    4    0    0 -0.37052023453E+02 -0.37520073269E+02 -0.26564274713E+03  0.27082591723E+03  0.00000000000E+00 0. -1.
          1    1    1    2  501    0  0.22721004362E+02  0.87145668652E+02 -0.43772619333E+02  0.10013318035E+03  0.00000000000E+00 0. -1.
<scales pt_clust_5="13000.00000" pt_clust_6="13000.00000" pt_clust_7="13000.00000" pt_clust_8="13000.00000" pt_clust_9="90.05898"></scales>
<clustering>
<clus scale="   79.952">  5  6 -1 -1</clus>
<clus scale="   89.921">  7  8 -1 -1</clus>
<clus scale="   90.059">  2  9  1 -1</clus>
<clus scale="  103.003">  1  5  2 -1</clus>
<clus scale="   90.059">  2  5  1 -1</clus>
</clustering>
</event>
<event>
 9    2  0.5615294E-005  0.2488159E+03  0.7546771E-02  0.1115454E+00
         21   -1    0    0  501  502  0.00000000000E+00  0.00000000000E+00  0.14851400726E+03  0.14851400726E+03  0.00000000000E+00 0. -1.
          2   -1    0    0  502    0 -0.00000000000E+00 -0.00000000000E+00 -0.99312422053E+03  0.99312422053E+03  0.00000000000E+00 0. -1.
         24    2    1    2    0    0 -0.17102036931E+03  0.15400987513E+03 -0.56303305164E+03  0.61376810406E+03  0.82085686739E+02 0.  0.
         23    2    1    2    0    0  0.56482907043E+02 -0.23950170420E+03 -0.27678260989E+03  0.38486428179E+03  0.10469248854E+03 0.  0.
        -11    1    3    3    0    0 -0.35122064956E+02  0.65586278220E+02 -0.11181036083E+03  0.13430069295E+03  0.00000000000E+00 0.  1.
         12    1    3    3    0    0 -0.13589830436E+03  0.88423596909E+02 -0.45122269081E+03  0.47946741111E+03  0.00000000000E+00 0. -1.
        -13    1    4    4    0    0  0.65950608266E+02 -0.70151805451E+02 -0.12034751665E+03  0.15412424631E+03  0.00000000000E+00 0.  1.
         13    1    4    4    0    0 -0.94677012224E+01 -0.16934989875E+03 -0.15643509325E+03  0.23074003548E+03  0.00000000000E+00 0. -1.
          1    1    1    2  501    0  0.11453746227E+03  0.85491829075E+02 -0.47945517441E+01  0.14300584194E+03  0.00000000000E+00 0. -1.
<scales pt_clust_5="13000.00000" pt_clust_6="13000.00000" pt_clust_7="13000.00000" pt_clust_8="13000.00000" pt_clust_9="142.92545"></scales>
<clustering>
<clus scale="   82.086">  5  6 -1 -1</clus>
<clus scale="  104.692">  7  8 -1 -1</clus>
<clus scale="  142.925">  1  9  2 -1</clus>
<clus scale="  240.181">  2  5  1 -1</clus>
<clus scale="  142.925">  1  5  2 -1</clus>
</clustering>
</event>
<event>
 9    2  0.5615294E-005  0.1000698E+03  0.7546771E-02  0.1286760E+00
         21   -1    0    0  501  502  0.00000000000E+00  0.00000000000E+00  0.25749627614E+02  0.25749627614E+02  0.00000000000E+00 0.  1.
          2   -1    0    0  502    0 -0.00000000000E+00 -0.00000000000E+00 -0.68422363259E+03  0.68422363259E+03  0.00000000000E+00 0. -1.
         24    2    1    2    0    0  0.46459925983E+02 -0.30724252026E+01 -0.49357693945E+03  0.50178360799E+03  0.77463730627E+02 0.  0.
         23    2    1    2    0    0 -0.23797652433E+02 -0.13321470921E+02 -0.10093898676E+03  0.13838295977E+03  0.90649736106E+02 0.  0.
        -11    1    3    3    0    0  0.23806896280E+02 -0.33738304031E+02 -0.13469322856E+03  0.14088047164E+03  0.00000000000E+00 0.  1.
         12    1    3    3    0    0  0.22653029703E+02  0.30665878829E+02 -0.35888371090E+03  0.36090313635E+03  0.00000000000E+00 0. -1.
        -11    1    4    4    0    0 -0.11503952050E+02 -0.36362491344E+02 -0.44209968598E+01  0.38394230071E+02  0.00000000000E+00 0.  1.
         11    1    4    4    0    0 -0.12293700383E+02  0.23041020423E+02 -0.96517989903E+02  0.99988729695E+02  0.00000000000E+00 0. -1.
          1    1    1    2  501    0 -0.22662273550E+02  0.16393896123E+02 -0.63958078763E+02  0.69806692455E+02  0.00000000000E+00 0. -1.
<scales pt_clust_5="13000.00000" pt_clust_6="13000.00000" pt_clust_7="13000.00000" pt_clust_8="13000.00000" pt_clust_9="27.97031"></scales>
<clustering>
<clus scale="   27.970">  1  9  2 -1</clus>
<clus scale="   77.464">  5  6 -1 -1</clus>
<clus scale="   88.302">  2  5  1 -1</clus>
<clus scale="   90.650">  7  8 -1 -1</clus>
<clus scale="   27.970">  1  5  2 -1</clus>
</clustering>
</event>
<event>
 9    2  0.5615294E-005  0.1259902E+03  0.7546771E-02  0.1236003E+00
         21   -1    0    0  501  502  0.00000000000E+00  0.00000000000E+00  0.23268343933E+03  0.23268343933E+03  0.00000000000E+00 0.  1.
          4   -1    0    0  502    0 -0.00000000000E+00 -0.00000000000E+00 -0.16287977550E+03  0.16287977550E+03  0.00000000000E+00 0. -1.
         24    2    1    2    0    0 -0.35411473786E+02  0.83218034380E+02 -0.10723966859E+03  0.16225929639E+03  0.81538451192E+02 0.  0.
         23    2    1    2    0    0  0.10718276210E+02 -0.75740492577E+02  0.11071114319E+03  0.16213070039E+03  0.90431759480E+02 0.  0.
        -11    1    3    3    0    0 -0.33253675798E+02 -0.37210915538E+01 -0.41109459319E+02  0.53006047975E+02  0.00000000000E+00 0.  1.
         12    1    3    3    0    0 -0.21577979880E+01  0.86939125934E+02 -0.66130209274E+02  0.10925324841E+03  0.00000000000E+00 0. -1.
        -13    1    4    4    0    0  0.36733833162E+02 -0.55137786037E+02  0.11062220011E+03  0.12894503133E+03  0.00000000000E+00 0.  1.
         13    1    4    4    0    0 -0.26015556952E+02 -0.20602706540E+02  0.88943082562E-01  0.33185669064E+02  0.00000000000E+00 0. -1.
          3    1    1    2  501    0  0.24693197576E+02 -0.74775418031E+01  0.66332189241E+02  0.71173218049E+02  0.00000000000E+00 0. -1.
<scales pt_clust_5="13000.00000" pt_clust_6="13000.00000" pt_clust_7="13000.00000" pt_clust_8="13000.00000" pt_clust_9="25.80054"></scales>
<clustering>
<clus scale="   25.801">  1  9  2 -1</clus>
<clus scale="   81.538">  5  6 -1 -1</clus>
<clus scale="   90.432">  7  8 -1 -1</clus>
<clus scale="  119.767">  2  5  1 -1</clus>
<clus scale="   25.801">  1  5  2 -1</clus>
</clustering>
</event>
<event>
 9    2  0.5615294E-005  0.1142499E+03  0.7546771E-02  0.1258446E+00
          2   -1    0    0  502    0 -0.00000000000E+00  0.00000000000E+00  0.54406436264E+03  0.54406436264E+03  0.00000000000E+00 0. -1.
         21   -1    0    0  501  502  0.00000000000E+00 -0.00000000000E+00 -0.19671474768E+03  0.19671474768E+03  0.00000000000E+00 0.  1.
         24    2    1    2    0    0 -0.19940448244E+02  0.62792197322E+02  0.47348539742E+03  0.48441272219E+03  0.78273765285E+02 0.  0.
         23    2    1    2    0    0 -0.58396173793E+02 -0.87552752647E+02 -0.86978532416E+02  0.16535539053E+03  0.93282058644E+02 0.  0.
        -13    1    3    3    0    0 -0.46100833241E+02  0.18482745448E+02  0.19588643560E+03  0.20208511661E+03  0.00000000000E+00 0.  1.
         14    1    3    3    0    0  0.26160384997E+02  0.44309451875E+02  0.27759896182E+03  0.28232760558E+03  0.00000000000E+00 0. -1.
        -11    1    4    4    0    0 -0.30556242795E+01 -0.63157788091E+02 -0.49269935593E+01  0.63423326164E+02  0.00000000000E+00 0. -1.
         11    1    4    4    0    0 -0.55340549513E+02 -0.24394964556E+02 -0.82051538857E+02  0.10193206436E+03  0.00000000000E+00 0.  1.
          1    1    1    2  501    0  0.78336622037E+02  0.24760555324E+02 -0.39157250053E+02  0.91010997598E+02  0.00000000000E+00 0. -1.
<scales pt_clust_5="13000.00000" pt_clust_6="13000.00000" pt_clust_7="13000.00000" pt_clust_8="13000.00000" pt_clust_9="82.15663"></scales>
<clustering>
<clus scale="   78.274">  5  6 -1 -1</clus>
<clus scale="   82.157">  2  9  1 -1</clus>
<clus scale="   93.282">  7  8 -1 -1</clus>
<clus scale="  102.364">  1  5  2 -1</clus>
<clus scale="   82.157">  2  5  1 -1</clus>
</clustering>
</event>
<event>
 9    2  0.5615294E-005  0.1202556E+03  0.7546771E-02  0.1245019E+00
         21   -1    0    0  501  502  0.00000000000E+00  0.00000000000E+00  0.45996116519E+02  0.45996116519E+02  0.00000000000E+00 0. -1.
          2   -1    0    0  502    0 -0.00000000000E+00 -0.00000000000E+00 -0.89677436448E+03  0.89677436448E+03  0.00000000000E+00 0. -1.
         24    2    1    2    0    0  0.35381658601E+02  0.76245928318E+02 -0.67255089246E+03  0.68272097257E+03  0.81962919021E+02 0.  0.
         23    2    1    2    0    0 -0.26830545209E+02 -0.43689025047E+02 -0.29185800584E+02  0.10725402883E+03  0.89571238016E+02 0.  0.
        -11    1    3    3    0    0  0.36378680044E+02  0.39777878848E+02 -0.15925817184E+03  0.16813343899E+03  0.00000000000E+00 0.  1.
         12    1    3    3    0    0 -0.99702144291E+00  0.36468049470E+02 -0.51329272062E+03  0.51458753359E+03  0.00000000000E+00 0. -1.
        -13    1    4    4    0    0  0.49904826960E+01 -0.34534024545E+02  0.25574279945E+02  0.43261386519E+02  0.00000000000E+00 0.  1.
         13    1    4    4    0    0 -0.31821027905E+02 -0.91550005019E+01 -0.54760080529E+02  0.63992642316E+02  0.00000000000E+00 0. -1.
          1    1    1    2  501    0 -0.85511133917E+01 -0.32556903271E+02 -0.14904155492E+03  0.15279547959E+03  0.00000000000E+00 0. -1.
<scales pt_clust_5="13000.00000" pt_clust_6="13000.00000" pt_clust_7="13000.00000" pt_clust_8="13000.00000" pt_clust_9="33.66117"></scales>
<clustering>
<clus scale="   33.661">  1  9  2 -1</clus>
<clus scale="   81.963">  5  6 -1 -1</clus>
<clus scale="   89.571">  7  8 -1 -1</clus>
<clus scale="  114.701">  2  5  1 -1</clus>
<clus scale="   33.661">  1  5  2 -1</clus>
</clustering>
</event>
<event>
 9    2  0.5883303E-005  0.1580821E+03  0.7546771E-02  0.1217607E+00
          2   -1    0    0  502    0 -0.00000000000E+00  0.00000000000E+00  0.15115274488E+04  0.15115274488E+04  0.00000000000E+00 0. -1.
         21   -1    0    0  501  502  0.00000000000E+00 -0.00000000000E+00 -0.43167819495E+02  0.43167819495E+02  0.00000000000E+00 0. -1.
         24    2    1    2    0    0  0.30022805998E+02 -0.22050877135E+02  0.50162896883E+02  0.10201411040E+03  0.80640885620E+02 0.  0.
         23    2    1    2    0    0  0.95209252076E+02  0.78953227939E+02  0.47965854468E+03  0.50411651817E+03  0.93609457456E+02 0.  0.
        -11    1    3    3    0    0  0.23165152496E+02  0.16739012961E+02  0.55339656414E+02  0.62283998082E+02  0.00000000000E+00 0.  1.
         12    1    3    3    0    0  0.68576535025E+01 -0.38789890096E+02 -0.51767595302E+01  0.39730112314E+02  0.00000000000E+00 0. -1.
        -11    1    4    4    0    0  0.17538036542E+01  0.52847907612E+02  0.23592780673E+03  0.24178070054E+03  0.00000000000E+00 0.  1.
         11    1    4    4    0    0  0.93455448422E+02  0.26105320327E+02  0.24373073795E+03  0.26233581763E+03  0.00000000000E+00 0. -1.
          1    1    1    2  501    0 -0.12523205807E+03 -0.56902350804E+02  0.93853818778E+03  0.94856463976E+03  0.00000000000E+00 0. -1.
<scales pt_clust_5="13000.00000" pt_clust_6="13000.00000" pt_clust_7="13000.00000" pt_clust_8="13000.00000" pt_clust_9="127.38611"></scales>
<clustering>
<clus scale="   80.641">  5  6 -1 -1</clus>
<clus scale="   88.829">  1  5  2 -1</clus>
<clus scale="   93.609">  7  8 -1 -1</clus>
<clus scale="  127.386">  2  9  1 -1</clus>
<clus scale="  127.386">  2  5  1 -1</clus>
</clustering>
</event>
<event>
 9    2  0.5615294E-005  0.9260268E+02  0.7546771E-02  0.1301989E+00
          2   -1    0    0  502    0 -0.00000000000E+00  0.00000000000E+00  0.41170892278E+03  0.41170892278E+03  0.00000000000E+00 0. -1.
         21   -1    0    0  501  502  0.00000000000E+00 -0.00000000000E+00 -0.28141803818E+02  0.28141803818E+02  0.00000000000E+00 0. -1.
         23    2    1    2    0    0  0.29509322546E+02 -0.18403095943E+02  0.19054844194E+03  0.21384515960E+03  0.90617710752E+02 0.  0.
         24    2    1    2    0    0  0.38636665890E+01  0.87501855219E+01  0.12564207939E+03  0.15019962401E+03  0.81746567351E+02 0.  0.
        -13    1    4    4    0    0 -0.14303876258E+02 -0.33437865794E+02  0.55013783459E+02  0.65948526256E+02  0.00000000000E+00 0.  1.
         14    1    4    4    0    0  0.18167542847E+02  0.42188051316E+02  0.70628295930E+02  0.84251097755E+02  0.00000000000E+00 0. -1.
        -11    1    3    3    0    0 -0.29304365159E+02  0.10974313275E+02  0.59082234128E+02  0.66857249111E+02  0.00000000000E+00 0.  1.
         11    1    3    3    0    0  0.58813687704E+02 -0.29377409218E+02  0.13146620781E+03  0.14698791049E+03  0.00000000000E+00 0. -1.
          1    1    1    2  501    0 -0.33372989135E+02  0.96529104213E+01  0.67376597633E+02  0.75805942986E+02  0.00000000000E+00 0. -1.
<scales pt_clust_5="13000.00000" pt_clust_6="13000.00000" pt_clust_7="13000.00000" pt_clust_8="13000.00000" pt_clust_9="34.74099"></scales>
<clustering>
<clus scale="   34.741">  2  9  1 -1</clus>
<clus scale="   81.747">  5  6 -1 -1</clus>
<clus scale="   83.942">  2  5  1 -1</clus>
<clus scale="   90.618">  7  8 -1 -1</clus>
<clus scale="   34.741">  2  5  1 -1</clus>
</clustering>
</event>
<event>
 9    2  0.5615294E-005  0.1912079E+03  0.7546771E-02  0.1158399E+00
          2   -1    0    0  502    0 -0.00000000000E+00  0.00000000000E+00  0.20089470392E+04  0.20089470392E+04  0.00000000000E+00 0. -1.
         21   -1    0    0  501  502  0.00000000000E+00 -0.00000000000E+00 -0.25307466160E+02  0.25307466160E+02  0.00000000000E+00 0.  1.
         24    2    1    2    0    0  0.12721241648E+03  0.11657275916E+03  0.13542417300E+04  0.13675376967E+04  0.80102943459E+02 0.  0.
         23    2    1    2    0    0 -0.10621901458E+03 -0.12134812018E+03  0.61125003464E+03  0.63855886226E+03  0.90127522969E+02 0.  0.
        -11    1    3    3    0    0  0.10315600940E+02  0.18072445028E+02  0.47151480289E+02  0.51539179131E+02  0.00000000000E+00 0.  1.
         12    1    3    3    0    0  0.11689681554E+03  0.98500314127E+02  0.13070902497E+04  0.13159985176E+04  0.00000000000E+00 0. -1.
        -11    1    4    4    0    0 -0.93854259634E+02 -0.70806436949E+02  0.52352429857E+03  0.53656301099E+03  0.00000000000E+00 0. -1.
         11    1    4    4    0    0 -0.12364754948E+02 -0.50541683230E+02  0.87725736072E+02  0.10199585128E+03  0.00000000000E+00 0.  1.
          1    1    1    2  501    0 -0.20993401897E+02  0.47753610242E+01  0.18147808436E+02  0.28157946430E+02  0.00000000000E+00 0. -1.
<scales pt_clust_5="13000.00000" pt_clust_6="13000.00000" pt_clust_7="13000.00000" pt_clust_8="13000.00000" pt_clust_9="21.52968"></scales>
<clustering>
<clus scale="   21.530">  2  9  1 -1</clus>
<clus scale="   80.103">  5  6 -1 -1</clus>
<clus scale="   90.128">  7  8 -1 -1</clus>
<clus scale="  186.692">  1  5  2 -1</clus>
<clus scale="   21.530">  2  5  1 -1</clus>
</clustering>
</event>
<event>
 9    2  0.5615294E-005  0.1495256E+03  0.7546771E-02  0.1202918E+00
          2   -1    0    0  502    0 -0.00000000000E+00  0.00000000000E+00  0.63597595153E+02  0.63597595153E+02  0.00000000000E+00 0. -1.
         21   -1    0    0  501  502  0.00000000000E+00 -0.00000000000E+00 -0.10203607439E+04  0.10203607439E+04  0.00000000000E+00 0. -1.
         24    2    1    2    0    0  0.10497479728E+03  0.47737537346E+02 -0.12069972123E+03  0.18459487705E+03  0.78792546564E+02 0.  0.
         23    2    1    2    0    0 -0.50818827390E+02 -0.16582304194E+03 -0.41128765658E+03  0.45516585839E+03  0.89098752734E+02 0.  0.
        -11    1    3    3    0    0  0.66063835711E+02  0.67462004600E+01 -0.10781610564E+03  0.12662643581E+03  0.00000000000E+00 0.  1.
         12    1    3    3    0    0  0.38910961568E+02  0.40991336886E+02 -0.12883615586E+02  0.57968441245E+02  0.00000000000E+00 0. -1.
        -11    1    4    4    0    0 -0.66890275611E+02 -0.12590822173E+03 -0.24561237020E+03  0.28399405921E+03  0.00000000000E+00 0. -1.
         11    1    4    4    0    0  0.16071448221E+02 -0.39914820213E+02 -0.16567528637E+03  0.17117179918E+03  0.00000000000E+00 0.  1.
          1    1    1    2  501    0 -0.54155969889E+02  0.11808550459E+03 -0.42477577091E+03  0.44419760358E+03  0.00000000000E+00 0. -1.
<scales pt_clust_5="13000.00000" pt_clust_6="13000.00000" pt_clust_7="13000.00000" pt_clust_8="13000.00000" pt_clust_9="129.91172"></scales>
<clustering>
<clus scale="   78.793">  5  6 -1 -1</clus>
<clus scale="   89.099">  7  8 -1 -1</clus>
<clus scale="  129.912">  2  9  1 -1</clus>
<clus scale="  143.623">  1  5  2 -1</clus>
<clus scale="  129.912">  2  5  1 -1</clus>
</clustering>
</event>
<event>
 9    2  0.6268137E-005  0.1265403E+03  0.7546771E-02  0.1240594E+00
         21   -1    0    0  501  502  0.00000000000E+00  0.00000000000E+00  0.22755073322E+03  0.22755073322E+03  0.00000000000E+00 0.  1.
         -1   -1    0    0    0  501 -0.00000000000E+00 -0.00000000000E+00 -0.33870391011E+03  0.33870391011E+03  0.00000000000E+00 0.  1.
         23    2    1    2    0    0 -0.71296838462E+02  0.15749298793E+02 -0.30559349822E+03  0.33091722649E+03  0.10386310723E+03 0.  0.
         24    2    1    2    0    0  0.66553279527E+02  0.11589318186E+02  0.14709796601E+03  0.18046301537E+03  0.79783688806E+02 0.  0.
        -13    1    4    4    0    0  0.13705990165E+02  0.40661020528E+02  0.75537971064E+02  0.86874379591E+02  0.00000000000E+00 0.  1.
         14    1    4    4    0    0  0.52847289362E+02 -0.29071702342E+02  0.71559994943E+02  0.93588635775E+02  0.00000000000E+00 0. -1.
        -13    1    3    3    0    0 -0.13414075546E+02  0.45819171753E+02 -0.59286679312E+02  0.76119933439E+02  0.00000000000E+00 0. -1.
         13    1    3    3    0    0 -0.57882762916E+02 -0.30069872960E+02 -0.24630681891E+03  0.25479729305E+03  0.00000000000E+00 0.  1.
         -2    1    1    2    0  502  0.47435589347E+01 -0.27338616979E+02  0.47342355326E+02  0.54874401477E+02  0.00000000000E+00 0.  1.
<scales pt_clust_5="13000.00000" pt_clust_6="13000.00000" pt_clust_7="13000.00000" pt_clust_8="13000.00000" pt_clust_9="27.74710"></scales>
<clustering>
<clus scale="   27.747">  1  9  2 -1</clus>
<clus scale="   79.784">  5  6 -1 -1</clus>
<clus scale="  103.863">  7  8 -1 -1</clus>
<clus scale="  107.658">  1  5  2 -1</clus>
<clus scale="   27.747">  1  5  2 -1</clus>
</clustering>
</event>
<event>
 9    2  0.5615294E-005  0.1059923E+03  0.7546771E-02  0.1272369E+00
         21   -1    0    0  501  502  0.00000000000E+00  0.00000000000E+00  0.15073743062E+03  0.15073743062E+03  0.00000000000E+00 0.  1.
          2   -1    0    0  502    0 -0.00000000000E+00 -0.00000000000E+00 -0.68083513534E+03  0.68083513534E+03  0.00000000000E+00 0. -1.
         24    2    1    2    0    0  0.28691510354E+00  0.35644993142E+02 -0.64640522203E+03  0.65506429130E+03  0.99994333863E+02 0.  0.
         23    2    1    2    0    0  0.17143839071E+02 -0.25758878639E+02  0.52629519723E+02  0.10975159838E+03  0.91203705809E+02 0.  0.
        -11    1    3    3    0    0 -0.11272523061E+02  0.23927695221E+02 -0.37243389424E+02  0.45680131683E+02  0.00000000000E+00 0.  1.
         12    1    3    3    0    0  0.11559438165E+02  0.11717297920E+02 -0.60916183261E+03  0.60938415961E+03  0.00000000000E+00 0. -1.
        -11    1    4    4    0    0 -0.33004797251E+02 -0.75583092435E+01  0.44297115391E+02  0.55755529880E+02  0.00000000000E+00 0.  1.
         11    1    4    4    0    0  0.50148636321E+02 -0.18200569396E+02  0.83324043316E+01  0.53996068497E+02  0.00000000000E+00 0. -1.
          1    1    1    2  501    0 -0.17430754174E+02 -0.98861145027E+01  0.63677997597E+02  0.66756676288E+02  0.00000000000E+00 0. -1.
<scales pt_clust_5="13000.00000" pt_clust_6="13000.00000" pt_clust_7="13000.00000" pt_clust_8="13000.00000" pt_clust_9="20.03912"></scales>
<clustering>
<clus scale="   20.039">  1  9  2 -1</clus>
<clus scale="   91.204">  7  8 -1 -1</clus>
<clus scale="   97.743">  1  7  2 -1</clus>
<clus scale="   99.994">  5  6 -1 -1</clus>
<clus scale="   20.039">  1  5  2 -1</clus>
</clustering>
</event>
<event>
 9    2  0.5615294E-005  0.1170746E+03  0.7546771E-02  0.1254131E+00
         -1   -1    0    0    0  501 -0.00000000000E+00  0.00000000000E+00  0.37234415718E+02  0.37234415718E+02  0.00000000000E+00 0.  1.
         21   -1    0    0  501  502  0.00000000000E+00 -0.00000000000E+00 -0.60762021301E+03  0.60762021301E+03  0.00000000000E+00 0.  1.
         24    2    1    2    0    0  0.68825740124E+02  0.27775172410E+02 -0.78900538186E+02  0.13115499833E+03  0.73945222672E+02 0.  0.
         23    2    1    2    0    0 -0.53049449962E+02 -0.46357501460E+02 -0.31621161562E+03  0.33673905743E+03  0.91870261024E+02 0.  0.
        -13    1    3    3    0    0  0.76974198351E+02  0.41682651812E+02 -0.59078904868E+02  0.10560675960E+03  0.00000000000E+00 0.  1.
         14    1    3    3    0    0 -0.81484582266E+01 -0.13907479402E+02 -0.19821633318E+02  0.25548238730E+02  0.00000000000E+00 0. -1.
        -13    1    4    4    0    0 -0.35797162674E+02  0.91391203680E+01 -0.39884647713E+02  0.54366768340E+02  0.00000000000E+00 0.  1.
         13    1    4    4    0    0 -0.17252287288E+02 -0.55496621828E+02 -0.27632696791E+03  0.28237228909E+03  0.00000000000E+00 0. -1.
         -2    1    1    2    0  502 -0.15776290162E+02  0.18582329050E+02 -0.17527364348E+03  0.17696057297E+03  0.00000000000E+00 0.  1.
<scales pt_clust_5="13000.00000" pt_clust_6="13000.00000" pt_clust_7="13000.00000" pt_clust_8="13000.00000" pt_clust_9="24.37610"></scales>
<clustering>
<clus scale="   24.376">  2  9  1 -1</clus>
<clus scale="   73.945">  5  6 -1 -1</clus>
<clus scale="   91.870">  7  8 -1 -1</clus>
<clus scale="  103.606">  1  5  2 -1</clus>
<clus scale="   24.376">  2  5  1 -1</clus>
</clustering>
</event>
<event>
 9    2  0.5615294E-005  0.1144958E+03  0.7546771E-02  0.1254302E+00
         21   -1    0    0  501  502  0.00000000000E+00  0.00000000000E+00  0.94979622402E+02  0.94979622402E+02  0.00000000000E+00 0.  1.
          2   -1    0    0  502    0 -0.00000000000E+00 -0.00000000000E+00 -0.17805969431E+03  0.17805969431E+03  0.00000000000E+00 0. -1.
         24    2    1    2    0    0 -0.59974725204E+02  0.99352740809E+01 -0.65186849810E+02  0.12433772441E+03  0.86688332489E+02 0.  0.
         23    2    1    2    0    0  0.80416365985E+02 -0.82727135260E+01 -0.28458135377E+02  0.12563121783E+03  0.91859173292E+02 0.  0.
        -11    1    3    3    0    0 -0.33016972376E+02 -0.37180606348E+02 -0.42844798370E+02  0.65636839508E+02  0.00000000000E+00 0.  1.
         12    1    3    3    0    0 -0.26957752829E+02  0.47115880428E+02 -0.22342051440E+02  0.58700884906E+02  0.00000000000E+00 0. -1.
        -11    1    4    4    0    0  0.34512828698E+02 -0.22067061117E+02  0.29455701004E+02  0.50455216308E+02  0.00000000000E+00 0.  1.
         11    1    4    4    0    0  0.45903537287E+02  0.13794347591E+02 -0.57913836381E+02  0.75176001525E+02  0.00000000000E+00 0. -1.
          1    1    1    2  501    0 -0.20441640781E+02 -0.16625605548E+01  0.10564913278E+02  0.23070374466E+02  0.00000000000E+00 0. -1.
<scales pt_clust_5="13000.00000" pt_clust_6="13000.00000" pt_clust_7="13000.00000" pt_clust_8="13000.00000" pt_clust_9="20.50914"></scales>
<clustering>
<clus scale="   20.509">  1  9  2 -1</clus>
<clus scale="   86.688">  5  6 -1 -1</clus>
<clus scale="   91.859">  7  8 -1 -1</clus>
<clus scale="  110.390">  2  5  1 -1</clus>
<clus scale="   20.509">  1  5  2 -1</clus>
</clustering>
</event>
<event>
 9    2  0.5615294E-005  0.1019103E+03  0.7546771E-02  0.1281458E+00
          4   -1    0    0  502    0 -0.00000000000E+00  0.00000000000E+00  0.84894186744E+02  0.84894186744E+02  0.00000000000E+00 0. -1.
         21   -1    0    0  501  502  0.00000000000E+00 -0.00000000000E+00 -0.17641667037E+03  0.17641667037E+03  0.00000000000E+00 0. -1.
         24    2    1    2    0    0 -0.25589201147E+02 -0.19438430315E+02 -0.17348317856E+02  0.89273832884E+02  0.81462833960E+02 0.  0.
         23    2    1    2    0    0  0.52366456812E+02  0.41422569988E+02 -0.76868230696E+02  0.13728674647E+03  0.92091534698E+02 0.  0.
        -13    1    3    3    0    0 -0.92538017720E-01  0.27649339920E+02 -0.22266961406E+02  0.35500875081E+02  0.00000000000E+00 0.  1.
         14    1    3    3    0    0 -0.25496663129E+02 -0.47087770235E+02  0.49186435492E+01  0.53772957802E+02  0.00000000000E+00 0. -1.
        -11    1    4    4    0    0  0.40299402707E+02  0.10518161252E+02  0.11239817837E+02  0.43139391276E+02  0.00000000000E+00 0. -1.
         11    1    4    4    0    0  0.12067054105E+02  0.30904408737E+02 -0.88108048533E+02  0.94147355196E+02  0.00000000000E+00 0.  1.
          3    1    1    2  501    0 -0.26777255665E+02 -0.21984139673E+02  0.26940649308E+01  0.34750277754E+02  0.00000000000E+00 0. -1.
<scales pt_clust_5="13000.00000" pt_clust_6="13000.00000" pt_clust_7="13000.00000" pt_clust_8="13000.00000" pt_clust_9="34.64571"></scales>
<clustering>
<clus scale="   34.646">  2  9  1 -1</clus>
<clus scale="   81.463">  5  6 -1 -1</clus>
<clus scale="   92.092">  7  8 -1 -1</clus>
<clus scale="   92.418">  1  5  2 -1</clus>
<clus scale="   34.646">  2  5  1 -1</clus>
</clustering>
</event>
<event>
 9    2  0.5615294E-005  0.9240772E+02  0.7546771E-02  0.1300722E+00
         21   -1    0    0  501  502  0.00000000000E+00  0.00000000000E+00  0.52892529562E+02  0.52892529562E+02  0.00000000000E+00 0. -1.
          2   -1    0    0  502    0 -0.00000000000E+00 -0.00000000000E+00 -0.28392789165E+03  0.28392789165E+03  0.00000000000E+00 0. -1.
         24    2    1    2    0    0 -0.19306016806E+02  0.18634220966E+02 -0.19688571950E+03  0.21543780277E+03  0.83243641449E+02 0.  0.
         23    2    1    2    0    0  0.18865486198E+02  0.62592049222E+01 -0.26843542032E+02  0.95435444708E+02  0.89399463880E+02 0.  0.
        -11    1    3    3    0    0 -0.42080280394E+02  0.17390627286E+02 -0.18334242214E+03  0.18891169279E+03  0.00000000000E+00 0.  1.
         12    1    3    3    0    0  0.22774263588E+02  0.12435936799E+01 -0.13543297359E+02  0.26526109978E+02  0.00000000000E+00 0. -1.
        -11    1    4    4    0    0  0.39965722370E+02  0.33644597100E+02 -0.96435315572E+00  0.52250816794E+02  0.00000000000E+00 0. -1.
         11    1    4    4    0    0 -0.21100236172E+02 -0.27385392177E+02 -0.25879188877E+02  0.43184627915E+02  0.00000000000E+00 0.  1.
          1    1    1    2  501    0  0.44053060761E+00 -0.24893425888E+02 -0.73061005569E+01  0.25947173739E+02  0.00000000000E+00 0. -1.
<scales pt_clust_5="13000.00000" pt_clust_6="13000.00000" pt_clust_7="13000.00000" pt_clust_8="13000.00000" pt_clust_9="24.89732"></scales>
<clustering>
<clus scale="   24.897">  1  9  2 -1</clus>
<clus scale="   83.244">  5  6 -1 -1</clus>
<clus scale="   86.466">  2  5  1 -1</clus>
<clus scale="   89.399">  7  8 -1 -1</clus>
<clus scale="   24.897">  1  5  2 -1</clus>
</clustering>
</event>
<event>
 9    2  0.5615294E-005  0.9565610E+02  0.7546771E-02  0.1295951E+00
         -1   -1    0    0    0  501 -0.00000000000E+00  0.00000000000E+00  0.15636509131E+03  0.15636509131E+03  0.00000000000E+00 0.  1.
         21   -1    0    0  501  502  0.00000000000E+00 -0.00000000000E+00 -0.79714084824E+02  0.79714084824E+02  0.00000000000E+00 0.  1.
         23    2    1    2    0    0  0.13464798719E+02 -0.14772638483E+02  0.44468309223E+02  0.10275362469E+03  0.90450788878E+02 0.  0.
         24    2    1    2    0    0 -0.39613650035E+02  0.15850448807E+02  0.48742956672E+02  0.10235514151E+03  0.79247846485E+02 0.  0.
        -13    1    4    4    0    0 -0.12167482057E+02 -0.25336142809E+02  0.44561821053E+02  0.52685136876E+02  0.00000000000E+00 0.  1.
         14    1    4    4    0    0 -0.27446167978E+02  0.41186591616E+02  0.41811356191E+01  0.49670004637E+02  0.00000000000E+00 0. -1.
        -11    1    3    3    0    0  0.13881181447E+02 -0.42052234437E+02  0.57452512325E+02  0.72538739940E+02  0.00000000000E+00 0.  1.
         11    1    3    3    0    0 -0.41638272832E+00  0.27279595955E+02 -0.12984203102E+02  0.30214884746E+02  0.00000000000E+00 0. -1.
         -2    1    1    2    0  502  0.26148851316E+02 -0.10778103247E+01 -0.16560259406E+02  0.30970409940E+02  0.00000000000E+00 0.  1.
<scales pt_clust_5="13000.00000" pt_clust_6="13000.00000" pt_clust_7="13000.00000" pt_clust_8="13000.00000" pt_clust_9="26.17105"></scales>
<clustering>
<clus scale="   26.171">  2  9  1 -1</clus>
<clus scale="   79.248">  5  6 -1 -1</clus>
<clus scale="   85.141">  2  5  1 -1</clus>
<clus scale="   90.451">  7  8 -1 -1</clus>
<clus scale="   26.171">  2  5  1 -1</clus>
</clustering>
</event>
<event>
 9    2  0.5615294E-005  0.9677923E+02  0.7546771E-02  0.1296439E+00
         21   -1    0    0  501  502  0.00000000000E+00  0.00000000000E+00  0.88415191891E+02  0.88415191891E+02  0.00000000000E+00 0. -1.
         -1   -1    0    0    0  501 -0.00000000000E+00 -0.00000000000E+00 -0.18674015846E+03  0.18674015846E+03  0.00000000000E+00 0.  1.
         24    2    1    2    0    0  0.22486084416E+02  0.12654687011E+02 -0.46480630302E+02  0.96454997111E+02  0.80482000340E+02 0.  0.
         23    2    1    2    0    0  0.10189295882E+02  0.37587251096E+02 -0.57598143772E+02  0.11849205544E+03  0.95948933510E+02 0.  0.
        -13    1    3    3    0    0  0.26160457862E+02  0.24662562500E+02 -0.64881883778E+02  0.74177290239E+02  0.00000000000E+00 0.  1.
         14    1    3    3    0    0 -0.36743734456E+01 -0.12007875489E+02  0.18401253476E+02  0.22277706872E+02  0.00000000000E+00 0. -1.
        -13    1    4    4    0    0  0.35102716674E+02  0.57810565343E+02 -0.23326082417E+02  0.71542772549E+02  0.00000000000E+00 0. -1.
         13    1    4    4    0    0 -0.24913420792E+02 -0.20223314247E+02 -0.34272061355E+02  0.46949282893E+02  0.00000000000E+00 0.  1.
         -2    1    1    2    0  502 -0.32675380298E+02 -0.50241938107E+02  0.57538075084E+01  0.60208297793E+02  0.00000000000E+00 0.  1.
<scales pt_clust_5="13000.00000" pt_clust_6="13000.00000" pt_clust_7="13000.00000" pt_clust_8="13000.00000" pt_clust_9="59.93274"></scales>
<clustering>
<clus scale="   59.933">  1  9  2 -1</clus>
<clus scale="   80.482">  5  6 -1 -1</clus>
<clus scale="   81.470">  2  5  1 -1</clus>
<clus scale="   95.949">  7  8 -1 -1</clus>
<clus scale="   59.933">  1  5  2 -1</clus>
</clustering>
</event>
<event>
 9    2  0.5615294E-005  0.1010056E+03  0.7546771E-02  0.1282333E+00
         21   -1    0    0  501  502  0.00000000000E+00  0.00000000000E+00  0.37868201626E+02  0.37868201626E+02  0.00000000000E+00 0.  1.
          2   -1    0    0  502    0 -0.00000000000E+00 -0.00000000000E+00 -0.17428920713E+04  0.17428920713E+04  0.00000000000E+00 0. -1.
         24    2    1    2    0    0 -0.45969934143E+02  0.30038488077E+01 -0.14179149135E+04  0.14208991654E+04  0.79683614840E+02 0.  0.
         23    2    1    2    0    0  0.65529399612E+02  0.60865652198E+01 -0.30962254224E+03  0.32868307244E+03  0.88517201478E+02 0.  0.
        -11    1    3    3    0    0 -0.17431752422E+02  0.20494661556E+02 -0.14090967819E+03  0.14345533992E+03  0.00000000000E+00 0.  1.
         12    1    3    3    0    0 -0.28538181722E+02 -0.17490812748E+02 -0.12770052353E+04  0.12774438255E+04  0.00000000000E+00 0. -1.
        -13    1    4    4    0    0  0.26462276751E+02 -0.36032479488E+02 -0.76672366993E+02  0.88753836702E+02  0.00000000000E+00 0.  1.
         13    1    4    4    0    0  0.39067122861E+02  0.42119044708E+02 -0.23295017525E+03  0.23992923574E+03  0.00000000000E+00 0. -1.
          1    1    1    2  501    0 -0.19559465469E+02 -0.90904140275E+01  0.22513586018E+02  0.31178035089E+02  0.00000000000E+00 0. -1.
<scales pt_clust_5="13000.00000" pt_clust_6="13000.00000" pt_clust_7="13000.00000" pt_clust_8="13000.00000" pt_clust_9="21.56869"></scales>
<clustering>
<clus scale="   21.569">  1  9  2 -1</clus>
<clus scale="   79.684">  5  6 -1 -1</clus>
<clus scale="   88.517">  7  8 -1 -1</clus>
<clus scale="   93.361">  2  5  1 -1</clus>
<clus scale="   21.569">  1  5  2 -1</clus>
</clustering>
</event>
<event>
 9    2  0.5615294E-005  0.1075870E+03  0.7546771E-02  0.1268781E+00
          2   -1    0    0  502    0 -0.00000000000E+00  0.00000000000E+00  0.26573853347E+03  0.26573853347E+03  0.00000000000E+00 0. -1.
         21   -1    0    0  501  502  0.00000000000E+00 -0.00000000000E+00 -0.67857285489E+02  0.67857285489E+02  0.00000000000E+00 0. -1.
         23    2    1    2    0    0  0.27641122379E+02 -0.71375538134E+02  0.13750821412E+03  0.18110558017E+03  0.89622670828E+02 0.  0.
         24    2    1    2    0    0 -0.15632530656E+01  0.32739098841E+02  0.16606535988E+02  0.88550141475E+02  0.80567103490E+02 0.  0.
        -13    1    4    4    0    0  0.37053523328E+02  0.22723594305E+02  0.21256595860E+02  0.48385619731E+02  0.00000000000E+00 0.  1.
         14    1    4    4    0    0 -0.38616776394E+02  0.10015504536E+02 -0.46500598713E+01  0.40164521745E+02  0.00000000000E+00 0. -1.
        -11    1    3    3    0    0 -0.96455661610E+00  0.20939005095E+02  0.29240885361E+02  0.35977794270E+02  0.00000000000E+00 0.  1.
         11    1    3    3    0    0  0.28605678995E+02 -0.92314543229E+02  0.10826732876E+03  0.14512778590E+03  0.00000000000E+00 0. -1.
          1    1    1    2  501    0 -0.26077869313E+02  0.38636439293E+02  0.43766497873E+02  0.63940097319E+02  0.00000000000E+00 0. -1.
<scales pt_clust_5="13000.00000" pt_clust_6="13000.00000" pt_clust_7="13000.00000" pt_clust_8="13000.00000" pt_clust_9="46.61364"></scales>
<clustering>
<clus scale="   46.614">  2  9  1 -1</clus>
<clus scale="   80.567">  5  6 -1 -1</clus>
<clus scale="   89.623">  7  8 -1 -1</clus>
<clus scale="  100.169">  2  5  1 -1</clus>
<clus scale="   46.614">  2  5  1 -1</clus>
</clustering>
</event>
<event>
 9    2  0.5615294E-005  0.1165935E+03  0.7546771E-02  0.1252096E+00
         -3   -1    0    0    0  501 -0.00000000000E+00  0.00000000000E+00  0.11192680199E+03  0.11192680199E+03  0.00000000000E+00 0.  1.
         21   -1    0    0  501  502  0.00000000000E+00 -0.00000000000E+00 -0.21389908550E+03  0.21389908550E+03  0.00000000000E+00 0.  1.
         23    2    1    2    0    0 -0.24150418492E+02  0.96769830195E+02 -0.30463291266E+02  0.13821509046E+03  0.90706980800E+02 0.  0.
         24    2    1    2    0    0 -0.29049763299E+02 -0.49048854594E+02 -0.58272347124E+02  0.11492820194E+03  0.81013247541E+02 0.  0.
        -13    1    4    4    0    0 -0.36222379617E+02 -0.61578064778E+02 -0.20248396624E+02  0.74255750031E+02  0.00000000000E+00 0.  1.
         14    1    4    4    0    0  0.71726163180E+01  0.12529210183E+02 -0.38023950500E+02  0.40672451909E+02  0.00000000000E+00 0. -1.
        -13    1    3    3    0    0 -0.41059183704E+02  0.33063290161E+02  0.18755709158E+02  0.55953680386E+02  0.00000000000E+00 0.  1.
         13    1    3    3    0    0  0.16908765212E+02  0.63706540034E+02 -0.49219000424E+02  0.82261410071E+02  0.00000000000E+00 0. -1.
         -4    1    1    2    0  502  0.53200181791E+02 -0.47720975601E+02 -0.13236645119E+02  0.72682595089E+02  0.00000000000E+00 0.  1.
<scales pt_clust_5="13000.00000" pt_clust_6="13000.00000" pt_clust_7="13000.00000" pt_clust_8="13000.00000" pt_clust_9="71.46717"></scales>
<clustering>
<clus scale="   71.467">  2  9  1 -1</clus>
<clus scale="   81.013">  5  6 -1 -1</clus>
<clus scale="   90.707">  7  8 -1 -1</clus>
<clus scale="  109.222">  2  5  1 -1</clus>
<clus scale="   71.467">  2  5  1 -1</clus>
</clustering>
</event>
<event>
 9    2  0.5615294E-005  0.8150127E+02  0.7546771E-02  0.1325092E+00
          2   -1    0    0  502    0 -0.00000000000E+00  0.00000000000E+00  0.19825928084E+03  0.19825928084E+03  0.00000000000E+00 0. -1.
         21   -1    0    0  501  502  0.00000000000E+00 -0.00000000000E+00 -0.32613252622E+03  0.32613252622E+03  0.00000000000E+00 0.  1.
         24    2    1    2    0    0 -0.10620077760E+02 -0.68039400183E+01  0.18026123136E+03  0.19763959650E+03  0.80051351780E+02 0.  0.
         23    2    1    2    0    0  0.32016981910E+02  0.96408736655E+01 -0.24297171721E+03  0.25810775754E+03  0.80413466303E+02 0.  0.
        -11    1    3    3    0    0 -0.99215030753E+01 -0.43320241358E+02  0.94727377819E+02  0.10463439035E+03  0.00000000000E+00 0.  1.
         12    1    3    3    0    0 -0.69857468469E+00  0.36516301340E+02  0.85533853544E+02  0.93005206157E+02  0.00000000000E+00 0. -1.
        -11    1    4    4    0    0 -0.21875437564E+02 -0.39639138490E+01 -0.26384268231E+02  0.34501840410E+02  0.00000000000E+00 0. -1.
         11    1    4    4    0    0  0.53892419474E+02  0.13604787514E+02 -0.21658744898E+03  0.22360591713E+03  0.00000000000E+00 0.  1.
          1    1    1    2  501    0 -0.21396904150E+02 -0.28369336472E+01 -0.65162759530E+02  0.68644453012E+02  0.00000000000E+00 0. -1.
<scales pt_clust_5="13000.00000" pt_clust_6="13000.00000" pt_clust_7="13000.00000" pt_clust_8="13000.00000" pt_clust_9="21.58415"></scales>
<clustering>
<clus scale="   21.584">  2  9  1 -1</clus>
<clus scale="   80.051">  5  6 -1 -1</clus>
<clus scale="   80.413">  7  8 -1 -1</clus>
<clus scale="   81.144">  1  5  2 -1</clus>
<clus scale="   21.584">  2  5  1 -1</clus>
</clustering>
</event>
<event>
 9    2  0.5615294E-005  0.1323523E+03  0.7546771E-02  0.1234181E+00
          4   -1    0    0  502    0 -0.00000000000E+00  0.00000000000E+00  0.37415641903E+03  0.37415641903E+03  0.00000000000E+00 0. -1.
         21   -1    0    0  501  502  0.00000000000E+00 -0.00000000000E+00 -0.67204976443E+02  0.67204976443E+02  0.00000000000E+00 0.  1.
         24    2    1    2    0    0 -0.35963830493E+02  0.61242364318E+02  0.22669647881E+03  0.25062193029E+03  0.79850072932E+02 0.  0.
         23    2    1    2    0    0  0.63588954593E+02 -0.46813289303E+02  0.45066431112E+02  0.14373331113E+03  0.11132494022E+03 0.  0.
        -13    1    3    3    0    0 -0.16727244291E+02  0.11690301379E+02  0.29155858543E+01  0.20614666836E+02  0.00000000000E+00 0.  1.
         14    1    3    3    0    0 -0.19236586202E+02  0.49552062939E+02  0.22378089296E+03  0.23000726346E+03  0.00000000000E+00 0. -1.
        -13    1    4    4    0    0  0.32178353906E+02 -0.28841117871E+02 -0.35168804023E+02  0.55714462364E+02  0.00000000000E+00 0.  1.
         13    1    4    4    0    0  0.31410600688E+02 -0.17972171432E+02  0.80235235135E+02  0.88018848769E+02  0.00000000000E+00 0. -1.
          3    1    1    2  501    0 -0.27625124101E+02 -0.14429075015E+02  0.35188532668E+02  0.47006154051E+02  0.00000000000E+00 0. -1.
<scales pt_clust_5="13000.00000" pt_clust_6="13000.00000" pt_clust_7="13000.00000" pt_clust_8="13000.00000" pt_clust_9="31.16643"></scales>
<clustering>
<clus scale="   31.166">  2  9  1 -1</clus>
<clus scale="   79.850">  5  6 -1 -1</clus>
<clus scale="  107.238">  1  5  2 -1</clus>
<clus scale="  111.325">  7  8 -1 -1</clus>
<clus scale="   31.166">  2  5  1 -1</clus>
</clustering>
</event>
<event>
 9    2  0.5615294E-005  0.1169301E+03  0.7546771E-02  0.1253555E+00
          2   -1    0    0  502    0 -0.00000000000E+00  0.00000000000E+00  0.68743389021E+03  0.68743389021E+03  0.00000000000E+00 0. -1.
         21   -1    0    0  501  502  0.00000000000E+00 -0.00000000000E+00 -0.45849065175E+02  0.45849065175E+02  0.00000000000E+00 0. -1.
         23    2    1    2    0    0  0.94790083162E+02  0.58801931061E+01  0.32219251726E+03  0.34928204067E+03  0.95761104956E+02 0.  0.
         24    2    1    2    0    0 -0.20720235235E+02  0.68805349765E+02  0.16641578856E+03  0.19835046867E+03  0.80530673864E+02 0.  0.
        -11    1    4    4    0    0 -0.26005456624E+02  0.53816153560E+01  0.11045663302E+03  0.11360419594E+03  0.00000000000E+00 0.  1.
         12    1    4    4    0    0  0.52852213890E+01  0.63423734409E+02  0.55959155546E+02  0.84746272726E+02  0.00000000000E+00 0. -1.
        -11    1    3    3    0    0  0.11128939633E+03 -0.87845183674E+01  0.28424206089E+03  0.30537853015E+03  0.00000000000E+00 0. -1.
         11    1    3    3    0    0 -0.16499313166E+02  0.14664711473E+02  0.37950456363E+02  0.43903510517E+02  0.00000000000E+00 0.  1.
          1    1    1    2  501    0 -0.74069847928E+02 -0.74685542871E+02  0.15297651922E+03  0.18565044605E+03  0.00000000000E+00 0. -1.
<scales pt_clust_5="13000.00000" pt_clust_6="13000.00000" pt_clust_7="13000.00000" pt_clust_8="13000.00000" pt_clust_9="105.18685"></scales>
<clustering>
<clus scale="   80.531">  5  6 -1 -1</clus>
<clus scale="   95.761">  7  8 -1 -1</clus>
<clus scale="  105.187">  2  9  1 -1</clus>
<clus scale="  105.187">  2  5  1 -1</clus>
<clus scale="  105.187">  2  5  1 -1</clus>
</clustering>
</event>
<event>
 9    2  0.5615294E-005  0.1234888E+03  0.7546771E-02  0.1240638E+00
         21   -1    0    0  501  502  0.00000000000E+00  0.00000000000E+00  0.15827933973E+03  0.15827933973E+03  0.00000000000E+00 0.  1.
          2   -1    0    0  502    0 -0.00000000000E+00 -0.00000000000E+00 -0.15473765158E+03  0.15473765158E+03  0.00000000000E+00 0. -1.
         24    2    1    2    0    0 -0.17263137491E+02  0.90380400629E+02  0.10214593119E+02  0.12134049111E+03  0.78438154853E+02 0.  0.
         23    2    1    2    0    0  0.51811809868E+02 -0.63743360501E+02  0.39907724551E+02  0.12785724201E+03  0.89482781613E+02 0.  0.
        -13    1    3    3    0    0 -0.44226011872E+02  0.71011643285E+02 -0.69893039680E+01  0.83949055850E+02  0.00000000000E+00 0.  1.
         14    1    3    3    0    0  0.26962874382E+02  0.19368757344E+02  0.17203897087E+02  0.37391435262E+02  0.00000000000E+00 0. -1.
        -11    1    4    4    0    0 -0.91433168191E+01 -0.18464047856E+02  0.47273379740E+02  0.51568340459E+02  0.00000000000E+00 0.  1.
         11    1    4    4    0    0  0.60955126687E+02 -0.45279312645E+02 -0.73656551890E+01  0.76288901548E+02  0.00000000000E+00 0. -1.
          1    1    1    2  501    0 -0.34548672378E+02 -0.26637040128E+02 -0.46580629523E+02  0.63819258195E+02  0.00000000000E+00 0. -1.
<scales pt_clust_5="13000.00000" pt_clust_6="13000.00000" pt_clust_7="13000.00000" pt_clust_8="13000.00000" pt_clust_9="43.62505"></scales>
<clustering>
<clus scale="   43.625">  1  9  2 -1</clus>
<clus scale="   78.438">  5  6 -1 -1</clus>
<clus scale="   89.483">  7  8 -1 -1</clus>
<clus scale="  115.736">  2  5  1 -1</clus>
<clus scale="   43.625">  1  5  2 -1</clus>
</clustering>
</event>
<event>
 9    2  0.5615294E-005  0.1261550E+03  0.7546771E-02  0.1236897E+00
          4   -1    0    0  502    0 -0.00000000000E+00  0.00000000000E+00  0.16447008192E+03  0.16447008192E+03  0.00000000000E+00 0. -1.
         21   -1    0    0  501  502  0.00000000000E+00 -0.00000000000E+00 -0.11229647339E+03  0.11229647339E+03  0.00000000000E+00 0.  1.
         23    2    1    2    0    0  0.28021277745E+02 -0.91642945788E+02  0.45840572049E+02  0.14070015594E+03  0.92258085371E+02 0.  0.
         24    2    1    2    0    0 -0.80294171380E+01  0.75898846608E+02  0.85324345361E+01  0.11052450239E+03  0.79484317530E+02 0.  0.
        -13    1    4    4    0    0 -0.24167831715E+02 -0.14616641099E+01 -0.14485781440E+02  0.28214507185E+02  0.00000000000E+00 0.  1.
         14    1    4    4    0    0  0.16138414577E+02  0.77360510718E+02  0.23018215976E+02  0.82309995203E+02  0.00000000000E+00 0. -1.
        -11    1    3    3    0    0 -0.43383333071E+01 -0.99006237857E+02  0.27799193090E+02  0.10292643687E+03  0.00000000000E+00 0. -1.
         11    1    3    3    0    0  0.32359611052E+02  0.73632920683E+01  0.18041378959E+02  0.37773719069E+02  0.00000000000E+00 0.  1.
          3    1    1    2  501    0 -0.19991860607E+02  0.15744099180E+02 -0.21993980537E+01  0.25541896980E+02  0.00000000000E+00 0. -1.
<scales pt_clust_5="13000.00000" pt_clust_6="13000.00000" pt_clust_7="13000.00000" pt_clust_8="13000.00000" pt_clust_9="25.44703"></scales>
<clustering>
<clus scale="   25.447">  2  9  1 -1</clus>
<clus scale="   79.484">  5  6 -1 -1</clus>
<clus scale="   92.258">  7  8 -1 -1</clus>
<clus scale="  117.138">  2  5  1 -1</clus>
<clus scale="   25.447">  2  5  1 -1</clus>
</clustering>
</event>
<event>
 9    2  0.5615294E-005  0.1723848E+03  0.7546771E-02  0.1195949E+00
          2   -1    0    0  502    0 -0.00000000000E+00  0.00000000000E+00  0.74255097441E+03  0.74255097441E+03  0.00000000000E+00 0. -1.
         21   -1    0    0  501  502  0.00000000000E+00 -0.00000000000E+00 -0.10190109753E+03  0.10190109753E+03  0.00000000000E+00 0. -1.
         24    2    1    2    0    0 -0.15325124147E+02 -0.72534148886E+02  0.42549716969E+03  0.43925207250E+03  0.79990496912E+02 0.  0.
         23    2    1    2    0    0 -0.10598357556E+03  0.13552058203E+03  0.17429431682E+03  0.26253781297E+03  0.94600464711E+02 0.  0.
        -11    1    3    3    0    0  0.17838418996E+02 -0.20581883999E+02  0.37262429524E+02  0.46155300835E+02  0.00000000000E+00 0.  1.
         12    1    3    3    0    0 -0.33163543143E+02 -0.51952264888E+02  0.38823474017E+03  0.39309677166E+03  0.00000000000E+00 0. -1.
        -13    1    4    4    0    0 -0.27155508907E+02 -0.44302195794E+00  0.66856167405E+02  0.72162074890E+02  0.00000000000E+00 0.  1.
         13    1    4    4    0    0 -0.78828066653E+02  0.13596360398E+03  0.10743814941E+03  0.19037573808E+03  0.00000000000E+00 0. -1.
          1    1    1    2  501    0  0.12130869971E+03 -0.62986433139E+02  0.40858390379E+02  0.14266218647E+03  0.00000000000E+00 0. -1.
<scales pt_clust_5="13000.00000" pt_clust_6="13000.00000" pt_clust_7="13000.00000" pt_clust_8="13000.00000" pt_clust_9="144.10851"></scales>
<clustering>
<clus scale="   79.990">  5  6 -1 -1</clus>
<clus scale="   94.600">  7  8 -1 -1</clus>
<clus scale="  109.062">  1  5  2 -1</clus>
<clus scale="  144.109">  2  9  1 -1</clus>
<clus scale="  144.109">  2  5  1 -1</clus>
</clustering>
</event>
<event>
 9    2  0.5615294E-005  0.8984297E+02  0.7546771E-02  0.1305734E+00
         21   -1    0    0  501  502  0.00000000000E+00  0.00000000000E+00  0.19339818017E+03  0.19339818017E+03  0.00000000000E+00 0. -1.
          2   -1    0    0  502    0 -0.00000000000E+00 -0.00000000000E+00 -0.32218763671E+03  0.32218763671E+03  0.00000000000E+00 0. -1.
         24    2    1    2    0    0 -0.27908047217E+02  0.29277249365E+01 -0.27406153552E+03  0.28695355508E+03  0.80281921052E+02 0.  0.
         23    2    1    2    0    0  0.50316461605E+02 -0.22210101941E+02  0.23847026922E+02  0.10366030349E+03  0.84567977923E+02 0.  0.
        -13    1    3    3    0    0 -0.54149829287E+02  0.12105329311E+02 -0.15327738623E+03  0.16301134973E+03  0.00000000000E+00 0.  1.
         14    1    3    3    0    0  0.26241782070E+02 -0.91776043743E+01 -0.12078414929E+03  0.12394220535E+03  0.00000000000E+00 0. -1.
        -13    1    4    4    0    0  0.20869946234E+02  0.27279228714E+02 -0.11344017545E+02  0.36171780563E+02  0.00000000000E+00 0. -1.
         13    1    4    4    0    0  0.29446515370E+02 -0.49489330655E+02  0.35191044468E+02  0.67488522927E+02  0.00000000000E+00 0.  1.
          1    1    1    2  501    0 -0.22408414387E+02  0.19282377004E+02  0.12142505205E+03  0.12497195831E+03  0.00000000000E+00 0. -1.
<scales pt_clust_5="13000.00000" pt_clust_6="13000.00000" pt_clust_7="13000.00000" pt_clust_8="13000.00000" pt_clust_9="29.56260"></scales>
<clustering>
<clus scale="   29.563">  1  9  2 -1</clus>
<clus scale="   80.282">  5  6 -1 -1</clus>
<clus scale="   84.568">  7  8 -1 -1</clus>
<clus scale="   85.821">  2  5  1 -1</clus>
<clus scale="   29.563">  1  5  2 -1</clus>
</clustering>
</event>
<event>
 9    2  0.5615294E-005  0.3656579E+03  0.7546771E-02  0.1082309E+00
         21   -1    0    0  501  502  0.00000000000E+00  0.00000000000E+00  0.57184454934E+03  0.57184454934E+03  0.00000000000E+00 0. -1.
          2   -1    0    0  502    0 -0.00000000000E+00 -0.00000000000E+00 -0.44582207239E+03  0.44582207239E+03  0.00000000000E+00 0. -1.
         24    2    1    2    0    0  0.73531600288E+02  0.14320050754E+03  0.22122191625E+02  0.18054818947E+03  0.78708168304E+02 0.  0.
         23    2    1    2    0    0 -0.17389348348E+03 -0.35580822956E+03  0.31953237007E+03  0.51810158783E+03  0.97416014962E+02 0.  0.
        -11    1    3    3    0    0  0.65452378507E+02  0.43333851189E+02  0.30528637356E+01  0.78556708740E+02  0.00000000000E+00 0.  1.
         12    1    3    3    0    0  0.80792217812E+01  0.99866656351E+02  0.19069327889E+02  0.10199148073E+03  0.00000000000E+00 0. -1.
        -13    1    4    4    0    0 -0.10717016677E+03 -0.14741772462E+03  0.98883552633E+02  0.20735329069E+03  0.00000000000E+00 0.  1.
         13    1    4    4    0    0 -0.66723316717E+02 -0.20839050493E+03  0.22064881744E+03  0.31074829714E+03  0.00000000000E+00 0. -1.
          1    1    1    2  501    0  0.10036188320E+03  0.21260772202E+03 -0.21563208474E+03  0.31901684443E+03  0.00000000000E+00 0. -1.
<scales pt_clust_5="13000.00000" pt_clust_6="13000.00000" pt_clust_7="13000.00000" pt_clust_8="13000.00000" pt_clust_9="352.44277"></scales>
<clustering>
<clus scale="   78.708">  5  6 -1 -1</clus>
<clus scale="   97.416">  7  8 -1 -1</clus>
<clus scale="  179.188">  2  5  1 -1</clus>
<clus scale="  352.443">  1  9  2 -1</clus>
<clus scale="  352.443">  1  5  2 -1</clus>
</clustering>
</event>
<event>
 9    2  0.5615294E-005  0.1030638E+03  0.7546771E-02  0.1279598E+00
          2   -1    0    0  502    0 -0.00000000000E+00  0.00000000000E+00  0.59072469599E+02  0.59072469599E+02  0.00000000000E+00 0. -1.
         21   -1    0    0  501  502  0.00000000000E+00 -0.00000000000E+00 -0.58622375706E+03  0.58622375706E+03  0.00000000000E+00 0. -1.
         24    2    1    2    0    0  0.17196497126E+01  0.55893874852E+02 -0.84186553807E+01  0.98299961846E+02  0.80404765402E+02 0.  0.
         23    2    1    2    0    0  0.14634131309E+02 -0.12573969009E+02 -0.16336237713E+03  0.18862204909E+03  0.92297067360E+02 0.  0.
        -11    1    3    3    0    0 -0.37001641525E+02  0.20370227355E+02 -0.16082236272E+02  0.45196304734E+02  0.00000000000E+00 0.  1.
         12    1    3    3    0    0  0.38721291238E+02  0.35523647497E+02  0.76635808917E+01  0.53103657112E+02  0.00000000000E+00 0. -1.
        -11    1    4    4    0    0 -0.11785215481E+02 -0.38086987037E+02 -0.28919701723E+02  0.49253010397E+02  0.00000000000E+00 0.  1.
         11    1    4    4    0    0  0.26419346790E+02  0.25513018028E+02 -0.13444267541E+03  0.13936903869E+03  0.00000000000E+00 0. -1.
          1    1    1    2  501    0 -0.16353781022E+02 -0.43319905843E+02 -0.35537025494E+03  0.35837421572E+03  0.00000000000E+00 0. -1.
<scales pt_clust_5="13000.00000" pt_clust_6="13000.00000" pt_clust_7="13000.00000" pt_clust_8="13000.00000" pt_clust_9="46.30400"></scales>
<clustering>
<clus scale="   46.304">  2  9  1 -1</clus>
<clus scale="   80.405">  5  6 -1 -1</clus>
<clus scale="   92.297">  7  8 -1 -1</clus>
<clus scale="   92.565">  1  5  2 -1</clus>
<clus scale="   46.304">  2  5  1 -1</clus>
</clustering>
</event>
<event>
 9    2  0.5615294E-005  0.1326590E+03  0.7546771E-02  0.1229252E+00
         21   -1    0    0  501  502  0.00000000000E+00  0.00000000000E+00  0.15716685492E+03  0.15716685492E+03  0.00000000000E+00 0. -1.
         -1   -1    0    0    0  501 -0.00000000000E+00 -0.00000000000E+00 -0.30601433757E+03  0.30601433757E+03  0.00000000000E+00 0.  1.
         23    2    1    2    0    0 -0.92080643805E+00  0.79926975976E+02 -0.96074453911E+02  0.15889030256E+03  0.98115534862E+02 0.  0.
         24    2    1    2    0    0  0.93526882425E+02 -0.10852869596E+03  0.42807598016E+02  0.16816741691E+03  0.76954753467E+02 0.  0.
        -11    1    4    4    0    0 -0.10590002791E+02 -0.17743752862E+02 -0.62312972484E+01  0.21582817011E+02  0.00000000000E+00 0.  1.
         12    1    4    4    0    0  0.10411688522E+03 -0.90784943093E+02  0.49038895265E+02  0.14658459990E+03  0.00000000000E+00 0. -1.
        -11    1    3    3    0    0  0.45320166360E+02  0.22659632195E+02 -0.54247780809E+02  0.74230708826E+02  0.00000000000E+00 0. -1.
         11    1    3    3    0    0 -0.46240972798E+02  0.57267343781E+02 -0.41826673102E+02  0.84659593738E+02  0.00000000000E+00 0.  1.
         -2    1    1    2    0  502 -0.92606075987E+02  0.28601719980E+02 -0.95580626754E+02  0.13612347302E+03  0.00000000000E+00 0.  1.
<scales pt_clust_5="13000.00000" pt_clust_6="13000.00000" pt_clust_7="13000.00000" pt_clust_8="13000.00000" pt_clust_9="96.92241"></scales>
<clustering>
<clus scale="   76.955">  5  6 -1 -1</clus>
<clus scale="   96.922">  1  9  2 -1</clus>
<clus scale="   98.116">  7  8 -1 -1</clus>
<clus scale="  117.872">  1  5  2 -1</clus>
<clus scale="   96.922">  1  5  2 -1</clus>
</clustering>
</event>
<event>
 9    2  0.5615294E-005  0.9709701E+02  0.7546771E-02  0.1292665E+00
          4   -1    0    0  502    0 -0.00000000000E+00  0.00000000000E+00  0.27012080966E+03  0.27012080966E+03  0.00000000000E+00 0. -1.
         21   -1    0    0  501  502  0.00000000000E+00 -0.00000000000E+00 -0.62018318008E+02  0.62018318008E+02  0.00000000000E+00 0. -1.
         23    2    1    2    0    0  0.42947399289E+02 -0.10554898286E+02  0.13758109144E+03  0.17065440035E+03  0.90766087562E+02 0.  0.
         24    2    1    2    0    0  0.18647677582E+01  0.42540327921E+02  0.47274269840E+02  0.10172163591E+03  0.79367989550E+02 0.  0.
        -11    1    4    4    0    0  0.35552805452E+01  0.31095725560E+02 -0.17543345600E+02  0.35879703771E+02  0.00000000000E+00 0.  1.
         12    1    4    4    0    0 -0.16905127870E+01  0.11444602361E+02  0.64817615441E+02  0.65841932141E+02  0.00000000000E+00 0. -1.
        -11    1    3    3    0    0  0.29026750782E+02 -0.27803250044E+02  0.14240645595E+03  0.14797017156E+03  0.00000000000E+00 0.  1.
         11    1    3    3    0    0  0.13920648507E+02  0.17248351758E+02 -0.48253645064E+01  0.22684228791E+02  0.00000000000E+00 0. -1.
          3    1    1    2  501    0 -0.44812167047E+02 -0.31985429635E+02  0.23247130366E+02  0.59763091408E+02  0.00000000000E+00 0. -1.
<scales pt_clust_5="13000.00000" pt_clust_6="13000.00000" pt_clust_7="13000.00000" pt_clust_8="13000.00000" pt_clust_9="55.05632"></scales>
<clustering>
<clus scale="   55.056">  2  9  1 -1</clus>
<clus scale="   79.368">  5  6 -1 -1</clus>
<clus scale="   86.537">  2  5  1 -1</clus>
<clus scale="   90.766">  7  8 -1 -1</clus>
<clus scale="   55.056">  2  5  1 -1</clus>
</clustering>
</event>
<event>
 9    2  0.5615294E-005  0.9173557E+02  0.7546771E-02  0.1298821E+00
         21   -1    0    0  501  502  0.00000000000E+00  0.00000000000E+00  0.16303926714E+03  0.16303926714E+03  0.00000000000E+00 0.  1.
         -1   -1    0    0    0  501 -0.00000000000E+00 -0.00000000000E+00 -0.12190692005E+03  0.12190692005E+03  0.00000000000E+00 0.  1.
         24    2    1    2    0    0  0.16839851102E+02  0.11611414523E+02 -0.38691430003E+02  0.97538699268E+02  0.87168604250E+02 0.  0.
         23    2    1    2    0    0 -0.16050755918E+02 -0.41942462872E+02 -0.43153111810E+01  0.97964873137E+02  0.86958021486E+02 0.  0.
        -11    1    3    3    0    0  0.43148364705E+02  0.78140509872E+01 -0.51827280131E+02  0.67888936767E+02  0.00000000000E+00 0.  1.
         12    1    3    3    0    0 -0.26308513602E+02  0.37973635363E+01  0.13135850128E+02  0.29649762501E+02  0.00000000000E+00 0. -1.
        -13    1    4    4    0    0  0.22855964347E+00 -0.67536298462E+02 -0.28194446782E+01  0.67595511077E+02  0.00000000000E+00 0. -1.
         13    1    4    4    0    0 -0.16279315561E+02  0.25593835590E+02 -0.14958665028E+01  0.30369362060E+02  0.00000000000E+00 0.  1.
         -2    1    1    2    0  502 -0.78909518427E+00  0.30331048349E+02  0.84139088271E+02  0.89442614789E+02  0.00000000000E+00 0.  1.
<scales pt_clust_5="13000.00000" pt_clust_6="13000.00000" pt_clust_7="13000.00000" pt_clust_8="13000.00000" pt_clust_9="30.34131"></scales>
<clustering>
<clus scale="   30.341">  1  9  2 -1</clus>
<clus scale="   86.958">  7  8 -1 -1</clus>
<clus scale="   87.169">  5  6 -1 -1</clus>
<clus scale="   91.535">  1  7  2 -1</clus>
<clus scale="   30.341">  1  5  2 -1</clus>
</clustering>
</event>
<event>
 9    2  0.5615294E-005  0.1013129E+03  0.7546771E-02  0.1281834E+00
         21   -1    0    0  501  502  0.00000000000E+00  0.00000000000E+00  0.33292728166E+03  0.33292728166E+03  0.00000000000E+00 0. -1.
          2   -1    0    0  502    0 -0.00000000000E+00 -0.00000000000E+00 -0.16205353140E+03  0.16205353140E+03  0.00000000000E+00 0. -1.
         24    2    1    2    0    0 -0.45915106509E+02  0.21409279286E+02 -0.10607251739E+03  0.14320591192E+03  0.81792420290E+02 0.  0.
         23    2    1    2    0    0  0.34493782678E+02  0.28182278798E+02  0.38822037024E+02  0.10827352850E+03  0.90730064110E+02 0.  0.
        -11    1    3    3    0    0 -0.42492713587E+02 -0.24965676445E+02 -0.61290541095E+02  0.78647607313E+02  0.00000000000E+00 0.  1.
         12    1    3    3    0    0 -0.34223929219E+01  0.46374955730E+02 -0.44781976294E+02  0.64558304602E+02  0.00000000000E+00 0. -1.
        -11    1    4    4    0    0  0.39059458627E+02  0.55909186745E+02  0.11659548137E+02  0.69191209944E+02  0.00000000000E+00 0. -1.
         11    1    4    4    0    0 -0.45656759490E+01 -0.27726907947E+02  0.27162488887E+02  0.39082318556E+02  0.00000000000E+00 0.  1.
          1    1    1    2  501    0  0.11421323831E+02 -0.49591558084E+02  0.23812423062E+03  0.24350137264E+03  0.00000000000E+00 0. -1.
<scales pt_clust_5="13000.00000" pt_clust_6="13000.00000" pt_clust_7="13000.00000" pt_clust_8="13000.00000" pt_clust_9="50.88978"></scales>
<clustering>
<clus scale="   50.890">  1  9  2 -1</clus>
<clus scale="   81.792">  5  6 -1 -1</clus>
<clus scale="   90.730">  7  8 -1 -1</clus>
<clus scale="   93.394">  2  5  1 -1</clus>
<clus scale="   50.890">  1  5  2 -1</clus>
</clustering>
</event>
<event>
 9    2  0.5615294E-005  0.9750030E+02  0.7546771E-02  0.1290341E+00
         -1   -1    0    0    0  501 -0.00000000000E+00  0.00000000000E+00  0.54466076646E+02  0.54466076646E+02  0.00000000000E+00 0.  1.
         21   -1    0    0  501  502  0.00000000000E+00 -0.00000000000E+00 -0.29515564558E+03  0.29515564558E+03  0.00000000000E+00 0. -1.
         23    2    1    2    0    0  0.18291914346E+02  0.37222331706E+02 -0.18217872582E+02  0.10060558762E+03  0.89830380555E+02 0.  0.
         24    2    1    2    0    0  0.54082836770E+01 -0.31892839254E+02 -0.16328010957E+03  0.18503373998E+03  0.80812672415E+02 0.  0.
        -11    1    4    4    0    0  0.33349432561E+02 -0.21196463215E+02 -0.33363078732E+02  0.51716242395E+02  0.00000000000E+00 0.  1.
         12    1    4    4    0    0 -0.27941148884E+02 -0.10696376039E+02 -0.12991703084E+03  0.13331749759E+03  0.00000000000E+00 0. -1.
        -13    1    3    3    0    0 -0.12569612408E+02  0.59410211519E+02 -0.14363735614E+02  0.62401003915E+02  0.00000000000E+00 0.  1.
         13    1    3    3    0    0  0.30861526754E+02 -0.22187879813E+02 -0.38541369681E+01  0.38204583704E+02  0.00000000000E+00 0. -1.
         -2    1    1    2    0  502 -0.23700198023E+02 -0.53294924514E+01 -0.59191586775E+02  0.63982394618E+02  0.00000000000E+00 0.  1.
<scales pt_clust_5="13000.00000" pt_clust_6="13000.00000" pt_clust_7="13000.00000" pt_clust_8="13000.00000" pt_clust_9="24.29203"></scales>
<clustering>
<clus scale="   24.292">  2  9  1 -1</clus>
<clus scale="   80.813">  5  6 -1 -1</clus>
<clus scale="   89.261">  2  5  1 -1</clus>
<clus scale="   89.830">  7  8 -1 -1</clus>
<clus scale="   24.292">  2  5  1 -1</clus>
</clustering>
</event>
<event>
 9    2  0.5615294E-005  0.9347960E+02  0.7546771E-02  0.1299437E+00
         -3   -1    0    0    0  501 -0.00000000000E+00  0.00000000000E+00  0.58011874063E+02  0.58011874063E+02  0.00000000000E+00 0.  1.
         21   -1    0    0  501  502  0.00000000000E+00 -0.00000000000E+00 -0.18620343569E+03  0.18620343569E+03  0.00000000000E+00 0.  1.
         24    2    1    2    0    0  0.24536142358E+02 -0.19077912266E+02 -0.38239601587E+02  0.94694348422E+02  0.80862621001E+02 0.  0.
         23    2    1    2    0    0 -0.27533406248E+02 -0.25272817727E+01 -0.86734040911E+02  0.12747276404E+03  0.89230242107E+02 0.  0.
        -11    1    3    3    0    0  0.51824322334E+02 -0.44659610605E-01 -0.31810933173E+02  0.60808698795E+02  0.00000000000E+00 0.  1.
         12    1    3    3    0    0 -0.27288179975E+02 -0.19033252656E+02 -0.64286684149E+01  0.33885649627E+02  0.00000000000E+00 0. -1.
        -11    1    4    4    0    0  0.48382650944E+01 -0.24077664463E+02  0.73772878549E+01  0.25643071408E+02  0.00000000000E+00 0.  1.
         11    1    4    4    0    0 -0.32371671342E+02  0.21550382690E+02 -0.94111328766E+02  0.10182969263E+03  0.00000000000E+00 0. -1.
         -4    1    1    2    0  502  0.29972638895E+01  0.21605194039E+02 -0.32179191295E+01  0.22048197292E+02  0.00000000000E+00 0.  1.
<scales pt_clust_5="13000.00000" pt_clust_6="13000.00000" pt_clust_7="13000.00000" pt_clust_8="13000.00000" pt_clust_9="21.81212"></scales>
<clustering>
<clus scale="   21.812">  2  9  1 -1</clus>
<clus scale="   80.863">  5  6 -1 -1</clus>
<clus scale="   85.529">  1  5  2 -1</clus>
<clus scale="   89.230">  7  8 -1 -1</clus>
<clus scale="   21.812">  2  5  1 -1</clus>
</clustering>
</event>
<event>
 9    2  0.5615294E-005  0.8543989E+02  0.7546771E-02  0.1316830E+00
          2   -1    0    0  502    0 -0.00000000000E+00  0.00000000000E+00  0.11778829580E+04  0.11778829580E+04  0.00000000000E+00 0. -1.
         21   -1    0    0  501  502  0.00000000000E+00 -0.00000000000E+00 -0.16400544795E+02  0.16400544795E+02  0.00000000000E+00 0. -1.
         24    2    1    2    0    0 -0.46230557176E+01  0.39884846963E+01  0.72808521737E+03  0.73263585238E+03  0.81301462430E+02 0.  0.
         23    2    1    2    0    0 -0.28974611060E+02  0.42533078668E+02  0.30972688315E+03  0.32531201563E+03  0.85138560589E+02 0.  0.
        -11    1    3    3    0    0 -0.36822316571E+02  0.97602524889E+01  0.20370495615E+03  0.20723622918E+03  0.00000000000E+00 0.  1.
         12    1    3    3    0    0  0.32199260853E+02 -0.57717677926E+01  0.52438026122E+03  0.52539962320E+03  0.00000000000E+00 0. -1.
        -11    1    4    4    0    0  0.22084910212E+02  0.30575276940E+02  0.20209479884E+03  0.20558428573E+03  0.00000000000E+00 0. -1.
         11    1    4    4    0    0 -0.51059521272E+02  0.11957801728E+02  0.10763208431E+03  0.11972772990E+03  0.00000000000E+00 0.  1.
          1    1    1    2  501    0  0.33597666777E+02 -0.46521563364E+02  0.12367031265E+03  0.13633563474E+03  0.00000000000E+00 0. -1.
<scales pt_clust_5="13000.00000" pt_clust_6="13000.00000" pt_clust_7="13000.00000" pt_clust_8="13000.00000" pt_clust_9="57.38518"></scales>
<clustering>
<clus scale="   57.385">  2  9  1 -1</clus>
<clus scale="   81.301">  5  6 -1 -1</clus>
<clus scale="   81.617">  1  5  2 -1</clus>
<clus scale="   85.139">  7  8 -1 -1</clus>
<clus scale="   57.385">  2  5  1 -1</clus>
</clustering>
</event>
<event>
 9    2  0.5615294E-005  0.1048276E+03  0.7546771E-02  0.1274162E+00
         21   -1    0    0  501  502  0.00000000000E+00  0.00000000000E+00  0.29539654601E+02  0.29539654601E+02  0.00000000000E+00 0.  1.
          2   -1    0    0  502    0 -0.00000000000E+00 -0.00000000000E+00 -0.44499169819E+03  0.44499169819E+03  0.00000000000E+00 0. -1.
         24    2    1    2    0    0  0.57499949634E+02  0.18511826306E+02 -0.21219711435E+03  0.23544351944E+03  0.82201603317E+02 0.  0.
         23    2    1    2    0    0 -0.44558636162E+02  0.24458011028E+01 -0.15752750113E+03  0.18714847041E+03  0.90654191104E+02 0.  0.
        -11    1    3    3    0    0  0.51033770785E+02  0.33561022418E+02 -0.72546257366E+02  0.94835370217E+02  0.00000000000E+00 0.  1.
         12    1    3    3    0    0  0.64661788492E+01 -0.15049196112E+02 -0.13965085698E+03  0.14060814922E+03  0.00000000000E+00 0. -1.
        -13    1    4    4    0    0 -0.46066998449E+02 -0.33773819810E+02 -0.58806064527E+02  0.81981659387E+02  0.00000000000E+00 0.  1.
         13    1    4    4    0    0  0.15083622872E+01  0.36219620912E+02 -0.98721436599E+02  0.10516681102E+03  0.00000000000E+00 0. -1.
          1    1    1    2  501    0 -0.12941313473E+02 -0.20957627409E+02 -0.45727428119E+02  0.51939362947E+02  0.00000000000E+00 0. -1.
<scales pt_clust_5="13000.00000" pt_clust_6="13000.00000" pt_clust_7="13000.00000" pt_clust_8="13000.00000" pt_clust_9="24.63129"></scales>
<clustering>
<clus scale="   24.631">  1  9  2 -1</clus>
<clus scale="   82.202">  5  6 -1 -1</clus>
<clus scale="   90.654">  7  8 -1 -1</clus>
<clus scale="   97.610">  2  5  1 -1</clus>
<clus scale="   24.631">  1  5  2 -1</clus>
</clustering>
</event>
<event>
 9    2  0.5615294E-005  0.1041920E+03  0.7546771E-02  0.1276698E+00
         21   -1    0    0  501  502  0.00000000000E+00  0.00000000000E+00  0.18161965459E+03  0.18161965459E+03  0.00000000000E+00 0. -1.
         -1   -1    0    0    0  501 -0.00000000000E+00 -0.00000000000E+00 -0.13138727847E+03  0.13138727847E+03  0.00000000000E+00 0.  1.
         24    2    1    2    0    0 -0.28418746759E+02 -0.10146056134E+02 -0.95663161753E+01  0.86778950081E+02  0.80799159337E+02 0.  0.
         23    2    1    2    0    0  0.10221766866E+03 -0.17193531473E+02  0.48722825882E+02  0.14675214552E+03  0.91750799136E+02 0.  0.
        -11    1    3    3    0    0 -0.25025737860E+02  0.33290077206E+02 -0.11374919896E+02  0.43172973009E+02  0.00000000000E+00 0.  1.
         12    1    3    3    0    0 -0.33930088992E+01 -0.43436133340E+02  0.18086037207E+01  0.43605977072E+02  0.00000000000E+00 0. -1.
        -13    1    4    4    0    0  0.13679688906E+02 -0.26045987198E+02 -0.18921801732E+02  0.34979449945E+02  0.00000000000E+00 0.  1.
         13    1    4    4    0    0  0.88537979749E+02  0.88524557243E+01  0.67644627614E+02  0.11177269557E+03  0.00000000000E+00 0. -1.
         -2    1    1    2    0  502 -0.73798921897E+02  0.27339587608E+02  0.11075866409E+02  0.79475837463E+02  0.00000000000E+00 0.  1.
<scales pt_clust_5="13000.00000" pt_clust_6="13000.00000" pt_clust_7="13000.00000" pt_clust_8="13000.00000" pt_clust_9="78.70032"></scales>
<clustering>
<clus scale="   78.700">  1  9  2 -1</clus>
<clus scale="   80.799">  5  6 -1 -1</clus>
<clus scale="   91.751">  7  8 -1 -1</clus>
<clus scale="   94.690">  2  5  1 -1</clus>
<clus scale="   78.700">  1  5  2 -1</clus>
</clustering>
</event>
<event>
 9    2  0.5615294E-005  0.1708982E+03  0.7546771E-02  0.1198211E+00
         21   -1    0    0  501  502  0.00000000000E+00  0.00000000000E+00  0.53202452713E+02  0.53202452713E+02  0.00000000000E+00 0.  1.
          2   -1    0    0  502    0 -0.00000000000E+00 -0.00000000000E+00 -0.15666401091E+04  0.15666401091E+04  0.00000000000E+00 0. -1.
         24    2    1    2    0    0 -0.49773631239E+02 -0.47562204315E+02 -0.10455998550E+04  0.10510137353E+04  0.81309516237E+02 0.  0.
         23    2    1    2    0    0  0.29243813803E+02  0.17166729001E+03 -0.25743852671E+03  0.32369335274E+03  0.90431921732E+02 0.  0.
        -11    1    3    3    0    0 -0.19927555435E+02  0.14839368680E+02 -0.10607466277E+03  0.10894562135E+03  0.00000000000E+00 0.  1.
         12    1    3    3    0    0 -0.29846075804E+02 -0.62401572996E+02 -0.93952519224E+03  0.94206811399E+03  0.00000000000E+00 0. -1.
        -11    1    4    4    0    0 -0.54772303820E+00  0.16037270635E+03 -0.18678012884E+03  0.24618391798E+03  0.00000000000E+00 0.  1.
         11    1    4    4    0    0  0.29791536841E+02  0.11294583663E+02 -0.70658397867E+02  0.77509434759E+02  0.00000000000E+00 0. -1.
          1    1    1    2  501    0  0.20529817436E+02 -0.12410508570E+03 -0.21039927466E+03  0.24513547373E+03  0.00000000000E+00 0. -1.
<scales pt_clust_5="13000.00000" pt_clust_6="13000.00000" pt_clust_7="13000.00000" pt_clust_8="13000.00000" pt_clust_9="145.01120"></scales>
<clustering>
<clus scale="   81.310">  5  6 -1 -1</clus>
<clus scale="   90.432">  7  8 -1 -1</clus>
<clus scale="  106.540">  2  5  1 -1</clus>
<clus scale="  145.011">  1  9  2 -1</clus>
<clus scale="  145.011">  1  5  2 -1</clus>
</clustering>
</event>
<event>
 9    2  0.5615294E-005  0.9670937E+02  0.7546771E-02  0.1293140E+00
         21   -1    0    0  501  502  0.00000000000E+00  0.00000000000E+00  0.10968904898E+03  0.10968904898E+03  0.00000000000E+00 0. -1.
          2   -1    0    0  502    0 -0.00000000000E+00 -0.00000000000E+00 -0.43690812419E+03  0.43690812419E+03  0.00000000000E+00 0. -1.
         24    2    1    2    0    0  0.10707645630E+02 -0.50305483454E+02 -0.21833603759E+03  0.23770305141E+03  0.78656341126E+02 0.  0.
         23    2    1    2    0    0  0.58651184874E+02  0.56442500564E+01 -0.17363607311E+03  0.20402168143E+03  0.89462514855E+02 0.  0.
        -13    1    3    3    0    0  0.13026539937E+02  0.15490037606E+02 -0.18940014543E+02  0.27719238061E+02  0.00000000000E+00 0.  1.
         14    1    3    3    0    0 -0.23188943066E+01 -0.65795521060E+02 -0.19939602304E+03  0.20998381335E+03  0.00000000000E+00 0. -1.
        -13    1    4    4    0    0  0.34599917561E+02  0.33761605712E+02 -0.15544966517E+03  0.16279311631E+03  0.00000000000E+00 0.  1.
         13    1    4    4    0    0  0.24051267313E+02 -0.28117355655E+02 -0.18186407933E+02  0.41228565121E+02  0.00000000000E+00 0. -1.
          1    1    1    2  501    0 -0.69358830504E+02  0.44661233397E+02  0.64753035482E+02  0.10487244033E+03  0.00000000000E+00 0. -1.
<scales pt_clust_5="13000.00000" pt_clust_6="13000.00000" pt_clust_7="13000.00000" pt_clust_8="13000.00000" pt_clust_9="82.49408"></scales>
<clustering>
<clus scale="   78.656">  5  6 -1 -1</clus>
<clus scale="   82.494">  1  9  2 -1</clus>
<clus scale="   86.810">  2  5  1 -1</clus>
<clus scale="   89.463">  7  8 -1 -1</clus>
<clus scale="   82.494">  1  5  2 -1</clus>
</clustering>
</event>
<event>
 9    2  0.5615294E-005  0.1320511E+03  0.7546771E-02  0.1246803E+00
          2   -1    0    0  502    0 -0.00000000000E+00  0.00000000000E+00  0.23836289318E+03  0.23836289318E+03  0.00000000000E+00 0. -1.
         21   -1    0    0  501  502  0.00000000000E+00 -0.00000000000E+00 -0.15488457341E+03  0.15488457341E+03  0.00000000000E+00 0.  1.
         24    2    1    2    0    0  0.21308095613E+02  0.71938381567E+01  0.11669186062E+03  0.14353313029E+03  0.80492129489E+02 0.  0.
         23    2    1    2    0    0 -0.37313844923E+02 -0.92809325093E+02 -0.72662963659E+02  0.15409816312E+03  0.91980670482E+02 0.  0.
        -13    1    3    3    0    0  0.46218687019E+01 -0.34988259100E+02  0.32893046679E+02  0.48244092539E+02  0.00000000000E+00 0.  1.
         14    1    3    3    0    0  0.16686226911E+02  0.42182097256E+02  0.83798813940E+02  0.95289037750E+02  0.00000000000E+00 0. -1.
        -11    1    4    4    0    0 -0.34702594478E+02 -0.17381930389E+02 -0.68228507639E+02  0.78495419116E+02  0.00000000000E+00 0.  1.
         11    1    4    4    0    0 -0.26112504449E+01 -0.75427394705E+02 -0.44344560196E+01  0.75602744004E+02  0.00000000000E+00 0. -1.
          1    1    1    2  501    0  0.16005749310E+02  0.85615486937E+02  0.39449422811E+02  0.95616173185E+02  0.00000000000E+00 0. -1.
<scales pt_clust_5="13000.00000" pt_clust_6="13000.00000" pt_clust_7="13000.00000" pt_clust_8="13000.00000" pt_clust_9="94.74737"></scales>
<clustering>
<clus scale="   80.492">  5  6 -1 -1</clus>
<clus scale="   83.575">  1  5  2 -1</clus>
<clus scale="   91.981">  7  8 -1 -1</clus>
<clus scale="   94.747">  2  9  1 -1</clus>
<clus scale="   94.747">  2  5  1 -1</clus>
</clustering>
</event>
<event>
 9    2  0.5615294E-005  0.1536927E+03  0.7546771E-02  0.1214271E+00
          2   -1    0    0  502    0 -0.00000000000E+00  0.00000000000E+00  0.17009255662E+04  0.17009255662E+04  0.00000000000E+00 0. -1.
         21   -1    0    0  501  502  0.00000000000E+00 -0.00000000000E+00 -0.28163147088E+02  0.28163147088E+02  0.00000000000E+00 0. -1.
         24    2    1    2    0    0  0.53349233374E+02  0.40748416942E+02  0.17238769984E+03  0.20118652600E+03  0.79069115339E+02 0.  0.
         23    2    1    2    0    0 -0.11243237064E+03  0.68205615789E+02  0.70820113993E+03  0.72609125062E+03  0.91469151317E+02 0.  0.
        -11    1    3    3    0    0  0.55828960405E+02  0.41799831663E+02  0.70172098255E+02  0.98935444207E+02  0.00000000000E+00 0.  1.
         12    1    3    3    0    0 -0.24797270312E+01 -0.10514147214E+01  0.10221560159E+03  0.10225108179E+03  0.00000000000E+00 0. -1.
        -13    1    4    4    0    0 -0.10625127070E+03  0.36115432721E+02  0.64749202583E+03  0.65714502245E+03  0.00000000000E+00 0. -1.
         13    1    4    4    0    0 -0.61810999362E+01  0.32090183068E+02  0.60709114094E+02  0.68946228177E+02  0.00000000000E+00 0.  1.
          1    1    1    2  501    0  0.59083137262E+02 -0.10895403273E+03  0.79217357936E+03  0.80181093669E+03  0.00000000000E+00 0. -1.
<scales pt_clust_5="13000.00000" pt_clust_6="13000.00000" pt_clust_7="13000.00000" pt_clust_8="13000.00000" pt_clust_9="123.51051"></scales>
<clustering>
<clus scale="   79.069">  5  6 -1 -1</clus>
<clus scale="   91.469">  7  8 -1 -1</clus>
<clus scale="  103.723">  1  5  2 -1</clus>
<clus scale="  123.511">  2  9  1 -1</clus>
<clus scale="  123.511">  2  5  1 -1</clus>
</clustering>
</event>
<event>
 9    2  0.5615294E-005  0.1194889E+03  0.7546771E-02  0.1248008E+00
         21   -1    0    0  501  502  0.00000000000E+00  0.00000000000E+00  0.31498966852E+03  0.31498966852E+03  0.00000000000E+00 0.  1.
          2   -1    0    0  502    0 -0.00000000000E+00 -0.00000000000E+00 -0.68634451882E+02  0.68634451882E+02  0.00000000000E+00 0. -1.
         24    2    1    2    0    0  0.63791756114E+02 -0.46755663400E+02  0.22768360462E+02  0.11562644318E+03  0.81213274258E+02 0.  0.
         23    2    1    2    0    0 -0.60047664201E+02  0.24995705956E+02  0.13474900068E+03  0.17645709311E+03  0.93537720894E+02 0.  0.
        -13    1    3    3    0    0  0.11013766992E+02 -0.58277387589E+02  0.10529942334E+02  0.60236505984E+02  0.00000000000E+00 0.  1.
         14    1    3    3    0    0  0.52777989122E+02  0.11521724189E+02  0.12238418128E+02  0.55389937194E+02  0.00000000000E+00 0. -1.
        -13    1    4    4    0    0 -0.38208230605E+02 -0.16948368800E+02  0.99037839408E+01  0.42955803185E+02  0.00000000000E+00 0.  1.
         13    1    4    4    0    0 -0.21839433596E+02  0.41944074756E+02  0.12484521674E+03  0.13350128992E+03  0.00000000000E+00 0. -1.
          1    1    1    2  501    0 -0.37440919130E+01  0.21759957445E+02  0.88837855490E+02  0.91540584116E+02  0.00000000000E+00 0. -1.
<scales pt_clust_5="13000.00000" pt_clust_6="13000.00000" pt_clust_7="13000.00000" pt_clust_8="13000.00000" pt_clust_9="22.07972"></scales>
<clustering>
<clus scale="   22.080">  1  9  2 -1</clus>
<clus scale="   81.213">  5  6 -1 -1</clus>
<clus scale="   93.538">  7  8 -1 -1</clus>
<clus scale="  110.109">  2  5  1 -1</clus>
<clus scale="   22.080">  1  5  2 -1</clus>
</clustering>
</event>
<event>
 9    2  0.5615294E-005  0.1246910E+03  0.7546771E-02  0.1257411E+00
         21   -1    0    0  501  502  0.00000000000E+00  0.00000000000E+00  0.20731004702E+03  0.20731004702E+03  0.00000000000E+00 0. -1.
          2   -1    0    0  502    0 -0.00000000000E+00 -0.00000000000E+00 -0.18196891171E+03  0.18196891171E+03  0.00000000000E+00 0. -1.
         24    2    1    2    0    0  0.39371996239E+01 -0.35320432113E+01  0.10981770285E+03  0.13608341682E+03  0.80192216609E+02 0.  0.
         23    2    1    2    0    0 -0.49698013135E+01  0.86638235979E+02 -0.10833977137E+03  0.16672498021E+03  0.92351665434E+02 0.  0.
        -11    1    3    3    0    0  0.76991530979E+01 -0.40352798325E+02  0.41561390921E+02  0.58437783209E+02  0.00000000000E+00 0.  1.
         12    1    3    3    0    0 -0.37619534740E+01  0.36820755114E+02  0.68256311927E+02  0.77645633611E+02  0.00000000000E+00 0. -1.
        -13    1    4    4    0    0 -0.44165708003E+02  0.49569829514E+02 -0.33214161468E+02  0.74235828839E+02  0.00000000000E+00 0.  1.
         13    1    4    4    0    0  0.39195906689E+02  0.37068406465E+02 -0.75125609902E+02  0.92489151376E+02  0.00000000000E+00 0. -1.
          1    1    1    2  501    0  0.10326016895E+01 -0.83106192768E+02  0.23863203832E+02  0.86470561694E+02  0.00000000000E+00 0. -1.
<scales pt_clust_5="13000.00000" pt_clust_6="13000.00000" pt_clust_7="13000.00000" pt_clust_8="13000.00000" pt_clust_9="83.77961"></scales>
<clustering>
<clus scale="   80.192">  5  6 -1 -1</clus>
<clus scale="   80.367">  2  5  1 -1</clus>
<clus scale="   83.780">  1  9  2 -1</clus>
<clus scale="   92.352">  7  8 -1 -1</clus>
<clus scale="   83.780">  1  5  2 -1</clus>
</clustering>
</event>
<event>
 9    2  0.5615294E-005  0.2069029E+03  0.7546771E-02  0.1161063E+00
          2   -1    0    0  502    0 -0.00000000000E+00  0.00000000000E+00  0.12117345320E+04  0.12117345320E+04  0.00000000000E+00 0. -1.
         21   -1    0    0  501  502  0.00000000000E+00 -0.00000000000E+00 -0.95692406846E+02  0.95692406846E+02  0.00000000000E+00 0. -1.
         24    2    1    2    0    0  0.10446030470E+03 -0.29677758246E+02  0.53552440231E+02  0.14847783295E+03  0.85936479048E+02 0.  0.
         23    2    1    2    0    0 -0.20326929844E+03 -0.11650991636E+03  0.82947864134E+03  0.86666807694E+03  0.90475249921E+02 0.  0.
        -11    1    3    3    0    0  0.11814053106E+03 -0.17165693467E+02  0.50781140269E+02  0.12973268793E+03  0.00000000000E+00 0.  1.
         12    1    3    3    0    0 -0.13680226361E+02 -0.12512064779E+02  0.27712999620E+01  0.18745145019E+02  0.00000000000E+00 0. -1.
        -13    1    4    4    0    0 -0.67916484433E+02 -0.73985467922E+02  0.23627122693E+03  0.25673058056E+03  0.00000000000E+00 0.  1.
         13    1    4    4    0    0 -0.13535281401E+03 -0.42524448438E+02  0.59320741441E+03  0.60993749638E+03  0.00000000000E+00 0. -1.
          1    1    1    2  501    0  0.98808993743E+02  0.14618767461E+03  0.23301104356E+03  0.29228102893E+03  0.00000000000E+00 0. -1.
<scales pt_clust_5="13000.00000" pt_clust_6="13000.00000" pt_clust_7="13000.00000" pt_clust_8="13000.00000" pt_clust_9="186.07266"></scales>
<clustering>
<clus scale="   85.936">  5  6 -1 -1</clus>
<clus scale="   90.475">  7  8 -1 -1</clus>
<clus scale="  138.484">  1  5  2 -1</clus>
<clus scale="  186.073">  2  9  1 -1</clus>
<clus scale="  186.073">  2  5  1 -1</clus>
</clustering>
</event>
<event>
 9    2  0.5615294E-005  0.1057606E+03  0.7546771E-02  0.1272910E+00
         21   -1    0    0  501  502  0.00000000000E+00  0.00000000000E+00  0.77295682321E+02  0.77295682321E+02  0.00000000000E+00 0. -1.
          2   -1    0    0  502    0 -0.00000000000E+00 -0.00000000000E+00 -0.49351713662E+03  0.49351713662E+03  0.00000000000E+00 0. -1.
         23    2    1    2    0    0  0.47308491276E+02  0.19296128541E+02 -0.32361730651E+03  0.33987771464E+03  0.90433765329E+02 0.  0.
         24    2    1    2    0    0 -0.41782945550E+02 -0.55414356330E+02 -0.13703994536E+03  0.17340599741E+03  0.80455751103E+02 0.  0.
        -13    1    4    4    0    0 -0.48295371385E+02  0.20498312758E+01 -0.65796434773E+02  0.81644445826E+02  0.00000000000E+00 0.  1.
         14    1    4    4    0    0  0.65124258350E+01 -0.57464187606E+02 -0.71243510590E+02  0.91761551582E+02  0.00000000000E+00 0. -1.
        -13    1    3    3    0    0  0.42731822431E+01 -0.30247634846E+02 -0.50790924162E+02  0.59269701177E+02  0.00000000000E+00 0.  1.
         13    1    3    3    0    0  0.43035309033E+02  0.49543763387E+02 -0.27282638235E+03  0.28060801346E+03  0.00000000000E+00 0. -1.
          1    1    1    2  501    0 -0.55255457265E+01  0.36118227789E+02  0.44435797574E+02  0.57529106896E+02  0.00000000000E+00 0. -1.
<scales pt_clust_5="13000.00000" pt_clust_6="13000.00000" pt_clust_7="13000.00000" pt_clust_8="13000.00000" pt_clust_9="36.53845"></scales>
<clustering>
<clus scale="   36.538">  1  9  2 -1</clus>
<clus scale="   80.456">  5  6 -1 -1</clus>
<clus scale="   90.434">  7  8 -1 -1</clus>
<clus scale="   97.366">  1  5  2 -1</clus>
<clus scale="   36.538">  1  5  2 -1</clus>
</clustering>
</event>
<event>
 9    2  0.5615294E-005  0.1084381E+03  0.7546771E-02  0.1270290E+00
          2   -1    0    0  502    0 -0.00000000000E+00  0.00000000000E+00  0.38470705245E+02  0.38470705245E+02  0.00000000000E+00 0. -1.
         21   -1    0    0  501  502  0.00000000000E+00 -0.00000000000E+00 -0.51412702816E+03  0.51412702816E+03  0.00000000000E+00 0.  1.
         24    2    1    2    0    0 -0.41683379441E+02 -0.43612056119E+02 -0.70608231651E+02  0.12225164038E+03  0.79501104628E+02 0.  0.
         23    2    1    2    0    0  0.79440375926E+01  0.22548340356E+02 -0.34207758153E+03  0.35586583789E+03  0.95141407401E+02 0.  0.
        -11    1    3    3    0    0 -0.17151548506E+02 -0.55427579991E+02 -0.74839293751E+02  0.94695892883E+02  0.00000000000E+00 0.  1.
         12    1    3    3    0    0 -0.24531830934E+02  0.11815523873E+02  0.42310620994E+01  0.27555747492E+02  0.00000000000E+00 0. -1.
        -11    1    4    4    0    0  0.25574535631E+02  0.55189993042E+02 -0.22258115473E+03  0.23074306630E+03  0.00000000000E+00 0.  1.
         11    1    4    4    0    0 -0.17630498038E+02 -0.32641652686E+02 -0.11949642680E+03  0.12512277158E+03  0.00000000000E+00 0. -1.
          1    1    1    2  501    0  0.33739341848E+02  0.21063715762E+02 -0.62970509729E+02  0.74480255139E+02  0.00000000000E+00 0. -1.
<scales pt_clust_5="13000.00000" pt_clust_6="13000.00000" pt_clust_7="13000.00000" pt_clust_8="13000.00000" pt_clust_9="39.77468"></scales>
<clustering>
<clus scale="   39.775">  2  9  1 -1</clus>
<clus scale="   79.501">  5  6 -1 -1</clus>
<clus scale="   95.012">  1  5  2 -1</clus>
<clus scale="   95.141">  7  8 -1 -1</clus>
<clus scale="   39.775">  2  5  1 -1</clus>
</clustering>
</event>
<event>
 9    2  0.5615294E-005  0.9982641E+02  0.7546771E-02  0.1286446E+00
          4   -1    0    0  502    0 -0.00000000000E+00  0.00000000000E+00  0.16232942549E+03  0.16232942549E+03  0.00000000000E+00 0. -1.
         21   -1    0    0  501  502  0.00000000000E+00 -0.00000000000E+00 -0.18845166959E+03  0.18845166959E+03  0.00000000000E+00 0. -1.
         23    2    1    2    0    0  0.16173729508E+02 -0.36483804803E+02  0.10665292666E+03  0.14776224340E+03  0.94160375259E+02 0.  0.
         24    2    1    2    0    0 -0.23312342368E+02 -0.20916582762E+02 -0.10869108524E+03  0.14036258734E+03  0.83107972977E+02 0.  0.
        -13    1    4    4    0    0 -0.39293760381E+02  0.20121050465E+02 -0.62743503562E+02  0.76717687113E+02  0.00000000000E+00 0.  1.
         14    1    4    4    0    0  0.15981418013E+02 -0.41037633227E+02 -0.45947581675E+02  0.63644900223E+02  0.00000000000E+00 0. -1.
        -11    1    3    3    0    0 -0.86313477799E+01  0.28218705977E+02  0.50850057321E+02  0.58792209187E+02  0.00000000000E+00 0.  1.
         11    1    3    3    0    0  0.24805077288E+02 -0.64702510780E+02  0.55802869340E+02  0.88970034209E+02  0.00000000000E+00 0. -1.
          3    1    1    2  501    0  0.71386128595E+01  0.57400387565E+02 -0.24084085523E+02  0.62656264345E+02  0.00000000000E+00 0. -1.
<scales pt_clust_5="13000.00000" pt_clust_6="13000.00000" pt_clust_7="13000.00000" pt_clust_8="13000.00000" pt_clust_9="57.84258"></scales>
<clustering>
<clus scale="   57.843">  2  9  1 -1</clus>
<clus scale="   83.108">  5  6 -1 -1</clus>
<clus scale="   89.477">  2  5  1 -1</clus>
<clus scale="   94.160">  7  8 -1 -1</clus>
<clus scale="   57.843">  2  5  1 -1</clus>
</clustering>
</event>
<event>
 9    2  0.5615294E-005  0.1448655E+03  0.7546771E-02  0.1212667E+00
          4   -1    0    0  502    0 -0.00000000000E+00  0.00000000000E+00  0.50712093433E+02  0.50712093433E+02  0.00000000000E+00 0. -1.
         21   -1    0    0  501  502  0.00000000000E+00 -0.00000000000E+00 -0.80671069188E+03  0.80671069188E+03  0.00000000000E+00 0.  1.
         23    2    1    2    0    0  0.46230902093E+01  0.48898150620E+02 -0.28943282587E+03  0.31181710372E+03  0.10510063455E+03 0.  0.
         24    2    1    2    0    0  0.36960540245E+02 -0.14961664834E+03 -0.28628011159E+03  0.33494877176E+03  0.80518037803E+02 0.  0.
        -11    1    4    4    0    0  0.44538001274E+02 -0.56238027356E+02 -0.17713205720E+03  0.19110760049E+03  0.00000000000E+00 0.  1.
         12    1    4    4    0    0 -0.75774610290E+01 -0.93378620986E+02 -0.10914805440E+03  0.14384117127E+03  0.00000000000E+00 0. -1.
        -11    1    3    3    0    0 -0.29755884576E+02  0.63870886629E+02 -0.23769878429E+03  0.24792259856E+03  0.00000000000E+00 0. -1.
         11    1    3    3    0    0  0.34378974785E+02 -0.14972736009E+02 -0.51734041583E+02  0.63894505158E+02  0.00000000000E+00 0.  1.
          3    1    1    2  501    0 -0.41583630455E+02  0.10071849772E+03 -0.18028566098E+03  0.21065690983E+03  0.00000000000E+00 0. -1.
<scales pt_clust_5="13000.00000" pt_clust_6="13000.00000" pt_clust_7="13000.00000" pt_clust_8="13000.00000" pt_clust_9="108.96525"></scales>
<clustering>
<clus scale="   80.518">  5  6 -1 -1</clus>
<clus scale="  105.101">  7  8 -1 -1</clus>
<clus scale="  108.965">  2  9  1 -1</clus>
<clus scale="  128.152">  2  5  1 -1</clus>
<clus scale="  108.965">  2  5  1 -1</clus>
</clustering>
</event>
<event>
 9    2  0.5615294E-005  0.1110318E+03  0.7546771E-02  0.1262596E+00
          2   -1    0    0  502    0 -0.00000000000E+00  0.00000000000E+00  0.88938491916E+03  0.88938491916E+03  0.00000000000E+00 0. -1.
         21   -1    0    0  501  502  0.00000000000E+00 -0.00000000000E+00 -0.25187312033E+02  0.25187312033E+02  0.00000000000E+00 0.  1.
         24    2    1    2    0    0 -0.58845979674E+02 -0.31781600179E+02  0.62543937843E+03  0.63411961870E+03  0.80376335451E+02 0.  0.
         23    2    1    2    0    0  0.53769853870E+02  0.77219396065E+01  0.12329788650E+03  0.16240294100E+03  0.90672602763E+02 0.  0.
        -11    1    3    3    0    0  0.10971327338E+02 -0.32334643590E+02  0.17481984550E+03  0.17812320899E+03  0.00000000000E+00 0.  1.
         12    1    3    3    0    0 -0.69817307012E+02  0.55304341155E+00  0.45061953293E+03  0.45599640972E+03  0.00000000000E+00 0. -1.
        -11    1    4    4    0    0  0.59812959369E+02 -0.14173155844E+02  0.33967387225E+02  0.70229992525E+02  0.00000000000E+00 0.  1.
         11    1    4    4    0    0 -0.60431054990E+01  0.21895095451E+02  0.89330499277E+02  0.92172948472E+02  0.00000000000E+00 0. -1.
          1    1    1    2  501    0  0.50761258038E+01  0.24059660572E+02  0.11546034219E+03  0.11804967149E+03  0.00000000000E+00 0. -1.
<scales pt_clust_5="13000.00000" pt_clust_6="13000.00000" pt_clust_7="13000.00000" pt_clust_8="13000.00000" pt_clust_9="24.58933"></scales>
<clustering>
<clus scale="   24.589">  2  9  1 -1</clus>
<clus scale="   80.376">  5  6 -1 -1</clus>
<clus scale="   90.673">  7  8 -1 -1</clus>
<clus scale="  102.795">  1  5  2 -1</clus>
<clus scale="   24.589">  2  5  1 -1</clus>
</clustering>
</event>
<event>
 9    2  0.6278626E-005  0.2526820E+03  0.7546771E-02  0.1141938E+00
          2   -1    0    0  502    0 -0.00000000000E+00  0.00000000000E+00  0.12589638316E+04  0.12589638316E+04  0.00000000000E+00 0. -1.
         21   -1    0    0  501  502  0.00000000000E+00 -0.00000000000E+00 -0.10703643857E+03  0.10703643857E+03  0.00000000000E+00 0. -1.
         24    2    1    2    0    0  0.50018271168E+02 -0.76636104045E+02  0.24874513716E+02  0.12203559098E+03  0.76805104903E+02 0.  0.
         23    2    1    2    0    0  0.73306534442E+02 -0.19252946890E+03  0.38610001319E+03  0.44604847860E+03  0.86281983560E+02 0.  0.
        -13    1    3    3    0    0 -0.16072712710E+02 -0.40358352843E+02  0.30532510021E+01  0.43548261501E+02  0.00000000000E+00 0.  1.
         14    1    3    3    0    0  0.66090983878E+02 -0.36277751202E+02  0.21821262714E+02  0.78487329478E+02  0.00000000000E+00 0. -1.
        -13    1    4    4    0    0  0.36926721386E+02 -0.32048877577E+02  0.41330177304E+02  0.64022627737E+02  0.00000000000E+00 0.  1.
         13    1    4    4    0    0  0.36379813056E+02 -0.16048059133E+03  0.34476983589E+03  0.38202585086E+03  0.00000000000E+00 0. -1.
          1    1    1    2  501    0 -0.12332480561E+03  0.26916557295E+03  0.74095286614E+03  0.79791620060E+03  0.00000000000E+00 0. -1.
<scales pt_clust_5="13000.00000" pt_clust_6="13000.00000" pt_clust_7="13000.00000" pt_clust_8="13000.00000" pt_clust_9="237.49460"></scales>
<clustering>
<clus scale="   76.805">  5  6 -1 -1</clus>
<clus scale="   86.282">  7  8 -1 -1</clus>
<clus scale="  119.474">  1  5  2 -1</clus>
<clus scale="  237.495">  2  9  1 -1</clus>
<clus scale="  237.495">  2  5  1 -1</clus>
</clustering>
</event>
<event>
 9    2  0.5615294E-005  0.9978365E+02  0.7546771E-02  0.1283792E+00
         21   -1    0    0  501  502  0.00000000000E+00  0.00000000000E+00  0.41657243932E+02  0.41657243932E+02  0.00000000000E+00 0.  1.
         -3   -1    0    0    0  501 -0.00000000000E+00 -0.00000000000E+00 -0.49470923757E+03  0.49470923757E+03  0.00000000000E+00 0.  1.
         23    2    1    2    0    0  0.99867652078E+01  0.62452245326E+02 -0.13386376737E+03  0.17174493891E+03  0.87044801125E+02 0.  0.
         24    2    1    2    0    0  0.22015449187E+02 -0.33180889794E+02 -0.76315495615E+02  0.11790689512E+03  0.80574993608E+02 0.  0.
        -13    1    4    4    0    0  0.30381485028E+02  0.19573848665E+02 -0.25953077507E+02  0.44494184071E+02  0.00000000000E+00 0.  1.
         14    1    4    4    0    0 -0.83660358410E+01 -0.52754738459E+02 -0.50362418108E+02  0.73412711047E+02  0.00000000000E+00 0. -1.
        -13    1    3    3    0    0  0.32233075440E+02  0.71628527478E+02 -0.76977160221E+02  0.10997772637E+03  0.00000000000E+00 0. -1.
         13    1    3    3    0    0 -0.22246310233E+02 -0.91762821525E+01 -0.56886607147E+02  0.61767212547E+02  0.00000000000E+00 0.  1.
         -4    1    1    2    0  502 -0.32002214394E+02 -0.29271355532E+02 -0.24287273066E+03  0.24671464747E+03  0.00000000000E+00 0.  1.
<scales pt_clust_5="13000.00000" pt_clust_6="13000.00000" pt_clust_7="13000.00000" pt_clust_8="13000.00000" pt_clust_9="43.36999"></scales>
<clustering>
<clus scale="   43.370">  1  9  2 -1</clus>
<clus scale="   80.575">  5  6 -1 -1</clus>
<clus scale="   87.045">  7  8 -1 -1</clus>
<clus scale="   94.193">  1  5  2 -1</clus>
<clus scale="   43.370">  1  5  2 -1</clus>
</clustering>
</event>
<event>
 9    2  0.5615294E-005  0.1574015E+03  0.7546771E-02  0.1219587E+00
         21   -1    0    0  501  502  0.00000000000E+00  0.00000000000E+00  0.12375684524E+03  0.12375684524E+03  0.00000000000E+00 0. -1.
          2   -1    0    0  502    0 -0.00000000000E+00 -0.00000000000E+00 -0.55153990432E+03  0.55153990432E+03  0.00000000000E+00 0. -1.
         24    2    1    2    0    0  0.25531450395E+02  0.85692196520E+01 -0.33175879511E+03  0.34280303950E+03  0.82004507626E+02 0.  0.
         23    2    1    2    0    0 -0.22962040293E+02  0.12171850845E+03 -0.12591185710E+03  0.19879717986E+03  0.91235258360E+02 0.  0.
        -11    1    3    3    0    0 -0.80478054693E+01 -0.29856702413E+02 -0.76876271200E+02  0.82862240649E+02  0.00000000000E+00 0.  1.
         12    1    3    3    0    0  0.33579255865E+02  0.38425922065E+02 -0.25488252391E+03  0.25994079885E+03  0.00000000000E+00 0. -1.
        -13    1    4    4    0    0 -0.78922388732E+01  0.10381616479E+03 -0.13767135524E+03  0.17260789541E+03  0.00000000000E+00 0. -1.
         13    1    4    4    0    0 -0.15069801420E+02  0.17902343665E+02  0.11759498137E+02  0.26189284449E+02  0.00000000000E+00 0.  1.
          1    1    1    2  501    0 -0.25694101026E+01 -0.13028772811E+03  0.29887593127E+02  0.13369653020E+03  0.00000000000E+00 0. -1.
<scales pt_clust_5="13000.00000" pt_clust_6="13000.00000" pt_clust_7="13000.00000" pt_clust_8="13000.00000" pt_clust_9="128.26280"></scales>
<clustering>
<clus scale="   82.005">  5  6 -1 -1</clus>
<clus scale="   86.314">  2  5  1 -1</clus>
<clus scale="   91.235">  7  8 -1 -1</clus>
<clus scale="  128.263">  1  9  2 -1</clus>
<clus scale="  128.263">  1  5  2 -1</clus>
</clustering>
</event>
<event>
 9    2  0.5615294E-005  0.2091798E+03  0.7546771E-02  0.1162785E+00
          2   -1    0    0  502    0 -0.00000000000E+00  0.00000000000E+00  0.20627986709E+04  0.20627986709E+04  0.00000000000E+00 0. -1.
         21   -1    0    0  501  502  0.00000000000E+00 -0.00000000000E+00 -0.37165827058E+02  0.37165827058E+02  0.00000000000E+00 0. -1.
         24    2    1    2    0    0 -0.77214048184E+01 -0.10166057464E+03  0.71284404373E+03  0.72438037674E+03  0.78649901438E+02 0.  0.
         23    2    1    2    0    0  0.14964919112E+03  0.17587029578E+03  0.72331042840E+03  0.76473607959E+03  0.91203367596E+02 0.  0.
        -11    1    3    3    0    0 -0.29686767474E+02 -0.12016954419E+02  0.11200675465E+03  0.11649559839E+03  0.00000000000E+00 0.  1.
         12    1    3    3    0    0  0.21965362656E+02 -0.89643620222E+02  0.60083728908E+03  0.60788477835E+03  0.00000000000E+00 0. -1.
        -13    1    4    4    0    0  0.46397386863E+02  0.60212994061E+01  0.18736359673E+03  0.19311678056E+03  0.00000000000E+00 0.  1.
         13    1    4    4    0    0  0.10325180426E+03  0.16984899638E+03  0.53594683167E+03  0.57161929903E+03  0.00000000000E+00 0. -1.
          1    1    1    2  501    0 -0.14192778630E+03 -0.74209721141E+02  0.58947837170E+03  0.61084804161E+03  0.00000000000E+00 0. -1.
<scales pt_clust_5="13000.00000" pt_clust_6="13000.00000" pt_clust_7="13000.00000" pt_clust_8="13000.00000" pt_clust_9="188.25017"></scales>
<clustering>
<clus scale="   78.650">  5  6 -1 -1</clus>
<clus scale="   91.203">  7  8 -1 -1</clus>
<clus scale="  128.765">  1  5  2 -1</clus>
<clus scale="  188.250">  2  9  1 -1</clus>
<clus scale="  188.250">  2  5  1 -1</clus>
</clustering>
</event>
<event>
 9    2  0.5615294E-005  0.1099320E+03  0.7546771E-02  0.1266714E+00
         21   -1    0    0  501  502  0.00000000000E+00  0.00000000000E+00  0.36842117398E+02  0.36842117398E+02  0.00000000000E+00 0.  1.
          2   -1    0    0  502    0 -0.00000000000E+00 -0.00000000000E+00 -0.53974653232E+03  0.53974653232E+03  0.00000000000E+00 0. -1.
         24    2    1    2    0    0 -0.16503344470E+02  0.52633482982E+02 -0.26634877154E+03  0.28393377076E+03  0.81449826101E+02 0.  0.
         23    2    1    2    0    0 -0.32469842174E+02 -0.57359255316E+02 -0.12478689349E+03  0.17053625062E+03  0.95741679357E+02 0.  0.
        -11    1    3    3    0    0  0.65355400548E+01  0.27209437204E+02 -0.18103477099E+02  0.33328705943E+02  0.00000000000E+00 0.  1.
         12    1    3    3    0    0 -0.23038884524E+02  0.25424045778E+02 -0.24824529444E+03  0.25060506482E+03  0.00000000000E+00 0. -1.
        -13    1    4    4    0    0  0.19170550844E+02 -0.75776104116E+01 -0.87107804863E+02  0.89513685363E+02  0.00000000000E+00 0. -1.
         13    1    4    4    0    0 -0.51640393018E+02 -0.49781644904E+02 -0.37679088628E+02  0.81022565254E+02  0.00000000000E+00 0.  1.
          1    1    1    2  501    0  0.48973186643E+02  0.47257723342E+01 -0.11176874990E+03  0.12211862834E+03  0.00000000000E+00 0. -1.
<scales pt_clust_5="13000.00000" pt_clust_6="13000.00000" pt_clust_7="13000.00000" pt_clust_8="13000.00000" pt_clust_9="49.20069"></scales>
<clustering>
<clus scale="   49.201">  1  9  2 -1</clus>
<clus scale="   81.450">  5  6 -1 -1</clus>
<clus scale="   95.742">  7  8 -1 -1</clus>
<clus scale="   97.738">  2  5  1 -1</clus>
<clus scale="   49.201">  1  5  2 -1</clus>
</clustering>
</event>
<event>
 9    2  0.5615294E-005  0.1036109E+03  0.7546771E-02  0.1280893E+00
          2   -1    0    0  502    0 -0.00000000000E+00  0.00000000000E+00  0.12728642662E+04  0.12728642662E+04  0.00000000000E+00 0. -1.
         21   -1    0    0  501  502  0.00000000000E+00 -0.00000000000E+00 -0.14764591772E+02  0.14764591772E+02  0.00000000000E+00 0.  1.
         24    2    1    2    0    0 -0.25179972630E+02 -0.45334718193E+02  0.76400812160E+03  0.76956438462E+03  0.76365335837E+02 0.  0.
         23    2    1    2    0    0  0.47084131931E+02 -0.11554971995E+01  0.32455955908E+03  0.34091417212E+03  0.93087672145E+02 0.  0.
        -13    1    3    3    0    0  0.13753274116E+02 -0.30300745245E+02  0.13024619159E+03  0.13442975167E+03  0.00000000000E+00 0.  1.
         14    1    3    3    0    0 -0.38933246745E+02 -0.15033972949E+02  0.63376193001E+03  0.63513463295E+03  0.00000000000E+00 0. -1.
        -13    1    4    4    0    0  0.62390227534E+02 -0.31030148857E+02  0.19496545873E+03  0.20704333056E+03  0.00000000000E+00 0.  1.
         13    1    4    4    0    0 -0.15306095603E+02  0.29874651658E+02  0.12959410035E+03  0.13387084156E+03  0.00000000000E+00 0. -1.
          1    1    1    2  501    0 -0.21904159302E+02  0.46490215393E+02  0.16953199373E+03  0.17715030122E+03  0.00000000000E+00 0. -1.
<scales pt_clust_5="13000.00000" pt_clust_6="13000.00000" pt_clust_7="13000.00000" pt_clust_8="13000.00000" pt_clust_9="51.39195"></scales>
<clustering>
<clus scale="   51.392">  2  9  1 -1</clus>
<clus scale="   76.365">  5  6 -1 -1</clus>
<clus scale="   88.891">  1  5  2 -1</clus>
<clus scale="   93.088">  7  8 -1 -1</clus>
<clus scale="   51.392">  2  5  1 -1</clus>
</clustering>
</event>
<event>
 9    2  0.5615294E-005  0.1653164E+03  0.7546771E-02  0.1208072E+00
         21   -1    0    0  501  502  0.00000000000E+00  0.00000000000E+00  0.12211485741E+03  0.12211485741E+03  0.00000000000E+00 0.  1.
         -3   -1    0    0    0  501 -0.00000000000E+00 -0.00000000000E+00 -0.66982703842E+03  0.66982703842E+03  0.00000000000E+00 0.  1.
         23    2    1    2    0    0 -0.91322224023E+01 -0.34499858995E+02  0.14180474257E+01  0.95128499635E+02  0.88169058222E+02 0.  0.
         24    2    1    2    0    0  0.80503341246E+02  0.15189889673E+03 -0.52293257624E+03  0.55694671807E+03  0.84717794497E+02 0.  0.
        -13    1    4    4    0    0  0.88417873011E+02  0.14549925952E+03 -0.51869206184E+03  0.54592051601E+03  0.00000000000E+00 0.  1.
         14    1    4    4    0    0 -0.79145317657E+01  0.63996372156E+01 -0.42405143965E+01  0.11026202062E+02  0.00000000000E+00 0. -1.
        -11    1    3    3    0    0 -0.82949354736E+01 -0.54572299254E+02 -0.26098950649E+02  0.61058144627E+02  0.00000000000E+00 0. -1.
         11    1    3    3    0    0 -0.83728692863E+00  0.20072440259E+02  0.27516998075E+02  0.34070355008E+02  0.00000000000E+00 0.  1.
         -4    1    1    2    0  502 -0.71371118843E+02 -0.11739903774E+03 -0.26197652206E+02  0.13986667812E+03  0.00000000000E+00 0.  1.
<scales pt_clust_5="13000.00000" pt_clust_6="13000.00000" pt_clust_7="13000.00000" pt_clust_8="13000.00000" pt_clust_9="141.95917"></scales>
<clustering>
<clus scale="   84.718">  5  6 -1 -1</clus>
<clus scale="   88.169">  7  8 -1 -1</clus>
<clus scale="   95.118">  2  7  1 -1</clus>
<clus scale="  141.959">  1  9  2 -1</clus>
<clus scale="  141.959">  1  5  2 -1</clus>
</clustering>
</event>
<event>
 9    2  0.5615294E-005  0.1154274E+03  0.7546771E-02  0.1255212E+00
         21   -1    0    0  501  502  0.00000000000E+00  0.00000000000E+00  0.10424968003E+03  0.10424968003E+03  0.00000000000E+00 0. -1.
          2   -1    0    0  502    0 -0.00000000000E+00 -0.00000000000E+00 -0.31635630538E+03  0.31635630538E+03  0.00000000000E+00 0. -1.
         23    2    1    2    0    0 -0.29956989376E+02 -0.71572765218E+02 -0.78520828021E+02  0.14372624630E+03  0.92041466250E+02 0.  0.
         24    2    1    2    0    0  0.74316561541E+02  0.17247284557E+02  0.16208149423E+02  0.11147944898E+03  0.79652641471E+02 0.  0.
        -13    1    4    4    0    0  0.28117540379E+02 -0.28862330938E+02  0.22073769912E+02  0.45944330905E+02  0.00000000000E+00 0.  1.
         14    1    4    4    0    0  0.46199021162E+02  0.46109615495E+02 -0.58656204893E+01  0.65535118076E+02  0.00000000000E+00 0. -1.
        -13    1    3    3    0    0  0.24123961115E+02 -0.31005485172E+02 -0.63187495838E+02  0.74404067368E+02  0.00000000000E+00 0.  1.
         13    1    3    3    0    0 -0.54080950491E+02 -0.40567280045E+02 -0.15333332184E+02  0.69322178934E+02  0.00000000000E+00 0. -1.
          1    1    1    2  501    0 -0.44359572165E+02  0.54325480660E+02 -0.14979394675E+03  0.16540029013E+03  0.00000000000E+00 0. -1.
<scales pt_clust_5="13000.00000" pt_clust_6="13000.00000" pt_clust_7="13000.00000" pt_clust_8="13000.00000" pt_clust_9="70.13583"></scales>
<clustering>
<clus scale="   70.136">  1  9  2 -1</clus>
<clus scale="   79.653">  5  6 -1 -1</clus>
<clus scale="   92.041">  7  8 -1 -1</clus>
<clus scale="  105.813">  1  5  2 -1</clus>
<clus scale="   70.136">  1  5  2 -1</clus>
</clustering>
</event>
<event>
 9    2  0.5615294E-005  0.1037357E+03  0.7546771E-02  0.1276887E+00
         -1   -1    0    0    0  501 -0.00000000000E+00  0.00000000000E+00  0.17933749099E+03  0.17933749099E+03  0.00000000000E+00 0.  1.
         21   -1    0    0  501  502  0.00000000000E+00 -0.00000000000E+00 -0.10439630848E+03  0.10439630848E+03  0.00000000000E+00 0.  1.
         23    2    1    2    0    0  0.27244279817E+02  0.45000585035E+02  0.32095405286E+02  0.10948074722E+03  0.90490969362E+02 0.  0.
         24    2    1    2    0    0 -0.66666728346E+02  0.38535513603E+01  0.17031895740E+02  0.10637660149E+03  0.81034519465E+02 0.  0.
        -11    1    4    4    0    0 -0.61544929590E+02  0.36671047587E+02  0.90033677997E+01  0.72205295659E+02  0.00000000000E+00 0.  1.
         12    1    4    4    0    0 -0.51217987557E+01 -0.32817496227E+02  0.80285279399E+01  0.34171305828E+02  0.00000000000E+00 0. -1.
        -13    1    3    3    0    0  0.49249433648E+02  0.58023487228E+02  0.34957380386E+02  0.83751120757E+02  0.00000000000E+00 0. -1.
         13    1    3    3    0    0 -0.22005153831E+02 -0.13022902193E+02 -0.28619750997E+01  0.25729626467E+02  0.00000000000E+00 0.  1.
         -2    1    1    2    0  502  0.39422448529E+02 -0.48854136395E+02  0.25813881487E+02  0.67876450764E+02  0.00000000000E+00 0.  1.
<scales pt_clust_5="13000.00000" pt_clust_6="13000.00000" pt_clust_7="13000.00000" pt_clust_8="13000.00000" pt_clust_9="62.77627"></scales>
<clustering>
<clus scale="   62.776">  2  9  1 -1</clus>
<clus scale="   81.035">  5  6 -1 -1</clus>
<clus scale="   90.491">  7  8 -1 -1</clus>
<clus scale="   95.598">  2  5  1 -1</clus>
<clus scale="   62.776">  2  5  1 -1</clus>
</clustering>
</event>
<event>
 9    2  0.5615294E-005  0.1334003E+03  0.7546771E-02  0.1225249E+00
         21   -1    0    0  501  502  0.00000000000E+00  0.00000000000E+00  0.23939169528E+02  0.23939169528E+02  0.00000000000E+00 0.  1.
          2   -1    0    0  502    0 -0.00000000000E+00 -0.00000000000E+00 -0.13859131553E+04  0.13859131553E+04  0.00000000000E+00 0. -1.
         23    2    1    2    0    0 -0.91005569139E+02  0.41167931268E+00 -0.58934598764E+03  0.60324102845E+03  0.91043188458E+02 0.  0.
         24    2    1    2    0    0  0.10487910178E+03 -0.61235357954E+02 -0.34333151000E+03  0.37280549937E+03  0.79737190509E+02 0.  0.
        -11    1    4    4    0    0  0.48324227052E+02 -0.71785616877E+02 -0.22925003148E+03  0.24503873703E+03  0.00000000000E+00 0.  1.
         12    1    4    4    0    0  0.56554874731E+02  0.10550258923E+02 -0.11408147852E+03  0.12776676235E+03  0.00000000000E+00 0. -1.
        -11    1    3    3    0    0 -0.46057001505E+02 -0.42660857676E+02 -0.22409064819E+03  0.23271831637E+03  0.00000000000E+00 0. -1.
         11    1    3    3    0    0 -0.44948567633E+02  0.43072536989E+02 -0.36525533945E+03  0.37052271208E+03  0.00000000000E+00 0.  1.
          1    1    1    2  501    0 -0.13873532644E+02  0.60823678641E+02 -0.42929648810E+03  0.43380579697E+03  0.00000000000E+00 0. -1.
<scales pt_clust_5="13000.00000" pt_clust_6="13000.00000" pt_clust_7="13000.00000" pt_clust_8="13000.00000" pt_clust_9="62.38589"></scales>
<clustering>
<clus scale="   62.386">  1  9  2 -1</clus>
<clus scale="   79.737">  5  6 -1 -1</clus>
<clus scale="   91.043">  7  8 -1 -1</clus>
<clus scale="  125.956">  1  5  2 -1</clus>
<clus scale="   62.386">  1  5  2 -1</clus>
</clustering>
</event>
<event>
 9    2  0.5615294E-005  0.1177633E+03  0.7546771E-02  0.1250552E+00
         21   -1    0    0  501  502  0.00000000000E+00  0.00000000000E+00  0.88762010354E+02  0.88762010354E+02  0.00000000000E+00 0.  1.
          2   -1    0    0  502    0 -0.00000000000E+00 -0.00000000000E+00 -0.29651107106E+03  0.29651107106E+03  0.00000000000E+00 0. -1.
         23    2    1    2    0    0  0.77418746521E+02 -0.13830789617E+02 -0.21460730252E+03  0.24735482786E+03  0.94568300799E+02 0.  0.
         24    2    1    2    0    0 -0.38067284001E+02  0.12202424580E+02  0.22492306040E+02  0.95543577872E+02  0.83813209965E+02 0.  0.
        -11    1    4    4    0    0  0.90695855071E+01 -0.28036459353E+02 -0.41372568787E+00  0.29469842267E+02  0.00000000000E+00 0.  1.
         12    1    4    4    0    0 -0.47136869508E+02  0.40238883933E+02  0.22906031728E+02  0.66073735604E+02  0.00000000000E+00 0. -1.
        -11    1    3    3    0    0  0.81155432542E+02  0.20054361678E+02 -0.18153386723E+03  0.19985726558E+03  0.00000000000E+00 0. -1.
         11    1    3    3    0    0 -0.37366860210E+01 -0.33885151295E+02 -0.33073435295E+02  0.47497562284E+02  0.00000000000E+00 0.  1.
          1    1    1    2  501    0 -0.39351462519E+02  0.16283650374E+01 -0.15634064227E+02  0.42374675685E+02  0.00000000000E+00 0. -1.
<scales pt_clust_5="13000.00000" pt_clust_6="13000.00000" pt_clust_7="13000.00000" pt_clust_8="13000.00000" pt_clust_9="39.38514"></scales>
<clustering>
<clus scale="   39.385">  1  9  2 -1</clus>
<clus scale="   83.813">  5  6 -1 -1</clus>
<clus scale="   94.568">  7  8 -1 -1</clus>
<clus scale="  109.315">  1  5  2 -1</clus>
<clus scale="   39.385">  1  5  2 -1</clus>
</clustering>
</event>
<event>
 9    2  0.5615294E-005  0.2416252E+03  0.7546771E-02  0.1155507E+00
          2   -1    0    0  502    0 -0.00000000000E+00  0.00000000000E+00  0.21246681682E+03  0.21246681682E+03  0.00000000000E+00 0. -1.
         21   -1    0    0  501  502  0.00000000000E+00 -0.00000000000E+00 -0.38083535440E+03  0.38083535440E+03  0.00000000000E+00 0.  1.
         24    2    1    2    0    0  0.12877153656E+01 -0.58066138945E+02 -0.19913249961E+02  0.10097821749E+03  0.80166877085E+02 0.  0.
         23    2    1    2    0    0  0.22276313533E+03  0.28805222934E+02 -0.62669803046E+02  0.25063379201E+03  0.91851173932E+02 0.  0.
        -13    1    3    3    0    0  0.21607247354E+02 -0.43273335731E+02  0.21184849714E+02  0.52803906871E+02  0.00000000000E+00 0.  1.
         14    1    3    3    0    0 -0.20319531989E+02 -0.14792803215E+02 -0.41098099675E+02  0.48174310624E+02  0.00000000000E+00 0. -1.
        -11    1    4    4    0    0  0.19876553062E+03  0.55642452524E+02 -0.49157146262E+02  0.21217974389E+03  0.00000000000E+00 0.  1.
         11    1    4    4    0    0  0.23997604709E+02 -0.26837229590E+02 -0.13512656784E+02  0.38454048125E+02  0.00000000000E+00 0. -1.
          1    1    1    2  501    0 -0.22405085070E+03  0.29260916011E+02 -0.85785484569E+02  0.24169016171E+03  0.00000000000E+00 0. -1.
<scales pt_clust_5="13000.00000" pt_clust_6="13000.00000" pt_clust_7="13000.00000" pt_clust_8="13000.00000" pt_clust_9="223.48629"></scales>
<clustering>
<clus scale="   80.167">  5  6 -1 -1</clus>
<clus scale="   91.851">  7  8 -1 -1</clus>
<clus scale="   98.995">  1  5  2 -1</clus>
<clus scale="  223.486">  2  9  1 -1</clus>
<clus scale="  223.486">  2  5  1 -1</clus>
</clustering>
</event>
<event>
 9    2  0.5615294E-005  0.1417533E+03  0.7546771E-02  0.1217286E+00
          4   -1    0    0  502    0 -0.00000000000E+00  0.00000000000E+00  0.67602842913E+02  0.67602842913E+02  0.00000000000E+00 0. -1.
         21   -1    0    0  501  502  0.00000000000E+00 -0.00000000000E+00 -0.41222511417E+03  0.41222511417E+03  0.00000000000E+00 0. -1.
         24    2    1    2    0    0  0.69661972021E+02  0.57951891146E+02 -0.82855498457E+02  0.14545773571E+03  0.77985301303E+02 0.  0.
         23    2    1    2    0    0 -0.11186734196E+03 -0.26047327195E+02 -0.18754536004E+03  0.24322192153E+03  0.10387913933E+03 0.  0.
        -11    1    3    3    0    0  0.39607452165E+02  0.63313672990E+02 -0.86989948655E+02  0.11465000053E+03  0.00000000000E+00 0.  1.
         12    1    3    3    0    0  0.30054519856E+02 -0.53617818435E+01  0.41344501985E+01  0.30807735177E+02  0.00000000000E+00 0. -1.
        -11    1    4    4    0    0 -0.33097262813E+02 -0.40319338625E+02 -0.17069149447E+02  0.54885642346E+02  0.00000000000E+00 0.  1.
         11    1    4    4    0    0 -0.78770079147E+02  0.14272011430E+02 -0.17047621059E+03  0.18833627918E+03  0.00000000000E+00 0. -1.
          3    1    1    2  501    0  0.42205369939E+02 -0.31904563951E+02 -0.74221412769E+02  0.91148299853E+02  0.00000000000E+00 0. -1.
<scales pt_clust_5="13000.00000" pt_clust_6="13000.00000" pt_clust_7="13000.00000" pt_clust_8="13000.00000" pt_clust_9="52.90741"></scales>
<clustering>
<clus scale="   52.907">  2  9  1 -1</clus>
<clus scale="   77.985">  5  6 -1 -1</clus>
<clus scale="  103.879">  7  8 -1 -1</clus>
<clus scale="  124.036">  1  5  2 -1</clus>
<clus scale="   52.907">  2  5  1 -1</clus>
</clustering>
</event>
<event>
 9    2  0.5615294E-005  0.1149330E+03  0.7546771E-02  0.1255105E+00
          2   -1    0    0  502    0 -0.00000000000E+00  0.00000000000E+00  0.12281116577E+03  0.12281116577E+03  0.00000000000E+00 0. -1.
         21   -1    0    0  501  502  0.00000000000E+00 -0.00000000000E+00 -0.34018485240E+03  0.34018485240E+03  0.00000000000E+00 0.  1.
         24    2    1    2    0    0 -0.62045561794E+02  0.16118320024E+02  0.58541050089E+02  0.11848786876E+03  0.80640365325E+02 0.  0.
         23    2    1    2    0    0  0.10177646846E+03 -0.32196428163E+02 -0.12493220159E+03  0.18755982536E+03  0.90418878429E+02 0.  0.
        -13    1    3    3    0    0 -0.37217297906E+02  0.16442665063E+02 -0.13037003210E+02  0.42725308079E+02  0.00000000000E+00 0.  1.
         14    1    3    3    0    0 -0.24828263888E+02 -0.32434503898E+00  0.71578053298E+02  0.75762560684E+02  0.00000000000E+00 0. -1.
        -11    1    4    4    0    0  0.61667944542E+02 -0.45624445644E+02 -0.12332052696E+03  0.14523249566E+03  0.00000000000E+00 0.  1.
         11    1    4    4    0    0  0.40108523922E+02  0.13428017481E+02 -0.16116746233E+01  0.42327329702E+02  0.00000000000E+00 0. -1.
          1    1    1    2  501    0 -0.39730906670E+02  0.16078108140E+02 -0.15098253513E+03  0.15694832404E+03  0.00000000000E+00 0. -1.
<scales pt_clust_5="13000.00000" pt_clust_6="13000.00000" pt_clust_7="13000.00000" pt_clust_8="13000.00000" pt_clust_9="42.86083"></scales>
<clustering>
<clus scale="   42.861">  2  9  1 -1</clus>
<clus scale="   80.640">  5  6 -1 -1</clus>
<clus scale="   90.419">  7  8 -1 -1</clus>
<clus scale="  107.410">  1  5  2 -1</clus>
<clus scale="   42.861">  2  5  1 -1</clus>
</clustering>
</event>
<event>
 9    2  0.5615294E-005  0.1313875E+03  0.7546771E-02  0.1227248E+00
          2   -1    0    0  502    0 -0.00000000000E+00  0.00000000000E+00  0.64068569425E+03  0.64068569425E+03  0.00000000000E+00 0. -1.
         21   -1    0    0  501  502  0.00000000000E+00 -0.00000000000E+00 -0.64297442417E+02  0.64297442417E+02  0.00000000000E+00 0. -1.
         23    2    1    2    0    0 -0.31297020698E+02 -0.80398879143E+02  0.21157922474E+03  0.24577835051E+03  0.90541404700E+02 0.  0.
         24    2    1    2    0    0 -0.22889732775E+02  0.12743413735E+03  0.96973472245E+02  0.18192441504E+03  0.83242052109E+02 0.  0.
        -11    1    4    4    0    0 -0.20689226361E+02  0.44433058663E+02  0.84884158339E+02  0.98018677437E+02  0.00000000000E+00 0.  1.
         12    1    4    4    0    0 -0.22005064136E+01  0.83001078689E+02  0.12089313906E+02  0.83905737603E+02  0.00000000000E+00 0. -1.
        -11    1    3    3    0    0  0.32074822188E+02 -0.22452311812E+02  0.69232406448E+02  0.79536322688E+02  0.00000000000E+00 0.  1.
         11    1    3    3    0    0 -0.63371842886E+02 -0.57946567330E+02  0.14234681829E+03  0.16624202782E+03  0.00000000000E+00 0. -1.
          1    1    1    2  501    0  0.54186753473E+02 -0.47035258210E+02  0.26783555485E+03  0.27728037112E+03  0.00000000000E+00 0. -1.
<scales pt_clust_5="13000.00000" pt_clust_6="13000.00000" pt_clust_7="13000.00000" pt_clust_8="13000.00000" pt_clust_9="71.75322"></scales>
<clustering>
<clus scale="   71.753">  2  9  1 -1</clus>
<clus scale="   83.242">  5  6 -1 -1</clus>
<clus scale="   90.541">  7  8 -1 -1</clus>
<clus scale="  126.468">  2  5  1 -1</clus>
<clus scale="   71.753">  2  5  1 -1</clus>
</clustering>
</event>
<event>
 9    2  0.5615294E-005  0.1118212E+03  0.7546771E-02  0.1261861E+00
         21   -1    0    0  501  502  0.00000000000E+00  0.00000000000E+00  0.36657591558E+02  0.36657591558E+02  0.00000000000E+00 0.  1.
          2   -1    0    0  502    0 -0.00000000000E+00 -0.00000000000E+00 -0.12218559321E+04  0.12218559321E+04  0.00000000000E+00 0. -1.
         23    2    1    2    0    0  0.18669068499E+02 -0.43583569898E+02 -0.44746038861E+03  0.45900488894E+03  0.90645612243E+02 0.  0.
         24    2    1    2    0    0 -0.39368892178E+02  0.14178316343E+03 -0.24291382422E+03  0.29461007041E+03  0.78330022877E+02 0.  0.
        -11    1    4    4    0    0 -0.55000163872E+02  0.11029899147E+03 -0.22140955290E+03  0.25340299063E+03  0.00000000000E+00 0.  1.
         12    1    4    4    0    0  0.15631271693E+02  0.31484171959E+02 -0.21504271325E+02  0.41207079779E+02  0.00000000000E+00 0. -1.
        -11    1    3    3    0    0  0.20307597214E+02 -0.69317149738E+02 -0.37959204787E+03  0.38640314253E+03  0.00000000000E+00 0.  1.
         11    1    3    3    0    0 -0.16385287145E+01  0.25733579840E+02 -0.67868340735E+02  0.72601746410E+02  0.00000000000E+00 0. -1.
          1    1    1    2  501    0  0.20699823679E+02 -0.98199593533E+02 -0.49482412769E+03  0.50489856429E+03  0.00000000000E+00 0. -1.
<scales pt_clust_5="13000.00000" pt_clust_6="13000.00000" pt_clust_7="13000.00000" pt_clust_8="13000.00000" pt_clust_9="100.35763"></scales>
<clustering>
<clus scale="   78.330">  5  6 -1 -1</clus>
<clus scale="   90.646">  7  8 -1 -1</clus>
<clus scale="  100.358">  1  9  2 -1</clus>
<clus scale="  102.093">  1  5  2 -1</clus>
<clus scale="  100.358">  1  5  2 -1</clus>
</clustering>
</event>
<event>
 9    2  0.5615294E-005  0.8984893E+02  0.7546771E-02  0.1304095E+00
         21   -1    0    0  501  502  0.00000000000E+00  0.00000000000E+00  0.14644293534E+03  0.14644293534E+03  0.00000000000E+00 0. -1.
         -3   -1    0    0    0  501 -0.00000000000E+00 -0.00000000000E+00 -0.12586908110E+03  0.12586908110E+03  0.00000000000E+00 0.  1.
         24    2    1    2    0    0  0.33600149833E+02 -0.21650377748E+00 -0.38260420608E+02  0.10098282307E+03  0.87204666313E+02 0.  0.
         23    2    1    2    0    0  0.30687613771E+02  0.14284446976E+02  0.38946978967E+02  0.10258089804E+03  0.88657759991E+02 0.  0.
        -11    1    3    3    0    0  0.62267279735E+02  0.67561784753E+01 -0.33718754909E+02  0.71132373121E+02  0.00000000000E+00 0.  1.
         12    1    3    3    0    0 -0.28667129902E+02 -0.69726822528E+01 -0.45416656998E+01  0.29850449946E+02  0.00000000000E+00 0. -1.
        -11    1    4    4    0    0  0.59947244392E+02  0.11494420721E+01  0.13059076013E+02  0.61363937239E+02  0.00000000000E+00 0. -1.
         11    1    4    4    0    0 -0.29259630620E+02  0.13135004904E+02  0.25887902954E+02  0.41216960796E+02  0.00000000000E+00 0.  1.
         -4    1    1    2    0  502 -0.64287763604E+02 -0.14067943199E+02  0.19887295877E+02  0.68748295341E+02  0.00000000000E+00 0.  1.
<scales pt_clust_5="13000.00000" pt_clust_6="13000.00000" pt_clust_7="13000.00000" pt_clust_8="13000.00000" pt_clust_9="65.80899"></scales>
<clustering>
<clus scale="   65.809">  1  9  2 -1</clus>
<clus scale="   87.205">  5  6 -1 -1</clus>
<clus scale="   88.415">  2  5  1 -1</clus>
<clus scale="   88.658">  7  8 -1 -1</clus>
<clus scale="   65.809">  1  5  2 -1</clus>
</clustering>
</event>
<event>
 9    2  0.5615294E-005  0.9938424E+02  0.7546771E-02  0.1283272E+00
         21   -1    0    0  501  502  0.00000000000E+00  0.00000000000E+00  0.89502247785E+02  0.89502247785E+02  0.00000000000E+00 0. -1.
         -1   -1    0    0    0  501 -0.00000000000E+00 -0.00000000000E+00 -0.14680743771E+03  0.14680743771E+03  0.00000000000E+00 0.  1.
         24    2    1    2    0    0  0.25608925352E+02 -0.46035291193E+02 -0.41710425295E+02  0.10349907642E+03  0.78722513605E+02 0.  0.
         23    2    1    2    0    0 -0.49412954684E+02  0.38888920067E+02 -0.49346562450E+00  0.10372879922E+03  0.82495042790E+02 0.  0.
        -13    1    3    3    0    0  0.13218372910E+02  0.16223536509E+02  0.84749942477E+01  0.22577733428E+02  0.00000000000E+00 0.  1.
         14    1    3    3    0    0  0.12390552442E+02 -0.62258827703E+02 -0.50185419543E+02  0.80921342991E+02  0.00000000000E+00 0. -1.
        -11    1    4    4    0    0 -0.25734484456E+02 -0.14673393658E+01  0.36079504111E+02  0.44341260603E+02  0.00000000000E+00 0. -1.
         11    1    4    4    0    0 -0.23678470228E+02  0.40356259433E+02 -0.36572969735E+02  0.59387538617E+02  0.00000000000E+00 0.  1.
         -2    1    1    2    0  502  0.23804029331E+02  0.71463711265E+01 -0.15101299002E+02  0.29081809852E+02  0.00000000000E+00 0.  1.
<scales pt_clust_5="13000.00000" pt_clust_6="13000.00000" pt_clust_7="13000.00000" pt_clust_8="13000.00000" pt_clust_9="24.85363"></scales>
<clustering>
<clus scale="   24.854">  1  9  2 -1</clus>
<clus scale="   78.723">  5  6 -1 -1</clus>
<clus scale="   82.495">  7  8 -1 -1</clus>
<clus scale="   96.276">  2  5  1 -1</clus>
<clus scale="   24.854">  1  5  2 -1</clus>
</clustering>
</event>
<event>
 9    2  0.5615294E-005  0.1579024E+03  0.7546771E-02  0.1218307E+00
         -1   -1    0    0    0  501 -0.00000000000E+00  0.00000000000E+00  0.56349087013E+02  0.56349087013E+02  0.00000000000E+00 0.  1.
         21   -1    0    0  501  502  0.00000000000E+00 -0.00000000000E+00 -0.96904715830E+03  0.96904715830E+03  0.00000000000E+00 0.  1.
         24    2    1    2    0    0 -0.34765568069E+02 -0.19880341628E+01 -0.52505334741E+02  0.10232558491E+03  0.80629511648E+02 0.  0.
         23    2    1    2    0    0  0.15899508789E+03  0.14348200237E+02 -0.31164241223E+03  0.36049337184E+03  0.85727295602E+02 0.  0.
        -13    1    3    3    0    0 -0.57735080440E+02  0.69605783047E+01 -0.19928387577E+02  0.61473000538E+02  0.00000000000E+00 0.  1.
         14    1    3    3    0    0  0.22969512371E+02 -0.89486124675E+01 -0.32576947164E+02  0.40852584376E+02  0.00000000000E+00 0. -1.
        -13    1    4    4    0    0  0.14591875686E+03  0.40000453200E+02 -0.24586205603E+03  0.28868749619E+03  0.00000000000E+00 0.  1.
         13    1    4    4    0    0  0.13076331031E+02 -0.25652252963E+02 -0.65780356197E+02  0.71805875642E+02  0.00000000000E+00 0. -1.
         -2    1    1    2    0  502 -0.12422951983E+03 -0.12360166075E+02 -0.54855032432E+03  0.56257728857E+03  0.00000000000E+00 0.  1.
<scales pt_clust_5="13000.00000" pt_clust_6="13000.00000" pt_clust_7="13000.00000" pt_clust_8="13000.00000" pt_clust_9="132.60469"></scales>
<clustering>
<clus scale="   80.630">  5  6 -1 -1</clus>
<clus scale="   85.727">  7  8 -1 -1</clus>
<clus scale="   87.828">  1  5  2 -1</clus>
<clus scale="  132.605">  2  9  1 -1</clus>
<clus scale="  132.605">  2  5  1 -1</clus>
</clustering>
</event>
<event>
 9    2  0.5615294E-005  0.9339015E+02  0.7546771E-02  0.1297703E+00
         21   -1    0    0  501  502  0.00000000000E+00  0.00000000000E+00  0.52267155068E+02  0.52267155068E+02  0.00000000000E+00 0. -1.
          4   -1    0    0  502    0 -0.00000000000E+00 -0.00000000000E+00 -0.49491426535E+03  0.49491426535E+03  0.00000000000E+00 0. -1.
         24    2    1    2    0    0 -0.43121635582E+02  0.30744522592E+00 -0.35260895476E+03  0.36447898078E+03  0.81561525696E+02 0.  0.
         23    2    1    2    0    0  0.88865737169E+01  0.21876063049E+02 -0.10590040020E+03  0.13893306328E+03  0.86775388125E+02 0.  0.
        -13    1    3    3    0    0 -0.53278787871E+02 -0.19677064858E+02 -0.31940798327E+03  0.32441836553E+03  0.00000000000E+00 0.  1.
         14    1    3    3    0    0  0.10157152289E+02  0.19984510084E+02 -0.33200971492E+02  0.40060615246E+02  0.00000000000E+00 0. -1.
        -13    1    4    4    0    0 -0.24559711659E+02  0.21140668000E+02 -0.51986092552E+01  0.32819701682E+02  0.00000000000E+00 0. -1.
         13    1    4    4    0    0  0.33446285376E+02  0.73539504837E+00 -0.10070179094E+03  0.10611336160E+03  0.00000000000E+00 0.  1.
          3    1    1    2  501    0  0.34235061865E+02 -0.22183508275E+02  0.15862244678E+02  0.43769376355E+02  0.00000000000E+00 0. -1.
<scales pt_clust_5="13000.00000" pt_clust_6="13000.00000" pt_clust_7="13000.00000" pt_clust_8="13000.00000" pt_clust_9="40.79396"></scales>
<clustering>
<clus scale="   40.794">  1  9  2 -1</clus>
<clus scale="   81.562">  5  6 -1 -1</clus>
<clus scale="   86.775">  7  8 -1 -1</clus>
<clus scale="   88.567">  2  5  1 -1</clus>
<clus scale="   40.794">  1  5  2 -1</clus>
</clustering>
</event>
<event>
 9    2  0.5615294E-005  0.8776834E+02  0.7546771E-02  0.1311951E+00
         21   -1    0    0  501  502  0.00000000000E+00  0.00000000000E+00  0.12055856101E+03  0.12055856101E+03  0.00000000000E+00 0. -1.
          2   -1    0    0  502    0 -0.00000000000E+00 -0.00000000000E+00 -0.69187719916E+03  0.69187719916E+03  0.00000000000E+00 0. -1.
         24    2    1    2    0    0  0.18129607458E+02 -0.20650811510E+02 -0.52920435954E+03  0.53604352007E+03  0.80810040033E+02 0.  0.
         23    2    1    2    0    0  0.47255620218E+02 -0.29837274187E+02 -0.12326009416E+03  0.16059535682E+03  0.86454966596E+02 0.  0.
        -13    1    3    3    0    0 -0.25759763867E+02  0.89664184711E+01 -0.10251226920E+03  0.10607887364E+03  0.00000000000E+00 0.  1.
         14    1    3    3    0    0  0.43889371325E+02 -0.29617229981E+02 -0.42669209034E+03  0.42996464644E+03  0.00000000000E+00 0. -1.
        -13    1    4    4    0    0  0.20273939152E+02 -0.56236279139E+02 -0.99236967479E+02  0.11585131598E+03  0.00000000000E+00 0. -1.
         13    1    4    4    0    0  0.26981681065E+02  0.26399004953E+02 -0.24023126676E+02  0.44744040842E+02  0.00000000000E+00 0.  1.
          1    1    1    2  501    0 -0.65385227675E+02  0.50488085697E+02  0.81145815547E+02  0.11579688328E+03  0.00000000000E+00 0. -1.
<scales pt_clust_5="13000.00000" pt_clust_6="13000.00000" pt_clust_7="13000.00000" pt_clust_8="13000.00000" pt_clust_9="82.60917"></scales>
<clustering>
<clus scale="   80.810">  5  6 -1 -1</clus>
<clus scale="   82.609">  1  9  2 -1</clus>
<clus scale="   82.214">  2  5  1 -1</clus>
<clus scale="   86.455">  7  8 -1 -1</clus>
<clus scale="   82.609">  1  5  2 -1</clus>
</clustering>
</event>
<event>
 9    2  0.5615294E-005  0.1004340E+03  0.7546771E-02  0.1287175E+00
          4   -1    0    0  502    0 -0.00000000000E+00  0.00000000000E+00  0.20545050516E+03  0.20545050516E+03  0.00000000000E+00 0. -1.
         21   -1    0    0  501  502  0.00000000000E+00 -0.00000000000E+00 -0.14460206879E+03  0.14460206879E+03  0.00000000000E+00 0. -1.
         23    2    1    2    0    0  0.50896127712E+02  0.22860767010E+01  0.11326253128E+03  0.15753550756E+03  0.96919519128E+02 0.  0.
         24    2    1    2    0    0  0.74856722576E+01 -0.11680487031E+02  0.31848170897E+02  0.89576214671E+02  0.82565871756E+02 0.  0.
        -11    1    4    4    0    0  0.13869907511E+02  0.26609377414E+02  0.39907097805E+02  0.49930048628E+02  0.00000000000E+00 0.  1.
         12    1    4    4    0    0 -0.63842352535E+01 -0.38289864445E+02 -0.80589269081E+01  0.39646166043E+02  0.00000000000E+00 0. -1.
        -11    1    3    3    0    0  0.26526349668E+02 -0.23374165011E+02 -0.34999015809E+01  0.35528131498E+02  0.00000000000E+00 0.  1.
         11    1    3    3    0    0  0.24369778044E+02  0.25660241712E+02  0.11676243286E+03  0.12200737606E+03  0.00000000000E+00 0. -1.
          3    1    1    2  501    0 -0.58381799969E+02  0.93944103297E+01 -0.84262265803E+02  0.10294085171E+03  0.00000000000E+00 0. -1.
<scales pt_clust_5="13000.00000" pt_clust_6="13000.00000" pt_clust_7="13000.00000" pt_clust_8="13000.00000" pt_clust_9="59.13281"></scales>
<clustering>
<clus scale="   59.133">  2  9  1 -1</clus>
<clus scale="   82.566">  5  6 -1 -1</clus>
<clus scale="   86.664">  2  5  1 -1</clus>
<clus scale="   96.920">  7  8 -1 -1</clus>
<clus scale="   59.133">  2  5  1 -1</clus>
</clustering>
</event>
<event>
 9    2  0.5615294E-005  0.1173651E+03  0.7546771E-02  0.1251323E+00
          2   -1    0    0  502    0 -0.00000000000E+00  0.00000000000E+00  0.73625201693E+03  0.73625201693E+03  0.00000000000E+00 0. -1.
         21   -1    0    0  501  502  0.00000000000E+00 -0.00000000000E+00 -0.10680562948E+03  0.10680562948E+03  0.00000000000E+00 0. -1.
         24    2    1    2    0    0  0.32434788198E+01 -0.76496477425E+02  0.66861891873E+03  0.67784164280E+03  0.80967913502E+02 0.  0.
         23    2    1    2    0    0  0.17800102910E+02  0.32366992399E+02  0.47987892486E+01  0.99460997639E+02  0.92222534191E+02 0.  0.
        -13    1    3    3    0    0 -0.20677370650E+02 -0.28490087428E+02  0.88438029140E+02  0.95186783415E+02  0.00000000000E+00 0.  1.
         14    1    3    3    0    0  0.23920849470E+02 -0.48006389996E+02  0.58018088959E+03  0.58265485939E+03  0.00000000000E+00 0. -1.
        -13    1    4    4    0    0  0.32065307750E+02  0.16863192333E+02 -0.37539452411E+02  0.52170506074E+02  0.00000000000E+00 0.  1.
         13    1    4    4    0    0 -0.14265204840E+02  0.15503800066E+02  0.42338241660E+02  0.47290491565E+02  0.00000000000E+00 0. -1.
          1    1    1    2  501    0 -0.21043581730E+02  0.44129485026E+02 -0.43971320525E+02  0.65755005964E+02  0.00000000000E+00 0. -1.
<scales pt_clust_5="13000.00000" pt_clust_6="13000.00000" pt_clust_7="13000.00000" pt_clust_8="13000.00000" pt_clust_9="48.89012"></scales>
<clustering>
<clus scale="   48.890">  2  9  1 -1</clus>
<clus scale="   80.968">  5  6 -1 -1</clus>
<clus scale="   92.223">  7  8 -1 -1</clus>
<clus scale="  108.745">  1  5  2 -1</clus>
<clus scale="   48.890">  2  5  1 -1</clus>
</clustering>
</event>
<event>
 9    2  0.5615294E-005  0.1440487E+03  0.7546771E-02  0.1222729E+00
         21   -1    0    0  501  502  0.00000000000E+00  0.00000000000E+00  0.26647288037E+03  0.26647288037E+03  0.00000000000E+00 0. -1.
          2   -1    0    0  502    0 -0.00000000000E+00 -0.00000000000E+00 -0.29524770227E+03  0.29524770227E+03  0.00000000000E+00 0. -1.
         23    2    1    2    0    0  0.52146460706E+02 -0.14366381976E+02  0.66837863492E+00  0.10543702147E+03  0.90503439007E+02 0.  0.
         24    2    1    2    0    0  0.70628585391E+02 -0.59549568917E+01 -0.21090608761E+03  0.23624845455E+03  0.79423522344E+02 0.  0.
        -11    1    4    4    0    0  0.55099680831E+02 -0.31724821684E+02 -0.81370928073E+02  0.10326503316E+03  0.00000000000E+00 0.  1.
         12    1    4    4    0    0  0.15528904559E+02  0.25769864793E+02 -0.12953515953E+03  0.13298342139E+03  0.00000000000E+00 0. -1.
        -11    1    3    3    0    0  0.43623146948E+02 -0.40859938089E+02  0.28376911202E+02  0.66164662620E+02  0.00000000000E+00 0. -1.
         11    1    3    3    0    0  0.85233137578E+01  0.26493556113E+02 -0.27708532567E+02  0.39272358854E+02  0.00000000000E+00 0.  1.
          1    1    1    2  501    0 -0.12277504610E+03  0.20321338868E+02  0.18146288707E+03  0.22003510661E+03  0.00000000000E+00 0. -1.
<scales pt_clust_5="13000.00000" pt_clust_6="13000.00000" pt_clust_7="13000.00000" pt_clust_8="13000.00000" pt_clust_9="120.17455"></scales>
<clustering>
<clus scale="   79.424">  5  6 -1 -1</clus>
<clus scale="   90.503">  7  8 -1 -1</clus>
<clus scale="  105.435">  2  7  1 -1</clus>
<clus scale="  120.175">  1  9  2 -1</clus>
<clus scale="  120.175">  1  5  2 -1</clus>
</clustering>
</event>
<event>
 9    2  0.5615294E-005  0.1634327E+03  0.7546771E-02  0.1200480E+00
         21   -1    0    0  501  502  0.00000000000E+00  0.00000000000E+00  0.46881140492E+02  0.46881140492E+02  0.00000000000E+00 0.  1.
          2   -1    0    0  502    0 -0.00000000000E+00 -0.00000000000E+00 -0.95371546872E+03  0.95371546872E+03  0.00000000000E+00 0. -1.
         24    2    1    2    0    0  0.83600685340E+02 -0.10895446907E+02 -0.18749670678E+03  0.22045387569E+03  0.79605972760E+02 0.  0.
         23    2    1    2    0    0  0.72800591931E+02 -0.41429806534E+02 -0.36588291217E+03  0.39010488512E+03  0.10627869457E+03 0.  0.
        -13    1    3    3    0    0  0.13200034691E+02 -0.36825879002E+02 -0.83607107241E+02  0.92306742231E+02  0.00000000000E+00 0.  1.
         14    1    3    3    0    0  0.70400650648E+02  0.25930432095E+02 -0.10388959954E+03  0.12814713346E+03  0.00000000000E+00 0. -1.
        -11    1    4    4    0    0  0.21287565156E+02 -0.96911971874E+01 -0.46597677625E+01  0.23849385082E+02  0.00000000000E+00 0.  1.
         11    1    4    4    0    0  0.51513026775E+02 -0.31738609346E+02 -0.36122314440E+03  0.36625550003E+03  0.00000000000E+00 0. -1.
          1    1    1    2  501    0 -0.15640127727E+03  0.52325253441E+02 -0.35345470928E+03  0.39003784841E+03  0.00000000000E+00 0. -1.
<scales pt_clust_5="13000.00000" pt_clust_6="13000.00000" pt_clust_7="13000.00000" pt_clust_8="13000.00000" pt_clust_9="124.15760"></scales>
<clustering>
<clus scale="   79.606">  5  6 -1 -1</clus>
<clus scale="  106.279">  7  8 -1 -1</clus>
<clus scale="  115.952">  2  5  1 -1</clus>
<clus scale="  124.158">  1  9  2 -1</clus>
<clus scale="  124.158">  1  5  2 -1</clus>
</clustering>
</event>
<event>
 9    2  0.5615294E-005  0.1442758E+03  0.7546771E-02  0.1236260E+00
         21   -1    0    0  501  502  0.00000000000E+00  0.00000000000E+00  0.73770949731E+02  0.73770949731E+02  0.00000000000E+00 0. -1.
          2   -1    0    0  502    0 -0.00000000000E+00 -0.00000000000E+00 -0.11366273825E+04  0.11366273825E+04  0.00000000000E+00 0. -1.
         24    2    1    2    0    0  0.19743443322E+02 -0.15972683819E+02 -0.86328952045E+03  0.86692753200E+03  0.75163950351E+02 0.  0.
         23    2    1    2    0    0  0.70159331339E+02 -0.56584176595E+02 -0.18613259229E+03  0.22716307115E+03  0.93987329816E+02 0.  0.
        -11    1    3    3    0    0 -0.20606927772E+02  0.15595338235E+01 -0.88131312351E+02  0.90521852802E+02  0.00000000000E+00 0.  1.
         12    1    3    3    0    0  0.40350371094E+02 -0.17532217643E+02 -0.77515820810E+03  0.77640567919E+03  0.00000000000E+00 0. -1.
        -13    1    4    4    0    0  0.54556801136E+01 -0.51369824687E+02 -0.13494701474E+03  0.14449678239E+03  0.00000000000E+00 0.  1.
         13    1    4    4    0    0  0.64703651225E+02 -0.52143519080E+01 -0.51185577547E+02  0.82666288755E+02  0.00000000000E+00 0. -1.
          1    1    1    2  501    0 -0.89902774660E+02  0.72556860415E+02 -0.13434320001E+02  0.11630772906E+03  0.00000000000E+00 0. -1.
<scales pt_clust_5="13000.00000" pt_clust_6="13000.00000" pt_clust_7="13000.00000" pt_clust_8="13000.00000" pt_clust_9="109.46179"></scales>
<clustering>
<clus scale="   75.164">  5  6 -1 -1</clus>
<clus scale="   79.338">  2  5  1 -1</clus>
<clus scale="   93.987">  7  8 -1 -1</clus>
<clus scale="  109.462">  1  9  2 -1</clus>
<clus scale="  109.462">  1  5  2 -1</clus>
</clustering>
</event>
<event>
 9    2  0.5615294E-005  0.9330798E+02  0.7546771E-02  0.1301087E+00
         -1   -1    0    0    0  501 -0.00000000000E+00  0.00000000000E+00  0.36063230650E+03  0.36063230650E+03  0.00000000000E+00 0.  1.
         21   -1    0    0  501  502  0.00000000000E+00 -0.00000000000E+00 -0.35327480334E+02  0.35327480334E+02  0.00000000000E+00 0. -1.
         24    2    1    2    0    0 -0.86552084217E+01  0.28221376429E+02  0.16092879402E+03  0.18225575719E+03  0.80297730743E+02 0.  0.
         23    2    1    2    0    0  0.49233242253E+01 -0.62662246424E+01  0.64653302631E+02  0.11152488094E+03  0.90522068216E+02 0.  0.
        -11    1    3    3    0    0 -0.37905893669E+02  0.25821275165E+02  0.13672848880E+03  0.14421606941E+03  0.00000000000E+00 0.  1.
         12    1    3    3    0    0  0.29250685247E+02  0.24001012648E+01  0.24200305219E+02  0.38039687777E+02  0.00000000000E+00 0. -1.
        -13    1    4    4    0    0 -0.27858742919E+02 -0.16107665451E+02  0.69848882522E+02  0.76905349832E+02  0.00000000000E+00 0.  1.
         13    1    4    4    0    0  0.32782067144E+02  0.98414408082E+01 -0.51955798912E+01  0.34619531104E+02  0.00000000000E+00 0. -1.
         -2    1    1    2    0  502  0.37318841964E+01 -0.21955151787E+02  0.99722729513E+02  0.10217914871E+03  0.00000000000E+00 0.  1.
<scales pt_clust_5="13000.00000" pt_clust_6="13000.00000" pt_clust_7="13000.00000" pt_clust_8="13000.00000" pt_clust_9="22.27007"></scales>
<clustering>
<clus scale="   22.270">  2  9  1 -1</clus>
<clus scale="   80.298">  5  6 -1 -1</clus>
<clus scale="   83.426">  1  5  2 -1</clus>
<clus scale="   90.522">  7  8 -1 -1</clus>
<clus scale="   22.270">  2  5  1 -1</clus>
</clustering>
</event>
<event>
 9    2  0.5615294E-005  0.9200123E+02  0.7546771E-02  0.1302709E+00
         21   -1    0    0  501  502  0.00000000000E+00  0.00000000000E+00  0.97387189447E+02  0.97387189447E+02  0.00000000000E+00 0.  1.
         -1   -1    0    0    0  501 -0.00000000000E+00 -0.00000000000E+00 -0.27391627021E+03  0.27391627021E+03  0.00000000000E+00 0.  1.
         23    2    1    2    0    0  0.35507033801E+02  0.50200747281E+01 -0.22107276787E+03  0.24030882611E+03  0.87116086989E+02 0.  0.
         24    2    1    2    0    0  0.74413953023E+01 -0.82422118408E+01  0.25208178064E+02  0.83784341873E+02  0.79126830353E+02 0.  0.
        -11    1    4    4    0    0 -0.27017475579E+01  0.22478603458E+02  0.41716229168E+02  0.47463995083E+02  0.00000000000E+00 0.  1.
         12    1    4    4    0    0  0.10143142860E+02 -0.30720815298E+02 -0.16508051104E+02  0.36320346790E+02  0.00000000000E+00 0. -1.
        -13    1    3    3    0    0  0.64355802214E+02  0.12301339433E+01 -0.16556732043E+03  0.17763929774E+03  0.00000000000E+00 0.  1.
         13    1    3    3    0    0 -0.28848768413E+02  0.37899407847E+01 -0.55505447442E+02  0.62669528368E+02  0.00000000000E+00 0. -1.
         -2    1    1    2    0  502 -0.42948429103E+02  0.32221371127E+01  0.19335509044E+02  0.47210291674E+02  0.00000000000E+00 0.  1.
<scales pt_clust_5="13000.00000" pt_clust_6="13000.00000" pt_clust_7="13000.00000" pt_clust_8="13000.00000" pt_clust_9="43.06913"></scales>
<clustering>
<clus scale="   43.069">  1  9  2 -1</clus>
<clus scale="   79.127">  5  6 -1 -1</clus>
<clus scale="   84.475">  1  5  2 -1</clus>
<clus scale="   87.116">  7  8 -1 -1</clus>
<clus scale="   43.069">  1  5  2 -1</clus>
</clustering>
</event>
<event>
 9    2  0.5615294E-005  0.1276086E+03  0.7546771E-02  0.1240719E+00
         21   -1    0    0  501  502  0.00000000000E+00  0.00000000000E+00  0.12257413373E+03  0.12257413373E+03  0.00000000000E+00 0.  1.
         -1   -1    0    0    0  501 -0.00000000000E+00 -0.00000000000E+00 -0.29975523795E+03  0.29975523795E+03  0.00000000000E+00 0.  1.
         23    2    1    2    0    0 -0.51817142087E+02 -0.45776869785E+01 -0.14471816833E+03  0.17862703776E+03  0.90875183307E+02 0.  0.
         24    2    1    2    0    0 -0.28671474525E+01 -0.97846903025E+02 -0.61519345936E+00  0.12330529551E+03  0.74977199680E+02 0.  0.
        -13    1    4    4    0    0  0.83839676675E+01 -0.47797106597E+02  0.35878576723E+02  0.60350033808E+02  0.00000000000E+00 0.  1.
         14    1    4    4    0    0 -0.11251115120E+02 -0.50049796428E+02 -0.36493770183E+02  0.62955261703E+02  0.00000000000E+00 0. -1.
        -11    1    3    3    0    0 -0.33955661513E+02 -0.44092366632E+02 -0.10924015024E+03  0.12259907899E+03  0.00000000000E+00 0.  1.
         11    1    3    3    0    0 -0.17861480574E+02  0.39514679654E+02 -0.35478018091E+02  0.56027958771E+02  0.00000000000E+00 0. -1.
         -2    1    1    2    0  502  0.54684289540E+02  0.10242459000E+03 -0.31847742432E+02  0.12039703841E+03  0.00000000000E+00 0.  1.
<scales pt_clust_5="13000.00000" pt_clust_6="13000.00000" pt_clust_7="13000.00000" pt_clust_8="13000.00000" pt_clust_9="103.25887"></scales>
<clustering>
<clus scale="   74.977">  5  6 -1 -1</clus>
<clus scale="   90.875">  7  8 -1 -1</clus>
<clus scale="  104.710">  2  7  1 -1</clus>
<clus scale="  103.259">  1  9  2 -1</clus>
<clus scale="  103.259">  1  5  2 -1</clus>
</clustering>
</event>
<event>
 9    2  0.5615294E-005  0.1020281E+03  0.7546771E-02  0.1283332E+00
          2   -1    0    0  502    0 -0.00000000000E+00  0.00000000000E+00  0.10609500171E+04  0.10609500171E+04  0.00000000000E+00 0. -1.
         21   -1    0    0  501  502  0.00000000000E+00 -0.00000000000E+00 -0.19760443812E+02  0.19760443812E+02  0.00000000000E+00 0. -1.
         23    2    1    2    0    0  0.33713995763E+02 -0.57374083597E+02  0.65016378744E+03  0.66023749735E+03  0.93659935062E+02 0.  0.
         24    2    1    2    0    0 -0.13395993303E+01  0.16635983059E+02  0.33234142393E+03  0.34204115423E+03  0.79137719618E+02 0.  0.
        -13    1    4    4    0    0  0.72900661629E+01  0.44757730125E+02  0.26038416552E+03  0.26430344895E+03  0.00000000000E+00 0.  1.
         14    1    4    4    0    0 -0.86296654932E+01 -0.28121747066E+02  0.71957258407E+02  0.77737705279E+02  0.00000000000E+00 0. -1.
        -13    1    3    3    0    0 -0.32889651006E+02 -0.19121553799E+02  0.22392264471E+03  0.22713149006E+03  0.00000000000E+00 0.  1.
         13    1    3    3    0    0  0.66603646769E+02 -0.38252529798E+02  0.42624114273E+03  0.43310600729E+03  0.00000000000E+00 0. -1.
          1    1    1    2  501    0 -0.32374396433E+02  0.40738100538E+02  0.58684361889E+02  0.78431809300E+02  0.00000000000E+00 0. -1.
<scales pt_clust_5="13000.00000" pt_clust_6="13000.00000" pt_clust_7="13000.00000" pt_clust_8="13000.00000" pt_clust_9="52.03551"></scales>
<clustering>
<clus scale="   52.036">  2  9  1 -1</clus>
<clus scale="   79.138">  5  6 -1 -1</clus>
<clus scale="   88.884">  2  5  1 -1</clus>
<clus scale="   93.660">  7  8 -1 -1</clus>
<clus scale="   52.036">  2  5  1 -1</clus>
</clustering>
</event>
<event>
 9    2  0.5615294E-005  0.1064014E+03  0.7546771E-02  0.1271293E+00
          2   -1    0    0  502    0 -0.00000000000E+00  0.00000000000E+00  0.27751492368E+03  0.27751492368E+03  0.00000000000E+00 0. -1.
         21   -1    0    0  501  502  0.00000000000E+00 -0.00000000000E+00 -0.83702779482E+02  0.83702779482E+02  0.00000000000E+00 0. -1.
         23    2    1    2    0    0 -0.58694938825E+02 -0.10898902318E+02  0.15819415518E+03  0.19210762436E+03  0.91192470574E+02 0.  0.
         24    2    1    2    0    0  0.37218691142E+02 -0.26904836081E+01 -0.32987699462E+02  0.95948332538E+02  0.82008685691E+02 0.  0.
        -13    1    4    4    0    0  0.28741926766E+02  0.32276455905E+02  0.51412210180E+01  0.43523558145E+02  0.00000000000E+00 0.  1.
         14    1    4    4    0    0  0.84767643759E+01 -0.34966939513E+02 -0.38128920480E+02  0.52424774393E+02  0.00000000000E+00 0. -1.
        -11    1    3    3    0    0 -0.80783457045E+02 -0.21012206440E+02  0.10947286420E+03  0.13766549222E+03  0.00000000000E+00 0. -1.
         11    1    3    3    0    0  0.22088518221E+02  0.10113304122E+02  0.48721290986E+02  0.54442132148E+02  0.00000000000E+00 0.  1.
          1    1    1    2  501    0  0.21476247682E+02  0.13589385926E+02  0.68605688476E+02  0.73161746259E+02  0.00000000000E+00 0. -1.
<scales pt_clust_5="13000.00000" pt_clust_6="13000.00000" pt_clust_7="13000.00000" pt_clust_8="13000.00000" pt_clust_9="25.41459"></scales>
<clustering>
<clus scale="   25.415">  2  9  1 -1</clus>
<clus scale="   82.009">  5  6 -1 -1</clus>
<clus scale="   91.192">  7  8 -1 -1</clus>
<clus scale="   98.644">  2  5  1 -1</clus>
<clus scale="   25.415">  2  5  1 -1</clus>
</clustering>
</event>
<event>
 9    2  0.5615294E-005  0.9271146E+02  0.7546771E-02  0.1303278E+00
         21   -1    0    0  501  502  0.00000000000E+00  0.00000000000E+00  0.10016153313E+03  0.10016153313E+03  0.00000000000E+00 0. -1.
          2   -1    0    0  502    0 -0.00000000000E+00 -0.00000000000E+00 -0.48813271268E+03  0.48813271268E+03  0.00000000000E+00 0. -1.
         24    2    1    2    0    0  0.17921444890E+02  0.13241100837E+02 -0.38673650630E+03  0.39539281814E+03  0.79207641027E+02 0.  0.
         23    2    1    2    0    0 -0.17054333126E+02  0.12511495189E+02 -0.72001190443E+02  0.11758975500E+03  0.90530609553E+02 0.  0.
        -11    1    3    3    0    0  0.11785579826E+02  0.45921609051E+02 -0.18752237682E+03  0.19342268708E+03  0.00000000000E+00 0.  1.
         12    1    3    3    0    0  0.61358650640E+01 -0.32680508214E+02 -0.19921412947E+03  0.20197013106E+03  0.00000000000E+00 0. -1.
        -13    1    4    4    0    0 -0.40120645603E+02 -0.26080996594E+02 -0.40517192151E+02  0.62701893486E+02  0.00000000000E+00 0.  1.
         13    1    4    4    0    0  0.23066312477E+02  0.38592491784E+02 -0.31483998292E+02  0.54887861516E+02  0.00000000000E+00 0. -1.
          1    1    1    2  501    0 -0.86711176432E+00 -0.25752596026E+02  0.70766517193E+02  0.75311672671E+02  0.00000000000E+00 0. -1.
<scales pt_clust_5="13000.00000" pt_clust_6="13000.00000" pt_clust_7="13000.00000" pt_clust_8="13000.00000" pt_clust_9="25.76719"></scales>
<clustering>
<clus scale="   25.767">  1  9  2 -1</clus>
<clus scale="   79.208">  5  6 -1 -1</clus>
<clus scale="   81.691">  2  5  1 -1</clus>
<clus scale="   90.531">  7  8 -1 -1</clus>
<clus scale="   25.767">  1  5  2 -1</clus>
</clustering>
</event>
<event>
 9    2  0.5615294E-005  0.1536006E+03  0.7546771E-02  0.1216726E+00
         -3   -1    0    0    0  501 -0.00000000000E+00  0.00000000000E+00  0.31626212196E+03  0.31626212196E+03  0.00000000000E+00 0.  1.
         21   -1    0    0  501  502  0.00000000000E+00 -0.00000000000E+00 -0.14313668272E+03  0.14313668272E+03  0.00000000000E+00 0.  1.
         23    2    1    2    0    0 -0.15930231510E+02  0.33954849318E+02  0.61536569127E+01  0.98842032606E+02  0.91242401591E+02 0.  0.
         24    2    1    2    0    0 -0.10516115607E+03 -0.84052936866E+02  0.16764213392E+03  0.22950948330E+03  0.80292919481E+02 0.  0.
        -11    1    4    4    0    0 -0.89110382159E+02 -0.21491497781E+02  0.89256762026E+02  0.12794262094E+03  0.00000000000E+00 0.  1.
         12    1    4    4    0    0 -0.16050773913E+02 -0.62561439086E+02  0.78385371892E+02  0.10156686236E+03  0.00000000000E+00 0. -1.
        -11    1    3    3    0    0  0.10315500428E+02  0.60416377893E+02  0.58681800208E+01  0.61570965589E+02  0.00000000000E+00 0. -1.
         11    1    3    3    0    0 -0.26245731938E+02 -0.26461528576E+02  0.28547689195E+00  0.37271067017E+02  0.00000000000E+00 0.  1.
         -4    1    1    2    0  502  0.12109138758E+03  0.50098087549E+02 -0.67035158677E+00  0.13104728877E+03  0.00000000000E+00 0.  1.
<scales pt_clust_5="13000.00000" pt_clust_6="13000.00000" pt_clust_7="13000.00000" pt_clust_8="13000.00000" pt_clust_9="130.94349"></scales>
<clustering>
<clus scale="   80.293">  5  6 -1 -1</clus>
<clus scale="   91.242">  7  8 -1 -1</clus>
<clus scale="   98.650">  1  7  2 -1</clus>
<clus scale="  130.943">  2  9  1 -1</clus>
<clus scale="  130.943">  2  5  1 -1</clus>
</clustering>
</event>
<event>
 9    2  0.5615294E-005  0.2377717E+03  0.7546771E-02  0.1121963E+00
         21   -1    0    0  501  502  0.00000000000E+00  0.00000000000E+00  0.83287650732E+02  0.83287650732E+02  0.00000000000E+00 0.  1.
         -1   -1    0    0    0  501 -0.00000000000E+00 -0.00000000000E+00 -0.97200057162E+03  0.97200057162E+03  0.00000000000E+00 0.  1.
         23    2    1    2    0    0 -0.87513785496E+02 -0.21497568549E+03 -0.61252848189E+03  0.66150004485E+03  0.92292796090E+02 0.  0.
         24    2    1    2    0    0  0.84464578821E+02  0.18139739250E+03 -0.28621886308E+03  0.35861021440E+03  0.81490914869E+02 0.  0.
        -13    1    4    4    0    0  0.94351427029E+02  0.18001824892E+03 -0.25652031756E+03  0.32727883379E+03  0.00000000000E+00 0.  1.
         14    1    4    4    0    0 -0.98868482080E+01  0.13791435749E+01 -0.29698545525E+02  0.31331380607E+02  0.00000000000E+00 0. -1.
        -13    1    3    3    0    0 -0.62860204239E+02 -0.43423736736E+02 -0.19455104017E+03  0.20901467274E+03  0.00000000000E+00 0. -1.
         13    1    3    3    0    0 -0.24653581258E+02 -0.17155194875E+03 -0.41797744172E+03  0.45248537211E+03  0.00000000000E+00 0.  1.
         -2    1    1    2    0  502  0.30492066752E+01  0.33578292993E+02  0.10034424082E+02  0.35177963106E+02  0.00000000000E+00 0.  1.
<scales pt_clust_5="13000.00000" pt_clust_6="13000.00000" pt_clust_7="13000.00000" pt_clust_8="13000.00000" pt_clust_9="33.71646"></scales>
<clustering>
<clus scale="   33.716">  1  9  2 -1</clus>
<clus scale="   81.491">  5  6 -1 -1</clus>
<clus scale="   92.293">  7  8 -1 -1</clus>
<clus scale="  233.791">  1  5  2 -1</clus>
<clus scale="   33.716">  1  5  2 -1</clus>
</clustering>
</event>
<event>
 9    2  0.5615294E-005  0.1256691E+03  0.7546771E-02  0.1238677E+00
         21   -1    0    0  501  502  0.00000000000E+00  0.00000000000E+00  0.26903380692E+03  0.26903380692E+03  0.00000000000E+00 0.  1.
         -1   -1    0    0    0  501 -0.00000000000E+00 -0.00000000000E+00 -0.15110003713E+03  0.15110003713E+03  0.00000000000E+00 0.  1.
         24    2    1    2    0    0 -0.44320260809E+02  0.82736508644E+02 -0.39974725674E+02  0.12803032939E+03  0.77357424788E+02 0.  0.
         23    2    1    2    0    0  0.61401309909E+02 -0.98968045867E+01  0.18174692394E+03  0.21358182722E+03  0.93365866136E+02 0.  0.
        -13    1    3    3    0    0 -0.37149967454E+01  0.76319816546E+02 -0.98012806137E+01  0.77036229789E+02  0.00000000000E+00 0.  1.
         14    1    3    3    0    0 -0.40605264064E+02  0.64166920982E+01 -0.30173445060E+02  0.50994099599E+02  0.00000000000E+00 0. -1.
        -13    1    4    4    0    0  0.57614297598E+02 -0.44711398139E+02  0.93062817927E+02  0.11823368594E+03  0.00000000000E+00 0.  1.
         13    1    4    4    0    0  0.37870123102E+01  0.34814593552E+02  0.88684106012E+02  0.95348141280E+02  0.00000000000E+00 0. -1.
         -2    1    1    2    0  502 -0.17081049100E+02 -0.72839704058E+02 -0.23838428482E+02  0.78521687438E+02  0.00000000000E+00 0.  1.
<scales pt_clust_5="13000.00000" pt_clust_6="13000.00000" pt_clust_7="13000.00000" pt_clust_8="13000.00000" pt_clust_9="74.81571"></scales>
<clustering>
<clus scale="   74.816">  1  9  2 -1</clus>
<clus scale="   77.357">  5  6 -1 -1</clus>
<clus scale="   93.366">  7  8 -1 -1</clus>
<clus scale="  114.279">  2  5  1 -1</clus>
<clus scale="   74.816">  1  5  2 -1</clus>
</clustering>
</event>
<event>
 9    2  0.5615294E-005  0.1458857E+03  0.7546771E-02  0.1208160E+00
         -3   -1    0    0    0  501 -0.00000000000E+00  0.00000000000E+00  0.95303560096E+03  0.95303560096E+03  0.00000000000E+00 0.  1.
         21   -1    0    0  501  502  0.00000000000E+00 -0.00000000000E+00 -0.70224627779E+02  0.70224627779E+02  0.00000000000E+00 0. -1.
         24    2    1    2    0    0  0.89390917367E+02  0.47579293508E+02  0.56565199829E+03  0.58000388366E+03  0.78662548983E+02 0.  0.
         23    2    1    2    0    0 -0.17446280550E+03 -0.18893341320E+02  0.28682247292E+03  0.34849130219E+03  0.91568705788E+02 0.  0.
        -13    1    3    3    0    0  0.94833118659E+02  0.48861078481E+02  0.56424105749E+03  0.57423749124E+03  0.00000000000E+00 0.  1.
         14    1    3    3    0    0 -0.54422012918E+01 -0.12817849727E+01  0.14109407983E+01  0.57663924211E+01  0.00000000000E+00 0. -1.
        -11    1    4    4    0    0 -0.56960373385E+02 -0.32842918714E+02  0.16973671850E+03  0.18202663282E+03  0.00000000000E+00 0.  1.
         11    1    4    4    0    0 -0.11750243211E+03  0.13949577393E+02  0.11708575442E+03  0.16646466937E+03  0.00000000000E+00 0. -1.
         -4    1    1    2    0  502  0.85071888128E+02 -0.28685952188E+02  0.30336501971E+02  0.94765042893E+02  0.00000000000E+00 0.  1.
<scales pt_clust_5="13000.00000" pt_clust_6="13000.00000" pt_clust_7="13000.00000" pt_clust_8="13000.00000" pt_clust_9="89.77812"></scales>
<clustering>
<clus scale="   78.663">  5  6 -1 -1</clus>
<clus scale="   89.778">  2  9  1 -1</clus>
<clus scale="   91.569">  7  8 -1 -1</clus>
<clus scale="  138.151">  1  5  2 -1</clus>
<clus scale="   89.778">  2  5  1 -1</clus>
</clustering>
</event>
<event>
 9    2  0.5615294E-005  0.9290304E+02  0.7546771E-02  0.1302418E+00
          2   -1    0    0  502    0 -0.00000000000E+00  0.00000000000E+00  0.79736484646E+03  0.79736484646E+03  0.00000000000E+00 0. -1.
         21   -1    0    0  501  502  0.00000000000E+00 -0.00000000000E+00 -0.41352914998E+02  0.41352914998E+02  0.00000000000E+00 0. -1.
         24    2    1    2    0    0 -0.78101053482E+01 -0.34146641774E+02  0.18855095701E+03  0.20791417058E+03  0.80310946005E+02 0.  0.
         23    2    1    2    0    0 -0.33045708775E+02 -0.27821081335E+02  0.58532621776E+02  0.11649117181E+03  0.90984030805E+02 0.  0.
        -13    1    3    3    0    0  0.12342709476E+02  0.21309716986E+02  0.87483714579E+02  0.90883699483E+02  0.00000000000E+00 0.  1.
         14    1    3    3    0    0 -0.20152814824E+02 -0.55456358760E+02  0.10106724243E+03  0.11703047110E+03  0.00000000000E+00 0. -1.
        -11    1    4    4    0    0 -0.59954667743E+02 -0.32611024133E+02  0.57328890118E+02  0.89132725311E+02  0.00000000000E+00 0.  1.
         11    1    4    4    0    0  0.26908958968E+02  0.47899427979E+01  0.12037316586E+01  0.27358446495E+02  0.00000000000E+00 0. -1.
          1    1    1    2  501    0  0.40855814123E+02  0.61967723109E+02  0.50892835267E+03  0.51431241907E+03  0.00000000000E+00 0. -1.
<scales pt_clust_5="13000.00000" pt_clust_6="13000.00000" pt_clust_7="13000.00000" pt_clust_8="13000.00000" pt_clust_9="74.22400"></scales>
<clustering>
<clus scale="   74.224">  2  9  1 -1</clus>
<clus scale="   80.311">  5  6 -1 -1</clus>
<clus scale="   82.479">  1  5  2 -1</clus>
<clus scale="   90.984">  7  8 -1 -1</clus>
<clus scale="   74.224">  2  5  1 -1</clus>
</clustering>
</event>
<event>
 9    2  0.5615294E-005  0.1862582E+03  0.7546771E-02  0.1181402E+00
          2   -1    0    0  502    0 -0.00000000000E+00  0.00000000000E+00  0.23586794224E+04  0.23586794224E+04  0.00000000000E+00 0. -1.
         21   -1    0    0  501  502  0.00000000000E+00 -0.00000000000E+00 -0.25018236223E+02  0.25018236223E+02  0.00000000000E+00 0. -1.
         24    2    1    2    0    0 -0.65202321908E+02 -0.59348950486E+02  0.74726916106E+03  0.75673601706E+03  0.80402485883E+02 0.  0.
         23    2    1    2    0    0  0.17382940015E+03 -0.55286111886E+02  0.85727068599E+03  0.88093284398E+03  0.88636516292E+02 0.  0.
        -13    1    3    3    0    0 -0.78344943194E+02 -0.66674648853E+02  0.60627867748E+03  0.61494493549E+03  0.00000000000E+00 0.  1.
         14    1    3    3    0    0  0.13142621287E+02  0.73256983671E+01  0.14099048358E+03  0.14179108157E+03  0.00000000000E+00 0. -1.
        -13    1    4    4    0    0  0.15436288274E+03 -0.11932310348E+02  0.62981669147E+03  0.64856714722E+03  0.00000000000E+00 0. -1.
         13    1    4    4    0    0  0.19466517412E+02 -0.43353801538E+02  0.22745399452E+03  0.23236569676E+03  0.00000000000E+00 0.  1.
          1    1    1    2  501    0 -0.10862707825E+03  0.11463506237E+03  0.72912133912E+03  0.74602879757E+03  0.00000000000E+00 0. -1.
<scales pt_clust_5="13000.00000" pt_clust_6="13000.00000" pt_clust_7="13000.00000" pt_clust_8="13000.00000" pt_clust_9="163.81604"></scales>
<clustering>
<clus scale="   80.402">  5  6 -1 -1</clus>
<clus scale="   88.637">  7  8 -1 -1</clus>
<clus scale="  119.324">  1  5  2 -1</clus>
<clus scale="  163.816">  2  9  1 -1</clus>
<clus scale="  163.816">  2  5  1 -1</clus>
</clustering>
</event>
<event>
 9    2  0.5615294E-005  0.9402011E+02  0.7546771E-02  0.1294115E+00
         -1   -1    0    0    0  501 -0.00000000000E+00  0.00000000000E+00  0.31602793767E+03  0.31602793767E+03  0.00000000000E+00 0.  1.
         21   -1    0    0  501  502  0.00000000000E+00 -0.00000000000E+00 -0.40474260206E+02  0.40474260206E+02  0.00000000000E+00 0.  1.
         24    2    1    2    0    0  0.21143702914E+02 -0.21577342184E+02  0.94891680060E+02  0.12782687195E+03  0.80141377441E+02 0.  0.
         23    2    1    2    0    0 -0.54315017213E+02  0.35366325193E+02  0.13754587266E+03  0.17255516594E+03  0.81581371364E+02 0.  0.
        -11    1    3    3    0    0 -0.24617112431E+02 -0.30272400592E+02  0.45400806596E+02  0.59863625864E+02  0.00000000000E+00 0.  1.
         12    1    3    3    0    0  0.45760815344E+02  0.86950584072E+01  0.49490873464E+02  0.67963246082E+02  0.00000000000E+00 0. -1.
        -11    1    4    4    0    0 -0.43911643835E+02  0.17868104615E+02  0.14367565370E+03  0.15129505971E+03  0.00000000000E+00 0. -1.
         11    1    4    4    0    0 -0.10403373379E+02  0.17498220578E+02 -0.61297810427E+01  0.21260106225E+02  0.00000000000E+00 0.  1.
         -2    1    1    2    0  502  0.33171314300E+02 -0.13788983008E+02  0.43116124748E+02  0.56120159997E+02  0.00000000000E+00 0.  1.
<scales pt_clust_5="13000.00000" pt_clust_6="13000.00000" pt_clust_7="13000.00000" pt_clust_8="13000.00000" pt_clust_9="35.92314"></scales>
<clustering>
<clus scale="   35.923">  2  9  1 -1</clus>
<clus scale="   80.141">  5  6 -1 -1</clus>
<clus scale="   81.581">  7  8 -1 -1</clus>
<clus scale="   92.773">  1  5  2 -1</clus>
<clus scale="   35.923">  2  5  1 -1</clus>
</clustering>
</event>
<event>
 9    2  0.5615294E-005  0.1602511E+03  0.7546771E-02  0.1190672E+00
          2   -1    0    0  502    0 -0.00000000000E+00  0.00000000000E+00  0.68268412530E+03  0.68268412530E+03  0.00000000000E+00 0. -1.
         21   -1    0    0  501  502  0.00000000000E+00 -0.00000000000E+00 -0.56386744752E+02  0.56386744752E+02  0.00000000000E+00 0. -1.
         23    2    1    2    0    0  0.12873470401E+03 -0.36067949217E+02  0.43574202387E+03  0.46556914402E+03  0.94920996186E+02 0.  0.
         24    2    1    2    0    0 -0.12267687977E+03  0.97532746026E+01  0.19673442309E+03  0.24580081999E+03  0.81048545228E+02 0.  0.
        -11    1    4    4    0    0 -0.88488675278E+02  0.36910065349E+02  0.94443803965E+02  0.13458168777E+03  0.00000000000E+00 0.  1.
         12    1    4    4    0    0 -0.34188204491E+02 -0.27156790747E+02  0.10229061912E+03  0.11121913221E+03  0.00000000000E+00 0. -1.
        -13    1    3    3    0    0  0.87219841358E+02 -0.13679907675E+02  0.38998897183E+03  0.39985727297E+03  0.00000000000E+00 0. -1.
         13    1    3    3    0    0  0.41514862653E+02 -0.22388041543E+02  0.45753052042E+02  0.65711871046E+02  0.00000000000E+00 0.  1.
          1    1    1    2  501    0 -0.60578242418E+01  0.26314674615E+02 -0.61790664026E+01  0.27700906054E+02  0.00000000000E+00 0. -1.
<scales pt_clust_5="13000.00000" pt_clust_6="13000.00000" pt_clust_7="13000.00000" pt_clust_8="13000.00000" pt_clust_9="27.00295"></scales>
<clustering>
<clus scale="   27.003">  2  9  1 -1</clus>
<clus scale="   81.049">  5  6 -1 -1</clus>
<clus scale="   94.921">  7  8 -1 -1</clus>
<clus scale="  152.444">  2  5  1 -1</clus>
<clus scale="   27.003">  2  5  1 -1</clus>
</clustering>
</event>
<event>
 9    2  0.5615294E-005  0.1387689E+03  0.7546771E-02  0.1216170E+00
         21   -1    0    0  501  502  0.00000000000E+00  0.00000000000E+00  0.21017748515E+03  0.21017748515E+03  0.00000000000E+00 0. -1.
         -3   -1    0    0    0  501 -0.00000000000E+00 -0.00000000000E+00 -0.23763079485E+03  0.23763079485E+03  0.00000000000E+00 0.  1.
         24    2    1    2    0    0 -0.90342978578E+02  0.86947169639E+02 -0.12151054841E+03  0.19059024349E+03  0.76407875574E+02 0.  0.
         23    2    1    2    0    0  0.86442449586E+02 -0.39500295822E+02 -0.25726425053E+02  0.12832061193E+03  0.82290704450E+02 0.  0.
        -11    1    3    3    0    0 -0.96709963481E+02  0.49120283291E+02 -0.90399441733E+02  0.14120084395E+03  0.00000000000E+00 0.  1.
         12    1    3    3    0    0  0.63669849023E+01  0.37826886348E+02 -0.31111106681E+02  0.49389399535E+02  0.00000000000E+00 0. -1.
        -13    1    4    4    0    0  0.48814541350E+02  0.78686384049E+01 -0.42871578013E+02  0.65442701036E+02  0.00000000000E+00 0.  1.
         13    1    4    4    0    0  0.37627908236E+02 -0.47368934227E+02  0.17145152961E+02  0.62877910891E+02  0.00000000000E+00 0. -1.
         -4    1    1    2    0  502  0.39005289920E+01 -0.47446873817E+02  0.11978366377E+03  0.12889742459E+03  0.00000000000E+00 0.  1.
<scales pt_clust_5="13000.00000" pt_clust_6="13000.00000" pt_clust_7="13000.00000" pt_clust_8="13000.00000" pt_clust_9="47.60693"></scales>
<clustering>
<clus scale="   47.607">  1  9  2 -1</clus>
<clus scale="   76.408">  5  6 -1 -1</clus>
<clus scale="   82.291">  7  8 -1 -1</clus>
<clus scale="  135.363">  2  5  1 -1</clus>
<clus scale="   47.607">  1  5  2 -1</clus>
</clustering>
</event>
<event>
 9    2  0.5615294E-005  0.9995744E+02  0.7546771E-02  0.1286128E+00
         21   -1    0    0  501  502  0.00000000000E+00  0.00000000000E+00  0.10491257394E+03  0.10491257394E+03  0.00000000000E+00 0.  1.
         -3   -1    0    0    0  501 -0.00000000000E+00 -0.00000000000E+00 -0.14939441047E+03  0.14939441047E+03  0.00000000000E+00 0.  1.
         23    2    1    2    0    0 -0.53525235283E+00  0.34660284702E+02 -0.76398106602E+02  0.12410110525E+03  0.91448301242E+02 0.  0.
         24    2    1    2    0    0  0.20982751944E+02 -0.52833802343E+02  0.19264471377E+02  0.10006545791E+03  0.80064283297E+02 0.  0.
        -13    1    4    4    0    0  0.50088714171E+02 -0.30994848417E+02  0.22509874546E-01  0.58902974648E+02  0.00000000000E+00 0.  1.
         14    1    4    4    0    0 -0.29105962227E+02 -0.21838953926E+02  0.19241961503E+02  0.41162483261E+02  0.00000000000E+00 0. -1.
        -11    1    3    3    0    0  0.25709250990E+02  0.36639263325E+02 -0.85289457616E+02  0.96320780644E+02  0.00000000000E+00 0.  1.
         11    1    3    3    0    0 -0.26244503343E+02 -0.19789786230E+01  0.88913510138E+01  0.27780324601E+02  0.00000000000E+00 0. -1.
         -4    1    1    2    0  502 -0.20447499591E+02  0.18173517641E+02  0.12651798699E+02  0.30140421253E+02  0.00000000000E+00 0.  1.
<scales pt_clust_5="13000.00000" pt_clust_6="13000.00000" pt_clust_7="13000.00000" pt_clust_8="13000.00000" pt_clust_9="27.35648"></scales>
<clustering>
<clus scale="   27.356">  1  9  2 -1</clus>
<clus scale="   80.064">  5  6 -1 -1</clus>
<clus scale="   89.660">  1  5  2 -1</clus>
<clus scale="   91.448">  7  8 -1 -1</clus>
<clus scale="   27.356">  1  5  2 -1</clus>
</clustering>
</event>
<event>
 9    2  0.5615294E-005  0.1675285E+03  0.7546771E-02  0.1200223E+00
         -3   -1    0    0    0  501 -0.00000000000E+00  0.00000000000E+00  0.73546540946E+03  0.73546540946E+03  0.00000000000E+00 0.  1.
         21   -1    0    0  501  502  0.00000000000E+00 -0.00000000000E+00 -0.66119811774E+02  0.66119811774E+02  0.00000000000E+00 0.  1.
         23    2    1    2    0    0 -0.89007773147E+01  0.39643142269E+02  0.13370056354E+03  0.17203276927E+03  0.10034256547E+03 0.  0.
         24    2    1    2    0    0  0.70681351672E+02 -0.14608832625E+03  0.18916896699E+03  0.26186633356E+03  0.80320769643E+02 0.  0.
        -11    1    4    4    0    0  0.61601254862E+02 -0.10666383571E+03  0.18351063647E+03  0.22101593188E+03  0.00000000000E+00 0.  1.
         12    1    4    4    0    0  0.90800968099E+01 -0.39424490548E+02  0.56583305276E+01  0.40850401679E+02  0.00000000000E+00 0. -1.
        -11    1    3    3    0    0  0.39781892488E+02  0.27316890852E+02  0.10146962258E+03  0.11236056160E+03  0.00000000000E+00 0. -1.
         11    1    3    3    0    0 -0.48682669803E+02  0.12326251417E+02  0.32230940962E+02  0.59672207672E+02  0.00000000000E+00 0.  1.
         -4    1    1    2    0  502 -0.61780574358E+02  0.10644518399E+03  0.34647606715E+03  0.36768611840E+03  0.00000000000E+00 0.  1.
<scales pt_clust_5="13000.00000" pt_clust_6="13000.00000" pt_clust_7="13000.00000" pt_clust_8="13000.00000" pt_clust_9="147.01837"></scales>
<clustering>
<clus scale="   80.321">  5  6 -1 -1</clus>
<clus scale="  100.343">  7  8 -1 -1</clus>
<clus scale="  108.256">  1  7  2 -1</clus>
<clus scale="  147.018">  2  9  1 -1</clus>
<clus scale="  147.018">  2  5  1 -1</clus>
</clustering>
</event>
<event>
 9    2  0.5615294E-005  0.9849573E+02  0.7546771E-02  0.1289395E+00
         21   -1    0    0  501  502  0.00000000000E+00  0.00000000000E+00  0.26436654540E+03  0.26436654540E+03  0.00000000000E+00 0. -1.
         -3   -1    0    0    0  501 -0.00000000000E+00 -0.00000000000E+00 -0.82791481520E+02  0.82791481520E+02  0.00000000000E+00 0.  1.
         23    2    1    2    0    0  0.41408878391E+02  0.14903789469E+02 -0.24168348757E+02  0.10375276721E+03  0.90794875799E+02 0.  0.
         24    2    1    2    0    0 -0.24839428828E+02 -0.13870024531E+01  0.78618054331E+02  0.11449402314E+03  0.79430232709E+02 0.  0.
        -11    1    4    4    0    0  0.72367041346E+01 -0.33891188218E+02  0.19408629806E+02  0.39719987871E+02  0.00000000000E+00 0.  1.
         12    1    4    4    0    0 -0.32076132963E+02  0.32504185765E+02  0.59209424526E+02  0.74774035271E+02  0.00000000000E+00 0. -1.
        -13    1    3    3    0    0  0.46827706144E+02  0.45140039364E+02 -0.31355132113E+02  0.72205273535E+02  0.00000000000E+00 0.  1.
         13    1    3    3    0    0 -0.54188277531E+01 -0.30236249895E+02  0.71867833561E+01  0.31547493672E+02  0.00000000000E+00 0. -1.
         -4    1    1    2    0  502 -0.16569449562E+02 -0.13516787016E+02  0.12712535830E+03  0.12891123657E+03  0.00000000000E+00 0.  1.
<scales pt_clust_5="13000.00000" pt_clust_6="13000.00000" pt_clust_7="13000.00000" pt_clust_8="13000.00000" pt_clust_9="21.38341"></scales>
<clustering>
<clus scale="   21.383">  1  9  2 -1</clus>
<clus scale="   79.430">  5  6 -1 -1</clus>
<clus scale="   88.130">  1  5  2 -1</clus>
<clus scale="   90.795">  7  8 -1 -1</clus>
<clus scale="   21.383">  1  5  2 -1</clus>
</clustering>
</event>
<event>
 9    2  0.5615294E-005  0.1173874E+03  0.7546771E-02  0.1249657E+00
         21   -1    0    0  501  502  0.00000000000E+00  0.00000000000E+00  0.24244652270E+02  0.24244652270E+02  0.00000000000E+00 0. -1.
          2   -1    0    0  502    0 -0.00000000000E+00 -0.00000000000E+00 -0.11218881052E+04  0.11218881052E+04  0.00000000000E+00 0. -1.
         23    2    1    2    0    0  0.54773847692E+02  0.27470122366E+02 -0.40467789046E+03  0.41843639884E+03  0.87005993076E+02 0.  0.
         24    2    1    2    0    0 -0.45195324259E+02 -0.10479394946E+03 -0.51256465446E+03  0.53118882707E+03  0.80091546558E+02 0.  0.
        -13    1    4    4    0    0  0.15032535828E+02 -0.65521395655E+02 -0.26509062491E+03  0.27348138846E+03  0.00000000000E+00 0.  1.
         14    1    4    4    0    0 -0.60227860087E+02 -0.39272553800E+02 -0.24747402955E+03  0.25770743861E+03  0.00000000000E+00 0. -1.
        -13    1    3    3    0    0 -0.13068910111E+02  0.35696514588E+02 -0.13771495312E+03  0.14286513178E+03  0.00000000000E+00 0.  1.
         13    1    3    3    0    0  0.67842757803E+02 -0.82263922219E+01 -0.26696293734E+03  0.27557126706E+03  0.00000000000E+00 0. -1.
          1    1    1    2  501    0 -0.95785234329E+01  0.77323827089E+02 -0.18040090797E+03  0.19650753152E+03  0.00000000000E+00 0. -1.
<scales pt_clust_5="13000.00000" pt_clust_6="13000.00000" pt_clust_7="13000.00000" pt_clust_8="13000.00000" pt_clust_9="77.91484"></scales>
<clustering>
<clus scale="   77.915">  1  9  2 -1</clus>
<clus scale="   80.092">  5  6 -1 -1</clus>
<clus scale="   87.006">  7  8 -1 -1</clus>
<clus scale="  112.358">  1  5  2 -1</clus>
<clus scale="   77.915">  1  5  2 -1</clus>
</clustering>
</event>
<event>
 9    2  0.5615294E-005  0.9570618E+02  0.7546771E-02  0.1290690E+00
         21   -1    0    0  501  502  0.00000000000E+00  0.00000000000E+00  0.30902112759E+02  0.30902112759E+02  0.00000000000E+00 0. -1.
          2   -1    0    0  502    0 -0.00000000000E+00 -0.00000000000E+00 -0.50280878024E+03  0.50280878024E+03  0.00000000000E+00 0. -1.
         24    2    1    2    0    0 -0.29345664978E+02  0.89054774119E+01 -0.12133667005E+03  0.14983520253E+03  0.82386436008E+02 0.  0.
         23    2    1    2    0    0  0.42704074012E+02 -0.44880555701E+02 -0.17372050599E+03  0.20291051157E+03  0.84592903292E+02 0.  0.
        -13    1    3    3    0    0 -0.50042566123E+02  0.73924135125E+01 -0.11855678822E+03  0.12889770454E+03  0.00000000000E+00 0.  1.
         14    1    3    3    0    0  0.20696901145E+02  0.15130638994E+01 -0.27798818310E+01  0.20937497997E+02  0.00000000000E+00 0. -1.
        -11    1    4    4    0    0  0.24723076218E+02  0.10021549722E+02 -0.86844437171E+01  0.28054973163E+02  0.00000000000E+00 0.  1.
         11    1    4    4    0    0  0.17980997794E+02 -0.54902105423E+02 -0.16503606227E+03  0.17485553841E+03  0.00000000000E+00 0. -1.
          1    1    1    2  501    0 -0.13358409034E+02  0.35975078289E+02 -0.17684949144E+03  0.18096517890E+03  0.00000000000E+00 0. -1.
<scales pt_clust_5="13000.00000" pt_clust_6="13000.00000" pt_clust_7="13000.00000" pt_clust_8="13000.00000" pt_clust_9="38.37518"></scales>
<clustering>
<clus scale="   38.375">  1  9  2 -1</clus>
<clus scale="   82.386">  5  6 -1 -1</clus>
<clus scale="   84.593">  7  8 -1 -1</clus>
<clus scale="   93.762">  2  5  1 -1</clus>
<clus scale="   38.375">  1  5  2 -1</clus>
</clustering>
</event>
<event>
 9    2  0.5615294E-005  0.1976617E+03  0.7546771E-02  0.1152962E+00
         21   -1    0    0  501  502  0.00000000000E+00  0.00000000000E+00  0.65213271835E+03  0.65213271835E+03  0.00000000000E+00 0. -1.
          2   -1    0    0  502    0 -0.00000000000E+00 -0.00000000000E+00 -0.19484040105E+03  0.19484040105E+03  0.00000000000E+00 0. -1.
         24    2    1    2    0    0 -0.26333304456E+01 -0.16742255784E+03 -0.51582476685E+02  0.19270668937E+03  0.80236331694E+02 0.  0.
         23    2    1    2    0    0  0.14569099541E+03  0.20015279385E+03  0.33043921332E+03  0.42323392085E+03  0.93004682818E+02 0.  0.
        -11    1    3    3    0    0  0.71989328866E+01 -0.10710068556E+03  0.76252850872E+01  0.10761285451E+03  0.00000000000E+00 0.  1.
         12    1    3    3    0    0 -0.98322633322E+01 -0.60321872276E+02 -0.59207761772E+02  0.85093834860E+02  0.00000000000E+00 0. -1.
        -11    1    4    4    0    0  0.10991810540E+03  0.15453022951E+03  0.30668921069E+03  0.36058265859E+03  0.00000000000E+00 0. -1.
         11    1    4    4    0    0  0.35772890008E+02  0.45622564345E+02  0.23750002632E+02  0.62651262253E+02  0.00000000000E+00 0.  1.
          1    1    1    2  501    0 -0.14305766496E+03 -0.32730236014E+02  0.17843558066E+03  0.23103250919E+03  0.00000000000E+00 0. -1.
<scales pt_clust_5="13000.00000" pt_clust_6="13000.00000" pt_clust_7="13000.00000" pt_clust_8="13000.00000" pt_clust_9="146.75409"></scales>
<clustering>
<clus scale="   80.236">  5  6 -1 -1</clus>
<clus scale="   93.005">  7  8 -1 -1</clus>
<clus scale="  146.754">  1  9  2 -1</clus>
<clus scale="  191.985">  2  5  1 -1</clus>
<clus scale="  146.754">  1  5  2 -1</clus>
</clustering>
</event>
<event>
 9    2  0.5615294E-005  0.9775988E+02  0.7546771E-02  0.1294235E+00
         21   -1    0    0  501  502  0.00000000000E+00  0.00000000000E+00  0.46813787703E+02  0.46813787703E+02  0.00000000000E+00 0. -1.
          2   -1    0    0  502    0 -0.00000000000E+00 -0.00000000000E+00 -0.57929855186E+03  0.57929855186E+03  0.00000000000E+00 0. -1.
         23    2    1    2    0    0  0.69517468729E+02 -0.13663061221E+02 -0.20163005067E+03  0.22315631959E+03  0.64223889151E+02 0.  0.
         24    2    1    2    0    0  0.76654250509E+01  0.12943413876E+02 -0.25785706355E+02  0.88273932630E+02  0.83072822425E+02 0.  0.
        -11    1    4    4    0    0  0.33020568267E+02  0.16411815108E+02 -0.43592939490E+02  0.57096847349E+02  0.00000000000E+00 0.  1.
         12    1    4    4    0    0 -0.25355143216E+02 -0.34684012318E+01  0.17807233135E+02  0.31177085280E+02  0.00000000000E+00 0. -1.
        -13    1    3    3    0    0  0.12122733603E+02 -0.22249866520E+02 -0.19409851457E+02  0.31918013155E+02  0.00000000000E+00 0.  1.
         13    1    3    3    0    0  0.57394735127E+02  0.85868052993E+01 -0.18222019922E+03  0.19123830643E+03  0.00000000000E+00 0. -1.
          1    1    1    2  501    0 -0.77182893780E+02  0.71964734529E+00 -0.30506900713E+03  0.31468208735E+03  0.00000000000E+00 0. -1.
<scales pt_clust_5="13000.00000" pt_clust_6="13000.00000" pt_clust_7="13000.00000" pt_clust_8="13000.00000" pt_clust_9="77.18629"></scales>
<clustering>
<clus scale="   64.224">  7  8 -1 -1</clus>
<clus scale="   77.186">  1  9  2 -1</clus>
<clus scale="   82.344">  2  7  1 -1</clus>
<clus scale="   83.073">  5  6 -1 -1</clus>
<clus scale="   77.186">  1  5  2 -1</clus>
</clustering>
</event>
<event>
 9    2  0.5615294E-005  0.9140660E+02  0.7546771E-02  0.1306034E+00
          2   -1    0    0  502    0 -0.00000000000E+00  0.00000000000E+00  0.35131404982E+03  0.35131404982E+03  0.00000000000E+00 0. -1.
         21   -1    0    0  501  502  0.00000000000E+00 -0.00000000000E+00 -0.54552202275E+02  0.54552202275E+02  0.00000000000E+00 0.  1.
         24    2    1    2    0    0 -0.11369858724E+02  0.82580174638E+01  0.22693464251E+03  0.24117157617E+03  0.80417216060E+02 0.  0.
         23    2    1    2    0    0  0.52391065269E+01  0.11193095792E+02  0.95179769944E+02  0.13215724399E+03  0.90849407817E+02 0.  0.
        -13    1    3    3    0    0 -0.37715126515E+02  0.21922018407E+02  0.18317140888E+03  0.18829437243E+03  0.00000000000E+00 0.  1.
         14    1    3    3    0    0  0.26345267791E+02 -0.13664000944E+02  0.43763233636E+02  0.52877203737E+02  0.00000000000E+00 0. -1.
        -11    1    4    4    0    0  0.18058776359E+02  0.44642766575E+02  0.27177045310E+02  0.55296363378E+02  0.00000000000E+00 0.  1.
         11    1    4    4    0    0 -0.12819669832E+02 -0.33449670783E+02  0.68002724634E+02  0.76860880607E+02  0.00000000000E+00 0. -1.
          1    1    1    2  501    0  0.61307521973E+01 -0.19451113256E+02 -0.25352564915E+02  0.32537431939E+02  0.00000000000E+00 0. -1.
<scales pt_clust_5="13000.00000" pt_clust_6="13000.00000" pt_clust_7="13000.00000" pt_clust_8="13000.00000" pt_clust_9="20.39441"></scales>
<clustering>
<clus scale="   20.394">  2  9  1 -1</clus>
<clus scale="   80.417">  5  6 -1 -1</clus>
<clus scale="   81.046">  1  5  2 -1</clus>
<clus scale="   90.849">  7  8 -1 -1</clus>
<clus scale="   20.394">  2  5  1 -1</clus>
</clustering>
</event>
<event>
 9    2  0.5615294E-005  0.2730220E+03  0.7546771E-02  0.1100158E+00
          2   -1    0    0  502    0 -0.00000000000E+00  0.00000000000E+00  0.11217772292E+04  0.11217772292E+04  0.00000000000E+00 0. -1.
         21   -1    0    0  501  502  0.00000000000E+00 -0.00000000000E+00 -0.97082278892E+02  0.97082278892E+02  0.00000000000E+00 0. -1.
         23    2    1    2    0    0  0.16654560978E+03 -0.15410884840E+03  0.46222229983E+03  0.52277079103E+03  0.90293234500E+02 0.  0.
         24    2    1    2    0    0 -0.23534217545E+03  0.18794515138E+03  0.52652920001E+03  0.61141407811E+03  0.76712821462E+02 0.  0.
        -13    1    4    4    0    0 -0.92253478581E+02  0.11629559886E+03  0.21620781263E+03  0.26226168014E+03  0.00000000000E+00 0.  1.
         14    1    4    4    0    0 -0.14308869687E+03  0.71649552523E+02  0.31032138737E+03  0.34915239797E+03  0.00000000000E+00 0. -1.
        -13    1    3    3    0    0  0.11886929437E+03 -0.14834496757E+03  0.31500727639E+03  0.36792081040E+03  0.00000000000E+00 0.  1.
         13    1    3    3    0    0  0.47676315411E+02 -0.57638808329E+01  0.14721502344E+03  0.15484998062E+03  0.00000000000E+00 0. -1.
          1    1    1    2  501    0  0.68796565666E+02 -0.33836302986E+02  0.35943450437E+02  0.84674638922E+02  0.00000000000E+00 0. -1.
<scales pt_clust_5="13000.00000" pt_clust_6="13000.00000" pt_clust_7="13000.00000" pt_clust_8="13000.00000" pt_clust_9="76.66722"></scales>
<clustering>
<clus scale="   76.667">  2  9  1 -1</clus>
<clus scale="   76.713">  5  6 -1 -1</clus>
<clus scale="   90.293">  7  8 -1 -1</clus>
<clus scale="  268.836">  2  5  1 -1</clus>
<clus scale="   76.667">  2  5  1 -1</clus>
</clustering>
</event>
<event>
 9    2  0.5615294E-005  0.1085750E+03  0.7546771E-02  0.1267322E+00
          2   -1    0    0  502    0 -0.00000000000E+00  0.00000000000E+00  0.75786695499E+03  0.75786695499E+03  0.00000000000E+00 0. -1.
         21   -1    0    0  501  502  0.00000000000E+00 -0.00000000000E+00 -0.27331148478E+02  0.27331148478E+02  0.00000000000E+00 0.  1.
         23    2    1    2    0    0  0.50214524110E+02  0.82651816811E+01  0.33598943354E+03  0.35164970562E+03  0.90436742261E+02 0.  0.
         24    2    1    2    0    0 -0.63011842111E+02 -0.59983671497E+02  0.20563067420E+03  0.23726361805E+03  0.80259062963E+02 0.  0.
        -13    1    4    4    0    0 -0.40742152935E+02 -0.76889894312E+02  0.12822812772E+03  0.15496590467E+03  0.00000000000E+00 0.  1.
         14    1    4    4    0    0 -0.22269689176E+02  0.16906222815E+02  0.77402546480E+02  0.82297713379E+02  0.00000000000E+00 0. -1.
        -11    1    3    3    0    0  0.48432990200E+02 -0.19894482703E+02  0.30610019637E+03  0.31054609191E+03  0.00000000000E+00 0. -1.
         11    1    3    3    0    0  0.17815339099E+01  0.28159664384E+02  0.29889237166E+02  0.41103613706E+02  0.00000000000E+00 0.  1.
          1    1    1    2  501    0  0.12797318001E+02  0.51718489816E+02  0.18891569877E+03  0.19628477980E+03  0.00000000000E+00 0. -1.
<scales pt_clust_5="13000.00000" pt_clust_6="13000.00000" pt_clust_7="13000.00000" pt_clust_8="13000.00000" pt_clust_9="53.27829"></scales>
<clustering>
<clus scale="   53.278">  2  9  1 -1</clus>
<clus scale="   80.259">  5  6 -1 -1</clus>
<clus scale="   90.437">  7  8 -1 -1</clus>
<clus scale="  100.256">  2  5  1 -1</clus>
<clus scale="   53.278">  2  5  1 -1</clus>
</clustering>
</event>
<event>
 9    2  0.5615294E-005  0.1012574E+03  0.7546771E-02  0.1286945E+00
          2   -1    0    0  502    0 -0.00000000000E+00  0.00000000000E+00  0.73319269946E+03  0.73319269946E+03  0.00000000000E+00 0. -1.
         21   -1    0    0  501  502  0.00000000000E+00 -0.00000000000E+00 -0.29038041841E+02  0.29038041841E+02  0.00000000000E+00 0. -1.
         23    2    1    2    0    0  0.20521387532E+01 -0.66615636829E+01  0.19344591686E+03  0.21595718923E+03  0.95747569819E+02 0.  0.
         24    2    1    2    0    0 -0.45949079633E+02  0.50631586267E+02  0.16487034416E+03  0.19489839520E+03  0.78283322747E+02 0.  0.
        -13    1    4    4    0    0  0.58837979787E+01  0.51218030180E+02  0.72227411968E+02  0.88739533094E+02  0.00000000000E+00 0.  1.
         14    1    4    4    0    0 -0.51832877612E+02 -0.58644391344E+00  0.92642932191E+02  0.10615886210E+03  0.00000000000E+00 0. -1.
        -11    1    3    3    0    0  0.21065704428E+02 -0.41350436943E+02  0.15084534801E+03  0.15782250015E+03  0.00000000000E+00 0. -1.
         11    1    3    3    0    0 -0.19013565675E+02  0.34688873260E+02  0.42600568853E+02  0.58134689080E+02  0.00000000000E+00 0.  1.
          1    1    1    2  501    0  0.43896940880E+02 -0.43970022584E+02  0.34583839660E+03  0.35137515687E+03  0.00000000000E+00 0. -1.
<scales pt_clust_5="13000.00000" pt_clust_6="13000.00000" pt_clust_7="13000.00000" pt_clust_8="13000.00000" pt_clust_9="62.13138"></scales>
<clustering>
<clus scale="   62.131">  2  9  1 -1</clus>
<clus scale="   78.283">  5  6 -1 -1</clus>
<clus scale="   84.934">  2  5  1 -1</clus>
<clus scale="   95.748">  7  8 -1 -1</clus>
<clus scale="   62.131">  2  5  1 -1</clus>
</clustering>
</event>
<event>
 9    2  0.5615294E-005  0.1149162E+03  0.7546771E-02  0.1256403E+00
          4   -1    0    0  502    0 -0.00000000000E+00  0.00000000000E+00  0.49610131736E+03  0.49610131736E+03  0.00000000000E+00 0. -1.
         21   -1    0    0  501  502  0.00000000000E+00 -0.00000000000E+00 -0.55189216680E+02  0.55189216680E+02  0.00000000000E+00 0. -1.
         23    2    1    2    0    0 -0.82567503467E+02  0.30713287171E+01  0.35401960126E+03  0.37437498222E+03  0.89442291702E+02 0.  0.
         24    2    1    2    0    0  0.34200461120E+02  0.14834657584E+02  0.11188676952E+02  0.85312801499E+02  0.75916724121E+02 0.  0.
        -11    1    4    4    0    0  0.57159810802E+02  0.19550905001E+02  0.30020538040E+01  0.60485487386E+02  0.00000000000E+00 0.  1.
         12    1    4    4    0    0 -0.22959349682E+02 -0.47162474170E+01  0.81866231482E+01  0.24827314113E+02  0.00000000000E+00 0. -1.
        -13    1    3    3    0    0 -0.28409680196E+02 -0.25037759352E+02  0.42446440715E+02  0.56883210630E+02  0.00000000000E+00 0.  1.
         13    1    3    3    0    0 -0.54157823271E+02  0.28109088069E+02  0.31157316055E+03  0.31749177159E+03  0.00000000000E+00 0. -1.
          3    1    1    2  501    0  0.48367042347E+02 -0.17905986301E+02  0.75703822469E+02  0.91602750326E+02  0.00000000000E+00 0. -1.
<scales pt_clust_5="13000.00000" pt_clust_6="13000.00000" pt_clust_7="13000.00000" pt_clust_8="13000.00000" pt_clust_9="51.57517"></scales>
<clustering>
<clus scale="   51.575">  2  9  1 -1</clus>
<clus scale="   75.917">  5  6 -1 -1</clus>
<clus scale="   89.442">  7  8 -1 -1</clus>
<clus scale="  104.734">  2  5  1 -1</clus>
<clus scale="   51.575">  2  5  1 -1</clus>
</clustering>
</event>
<event>
 9    2  0.5615294E-005  0.1353209E+03  0.7546771E-02  0.1244372E+00
          2   -1    0    0  502    0 -0.00000000000E+00  0.00000000000E+00  0.10957175587E+03  0.10957175587E+03  0.00000000000E+00 0. -1.
         21   -1    0    0  501  502  0.00000000000E+00 -0.00000000000E+00 -0.50324936688E+03  0.50324936688E+03  0.00000000000E+00 0. -1.
         24    2    1    2    0    0  0.18366017901E+01 -0.21420286125E+02  0.41076544351E+02  0.91315507828E+02  0.78670437334E+02 0.  0.
         23    2    1    2    0    0  0.98110185833E+02  0.90257570944E+01 -0.88154745265E+02  0.16057052965E+03  0.91129375199E+02 0.  0.
        -13    1    3    3    0    0 -0.15377089803E+02  0.26393250418E+02  0.12417384688E+02  0.32973474202E+02  0.00000000000E+00 0.  1.
         14    1    3    3    0    0  0.17213691594E+02 -0.47813536543E+02  0.28659159662E+02  0.58342033626E+02  0.00000000000E+00 0. -1.
        -13    1    4    4    0    0  0.75840964502E+02 -0.26140977550E+02 -0.23349386901E+02  0.83548767032E+02  0.00000000000E+00 0. -1.
         13    1    4    4    0    0  0.22269221331E+02  0.35166734644E+02 -0.64805358364E+02  0.77021762619E+02  0.00000000000E+00 0.  1.
          1    1    1    2  501    0 -0.99946787623E+02  0.12394529030E+02 -0.34659941009E+03  0.36093508528E+03  0.00000000000E+00 0. -1.
<scales pt_clust_5="13000.00000" pt_clust_6="13000.00000" pt_clust_7="13000.00000" pt_clust_8="13000.00000" pt_clust_9="100.03596"></scales>
<clustering>
<clus scale="   78.670">  5  6 -1 -1</clus>
<clus scale="   81.555">  1  5  2 -1</clus>
<clus scale="   91.129">  7  8 -1 -1</clus>
<clus scale="  100.036">  2  9  1 -1</clus>
<clus scale="  100.036">  2  5  1 -1</clus>
</clustering>
</event>
<event>
 9    2  0.5615294E-005  0.8405368E+02  0.7546771E-02  0.1320363E+00
         -3   -1    0    0    0  501 -0.00000000000E+00  0.00000000000E+00  0.97723903096E+02  0.97723903096E+02  0.00000000000E+00 0.  1.
         21   -1    0    0  501  502  0.00000000000E+00 -0.00000000000E+00 -0.13160929440E+03  0.13160929440E+03  0.00000000000E+00 0.  1.
         23    2    1    2    0    0  0.10448793457E+02 -0.13877953824E+02 -0.28680242410E+02  0.90235321110E+02  0.83773993483E+02 0.  0.
         24    2    1    2    0    0  0.66342736377E+01 -0.26823709529E+02 -0.28144595731E+02  0.89351772995E+02  0.80175408255E+02 0.  0.
        -11    1    4    4    0    0 -0.57676484561E+01 -0.44401157509E+02  0.97068916616E+01  0.45814324207E+02  0.00000000000E+00 0.  1.
         12    1    4    4    0    0  0.12401922094E+02  0.17577447980E+02 -0.37851487393E+02  0.43537448788E+02  0.00000000000E+00 0. -1.
        -13    1    3    3    0    0 -0.32691606193E+02 -0.18099087096E+02  0.15322099777E+01  0.37398739773E+02  0.00000000000E+00 0. -1.
         13    1    3    3    0    0  0.43140399650E+02  0.42211332726E+01 -0.30212452388E+02  0.52836581337E+02  0.00000000000E+00 0.  1.
         -4    1    1    2    0  502 -0.17083067095E+02  0.40701663353E+02  0.22939446839E+02  0.49746103388E+02  0.00000000000E+00 0.  1.
<scales pt_clust_5="13000.00000" pt_clust_6="13000.00000" pt_clust_7="13000.00000" pt_clust_8="13000.00000" pt_clust_9="44.14135"></scales>
<clustering>
<clus scale="   44.141">  2  9  1 -1</clus>
<clus scale="   80.175">  5  6 -1 -1</clus>
<clus scale="   80.468">  2  5  1 -1</clus>
<clus scale="   83.774">  7  8 -1 -1</clus>
<clus scale="   44.141">  2  5  1 -1</clus>
</clustering>
</event>
<event>
 9    2  0.5615294E-005  0.1002191E+03  0.7546771E-02  0.1286996E+00
          2   -1    0    0  502    0 -0.00000000000E+00  0.00000000000E+00  0.21623043778E+03  0.21623043778E+03  0.00000000000E+00 0. -1.
         21   -1    0    0  501  502  0.00000000000E+00 -0.00000000000E+00 -0.11732457507E+03  0.11732457507E+03  0.00000000000E+00 0. -1.
         24    2    1    2    0    0  0.27006430205E+02  0.20672842686E+02  0.11048390340E+03  0.14054237250E+03  0.79929668218E+02 0.  0.
         23    2    1    2    0    0 -0.49052333172E+02  0.10253733836E+02  0.52523237681E+02  0.11850459472E+03  0.93666312123E+02 0.  0.
        -13    1    3    3    0    0  0.32341571825E+01  0.20141047824E+02 -0.63098652890E+01  0.21352657449E+02  0.00000000000E+00 0.  1.
         14    1    3    3    0    0  0.23772273022E+02  0.53179486166E+00  0.11679376869E+03  0.11918971506E+03  0.00000000000E+00 0. -1.
        -11    1    4    4    0    0 -0.33898282892E+02 -0.33725142856E+02 -0.69531949358E+00  0.47822194772E+02  0.00000000000E+00 0.  1.
         11    1    4    4    0    0 -0.15154050280E+02  0.43978876692E+02  0.53218557175E+02  0.70682399950E+02  0.00000000000E+00 0. -1.
          1    1    1    2  501    0  0.22045902967E+02 -0.30926576522E+02 -0.64101278374E+02  0.74508045620E+02  0.00000000000E+00 0. -1.
<scales pt_clust_5="13000.00000" pt_clust_6="13000.00000" pt_clust_7="13000.00000" pt_clust_8="13000.00000" pt_clust_9="37.97993"></scales>
<clustering>
<clus scale="   37.980">  2  9  1 -1</clus>
<clus scale="   79.930">  5  6 -1 -1</clus>
<clus scale="   87.517">  1  5  2 -1</clus>
<clus scale="   93.666">  7  8 -1 -1</clus>
<clus scale="   37.980">  2  5  1 -1</clus>
</clustering>
</event>
<event>
 9    2  0.5615294E-005  0.4878739E+03  0.7546771E-02  0.1051648E+00
         21   -1    0    0  501  502  0.00000000000E+00  0.00000000000E+00  0.24061535605E+03  0.24061535605E+03  0.00000000000E+00 0. -1.
          2   -1    0    0  502    0 -0.00000000000E+00 -0.00000000000E+00 -0.19757840671E+04  0.19757840671E+04  0.00000000000E+00 0. -1.
         24    2    1    2    0    0 -0.14427064309E+03 -0.54374694112E+02 -0.26564672477E+01  0.17596511207E+03  0.84770502126E+02 0.  0.
         23    2    1    2    0    0 -0.37568628925E+03  0.37714814381E+01 -0.13187217851E+04  0.13739971871E+04  0.87673892439E+02 0.  0.
        -13    1    3    3    0    0 -0.25909355040E+02  0.22895060437E+02  0.49741250385E+00  0.34579269660E+02  0.00000000000E+00 0.  1.
         14    1    3    3    0    0 -0.11836128804E+03 -0.77269754549E+02 -0.31538797516E+01  0.14138584241E+03  0.00000000000E+00 0. -1.
        -11    1    4    4    0    0 -0.13982757911E+03 -0.15470017404E+02 -0.63767455826E+03  0.65300835796E+03  0.00000000000E+00 0. -1.
         11    1    4    4    0    0 -0.23585871014E+03  0.19241498842E+02 -0.68104722689E+03  0.72098882910E+03  0.00000000000E+00 0.  1.
          1    1    1    2  501    0  0.51995693233E+03  0.50603212674E+02 -0.41379045868E+03  0.66643712404E+03  0.00000000000E+00 0. -1.
<scales pt_clust_5="13000.00000" pt_clust_6="13000.00000" pt_clust_7="13000.00000" pt_clust_8="13000.00000" pt_clust_9="479.93149"></scales>
<clustering>
<clus scale="   84.771">  5  6 -1 -1</clus>
<clus scale="   87.674">  7  8 -1 -1</clus>
<clus scale="  175.945">  2  5  1 -1</clus>
<clus scale="  479.931">  1  9  2 -1</clus>
<clus scale="  479.931">  1  5  2 -1</clus>
</clustering>
</event>
<event>
 9    2  0.5615294E-005  0.1358463E+03  0.7546771E-02  0.1237849E+00
          2   -1    0    0  502    0 -0.00000000000E+00  0.00000000000E+00  0.77710026649E+03  0.77710026649E+03  0.00000000000E+00 0. -1.
         21   -1    0    0  501  502  0.00000000000E+00 -0.00000000000E+00 -0.59141482795E+02  0.59141482795E+02  0.00000000000E+00 0.  1.
         23    2    1    2    0    0 -0.13953620377E+02  0.18616177484E+02  0.22406480434E+02  0.94698651836E+02  0.89019765830E+02 0.  0.
         24    2    1    2    0    0  0.22060735048E+02 -0.12178429543E+03  0.48508419948E+03  0.50700907310E+03  0.80208658962E+02 0.  0.
        -11    1    4    4    0    0  0.50602479454E+02 -0.59930946350E+02  0.28769671712E+03  0.29819746863E+03  0.00000000000E+00 0.  1.
         12    1    4    4    0    0 -0.28541744406E+02 -0.61853349083E+02  0.19738748236E+03  0.20881160446E+03  0.00000000000E+00 0. -1.
        -13    1    3    3    0    0 -0.45069758304E+02 -0.12897321855E+02  0.17912555561E+02  0.50184496325E+02  0.00000000000E+00 0.  1.
         13    1    3    3    0    0  0.31116137927E+02  0.31513499340E+02  0.44939248728E+01  0.44514155511E+02  0.00000000000E+00 0. -1.
          1    1    1    2  501    0 -0.81071146713E+01  0.10316811795E+03  0.21046810378E+03  0.23453402435E+03  0.00000000000E+00 0. -1.
<scales pt_clust_5="13000.00000" pt_clust_6="13000.00000" pt_clust_7="13000.00000" pt_clust_8="13000.00000" pt_clust_9="109.63933"></scales>
<clustering>
<clus scale="   80.209">  5  6 -1 -1</clus>
<clus scale="   89.020">  7  8 -1 -1</clus>
<clus scale="   92.010">  1  7  2 -1</clus>
<clus scale="  109.639">  2  9  1 -1</clus>
<clus scale="  109.639">  2  5  1 -1</clus>
</clustering>
</event>
<event>
 9    2  0.5615294E-005  0.9206603E+02  0.7546771E-02  0.1303524E+00
         21   -1    0    0  501  502  0.00000000000E+00  0.00000000000E+00  0.55903329425E+02  0.55903329425E+02  0.00000000000E+00 0. -1.
          2   -1    0    0  502    0 -0.00000000000E+00 -0.00000000000E+00 -0.24690689726E+03  0.24690689726E+03  0.00000000000E+00 0. -1.
         24    2    1    2    0    0 -0.86656756151E+01 -0.13670756656E+01 -0.15636123858E+03  0.17677543486E+03  0.81998503697E+02 0.  0.
         23    2    1    2    0    0  0.28602792413E+02  0.11419090816E+02 -0.17224047681E+02  0.97716455581E+02  0.91122568576E+02 0.  0.
        -11    1    3    3    0    0  0.26709434314E+02 -0.18572905145E+02 -0.29361360041E+02  0.43822781180E+02  0.00000000000E+00 0.  1.
         12    1    3    3    0    0 -0.35375109929E+02  0.17205829479E+02 -0.12699987854E+03  0.13295265368E+03  0.00000000000E+00 0. -1.
        -13    1    4    4    0    0 -0.20972012815E+02  0.61704841655E+01 -0.37895317516E+02  0.43748774680E+02  0.00000000000E+00 0.  1.
         13    1    4    4    0    0  0.49574805228E+02  0.52486066505E+01  0.20671269835E+02  0.53967680900E+02  0.00000000000E+00 0. -1.
          1    1    1    2  501    0 -0.19937116798E+02 -0.10052015150E+02 -0.17418281566E+02  0.28318336242E+02  0.00000000000E+00 0. -1.
<scales pt_clust_5="13000.00000" pt_clust_6="13000.00000" pt_clust_7="13000.00000" pt_clust_8="13000.00000" pt_clust_9="22.32782"></scales>
<clustering>
<clus scale="   22.328">  1  9  2 -1</clus>
<clus scale="   81.999">  5  6 -1 -1</clus>
<clus scale="   83.046">  2  5  1 -1</clus>
<clus scale="   91.123">  7  8 -1 -1</clus>
<clus scale="   22.328">  1  5  2 -1</clus>
</clustering>
</event>
<event>
 9    2  0.5615294E-005  0.9944840E+02  0.7546771E-02  0.1289176E+00
          2   -1    0    0  502    0 -0.00000000000E+00  0.00000000000E+00  0.37738377659E+03  0.37738377659E+03  0.00000000000E+00 0. -1.
         21   -1    0    0  501  502  0.00000000000E+00 -0.00000000000E+00 -0.45214420159E+02  0.45214420159E+02  0.00000000000E+00 0. -1.
         24    2    1    2    0    0  0.25866717743E+02  0.24655632813E+00  0.17281953851E+03  0.19220580274E+03  0.80045798389E+02 0.  0.
         23    2    1    2    0    0 -0.40287719785E+02 -0.43622114079E+02  0.74760083998E+02  0.13424236855E+03  0.94371362990E+02 0.  0.
        -13    1    3    3    0    0  0.43938981161E+02 -0.26724007358E+02  0.11273066448E+03  0.12390726109E+03  0.00000000000E+00 0.  1.
         14    1    3    3    0    0 -0.18072263417E+02  0.26970563686E+02  0.60088874028E+02  0.68298541658E+02  0.00000000000E+00 0. -1.
        -11    1    4    4    0    0 -0.20778267760E+02  0.10723012340E+02 -0.14807324134E+02  0.27676275992E+02  0.00000000000E+00 0.  1.
         11    1    4    4    0    0 -0.19509452025E+02 -0.54345126419E+02  0.89567408132E+02  0.10656609256E+03  0.00000000000E+00 0. -1.
          1    1    1    2  501    0  0.14421002042E+02  0.43375557751E+02  0.84589733917E+02  0.96150025451E+02  0.00000000000E+00 0. -1.
<scales pt_clust_5="13000.00000" pt_clust_6="13000.00000" pt_clust_7="13000.00000" pt_clust_8="13000.00000" pt_clust_9="45.71003"></scales>
<clustering>
<clus scale="   45.710">  2  9  1 -1</clus>
<clus scale="   80.046">  5  6 -1 -1</clus>
<clus scale="   85.973">  1  5  2 -1</clus>
<clus scale="   94.371">  7  8 -1 -1</clus>
<clus scale="   45.710">  2  5  1 -1</clus>
</clustering>
</event>
<event>
 9    2  0.5615294E-005  0.1888098E+03  0.7546771E-02  0.1186029E+00
         21   -1    0    0  501  502  0.00000000000E+00  0.00000000000E+00  0.57370389257E+03  0.57370389257E+03  0.00000000000E+00 0. -1.
          2   -1    0    0  502    0 -0.00000000000E+00 -0.00000000000E+00 -0.12009427488E+03  0.12009427488E+03  0.00000000000E+00 0. -1.
         24    2    1    2    0    0 -0.64139674913E+02 -0.21740627644E+01 -0.12594427535E+02  0.10406947527E+03  0.80951909369E+02 0.  0.
         23    2    1    2    0    0 -0.10042983436E+02 -0.15890218939E+03  0.24833790076E+03  0.30881183132E+03  0.91336010994E+02 0.  0.
        -13    1    3    3    0    0  0.15617715058E+02  0.14499611007E+02  0.15589369832E+01  0.21367780126E+02  0.00000000000E+00 0.  1.
         14    1    3    3    0    0 -0.79757389970E+02 -0.16673673771E+02 -0.14153364519E+02  0.82701695141E+02  0.00000000000E+00 0. -1.
        -11    1    4    4    0    0  0.13788688736E+02 -0.12562696525E+03  0.23306587879E+03  0.26512632120E+03  0.00000000000E+00 0. -1.
         11    1    4    4    0    0 -0.23831672172E+02 -0.33275224137E+02  0.15272021963E+02  0.43685510123E+02  0.00000000000E+00 0.  1.
          1    1    1    2  501    0  0.74182658349E+02  0.16107625215E+03  0.21786614447E+03  0.28091686085E+03  0.00000000000E+00 0. -1.
<scales pt_clust_5="13000.00000" pt_clust_6="13000.00000" pt_clust_7="13000.00000" pt_clust_8="13000.00000" pt_clust_9="165.24804"></scales>
<clustering>
<clus scale="   80.952">  5  6 -1 -1</clus>
<clus scale="   91.336">  7  8 -1 -1</clus>
<clus scale="  103.305">  2  5  1 -1</clus>
<clus scale="  165.248">  1  9  2 -1</clus>
<clus scale="  165.248">  1  5  2 -1</clus>
</clustering>
</event>
<event>
 9    2  0.5615294E-005  0.2067450E+03  0.7546771E-02  0.1169857E+00
         21   -1    0    0  501  502  0.00000000000E+00  0.00000000000E+00  0.42388526824E+03  0.42388526824E+03  0.00000000000E+00 0. -1.
          2   -1    0    0  502    0 -0.00000000000E+00 -0.00000000000E+00 -0.44153396156E+03  0.44153396156E+03  0.00000000000E+00 0. -1.
         23    2    1    2    0    0 -0.66507735766E+02  0.13319745636E+02  0.99793570333E+02  0.15100434758E+03  0.90790207447E+02 0.  0.
         24    2    1    2    0    0 -0.10492310057E+03  0.83167243442E+02 -0.36597625697E+03  0.39744892736E+03  0.78111342222E+02 0.  0.
        -13    1    4    4    0    0 -0.28045714713E+02 -0.60445536319E+01 -0.30362999222E+02  0.41773322397E+02  0.00000000000E+00 0.  1.
         14    1    4    4    0    0 -0.76877385853E+02  0.89211797074E+02 -0.33561325775E+03  0.35567560497E+03  0.00000000000E+00 0. -1.
        -11    1    3    3    0    0 -0.40567778477E+02  0.43339885307E+02  0.93616035838E+02  0.11085148838E+03  0.00000000000E+00 0.  1.
         11    1    3    3    0    0 -0.25939957290E+02 -0.30020139671E+02  0.61775344945E+01  0.40152859207E+02  0.00000000000E+00 0. -1.
          1    1    1    2  501    0  0.17143083633E+03 -0.96486989078E+02  0.24853399332E+03  0.31696595486E+03  0.00000000000E+00 0. -1.
<scales pt_clust_5="13000.00000" pt_clust_6="13000.00000" pt_clust_7="13000.00000" pt_clust_8="13000.00000" pt_clust_9="191.42124"></scales>
<clustering>
<clus scale="   78.111">  5  6 -1 -1</clus>
<clus scale="   90.790">  7  8 -1 -1</clus>
<clus scale="  113.329">  2  7  1 -1</clus>
<clus scale="  191.421">  1  9  2 -1</clus>
<clus scale="  191.421">  1  5  2 -1</clus>
</clustering>
</event>
<event>
 9    2  0.5615294E-005  0.1485035E+03  0.7546771E-02  0.1204837E+00
          2   -1    0    0  502    0 -0.00000000000E+00  0.00000000000E+00  0.12440941595E+04  0.12440941595E+04  0.00000000000E+00 0. -1.
         21   -1    0    0  501  502  0.00000000000E+00 -0.00000000000E+00 -0.52177767946E+02  0.52177767946E+02  0.00000000000E+00 0.  1.
         24    2    1    2    0    0  0.10914284040E+03 -0.14721714106E+02  0.11043113563E+04  0.11145686950E+04  0.10310633224E+03 0.  0.
         23    2    1    2    0    0 -0.80665267683E+02  0.26494131741E+01  0.47124830293E+02  0.13075856056E+03  0.91450241825E+02 0.  0.
        -13    1    3    3    0    0  0.20681383935E+02 -0.45177346033E+02  0.23238243123E+03  0.23763481769E+03  0.00000000000E+00 0.  1.
         14    1    3    3    0    0  0.88461456468E+02  0.30455631927E+02  0.87192892511E+03  0.87693387735E+03  0.00000000000E+00 0. -1.
        -11    1    4    4    0    0 -0.80621424989E+02  0.35019338215E+02  0.24446404222E+02  0.91234833785E+02  0.00000000000E+00 0.  1.
         11    1    4    4    0    0 -0.43842693639E-01 -0.32369925041E+02  0.22678426071E+02  0.39523726778E+02  0.00000000000E+00 0. -1.
          1    1    1    2  501    0 -0.28477572720E+02  0.12072300932E+02  0.40480204888E+02  0.50944671808E+02  0.00000000000E+00 0. -1.
<scales pt_clust_5="13000.00000" pt_clust_6="13000.00000" pt_clust_7="13000.00000" pt_clust_8="13000.00000" pt_clust_9="30.93077"></scales>
<clustering>
<clus scale="   30.931">  2  9  1 -1</clus>
<clus scale="   91.450">  7  8 -1 -1</clus>
<clus scale="  103.106">  5  6 -1 -1</clus>
<clus scale="  140.661">  2  7  1 -1</clus>
<clus scale="   30.931">  2  5  1 -1</clus>
</clustering>
</event>
<event>
 9    2  0.5615294E-005  0.9044467E+02  0.7546771E-02  0.1302300E+00
         21   -1    0    0  501  502  0.00000000000E+00  0.00000000000E+00  0.34540182240E+03  0.34540182240E+03  0.00000000000E+00 0.  1.
         -1   -1    0    0    0  501 -0.00000000000E+00 -0.00000000000E+00 -0.13467432900E+03  0.13467432900E+03  0.00000000000E+00 0.  1.
         23    2    1    2    0    0  0.19072123133E+02  0.36617026100E+02 -0.90347611678E+02  0.12756572285E+03  0.80036055807E+02 0.  0.
         24    2    1    2    0    0  0.36218705025E+02 -0.68298738506E+02  0.13422969655E+03  0.17390976527E+03  0.79059994587E+02 0.  0.
        -13    1    4    4    0    0 -0.23870723048E+02 -0.33228859112E+02  0.53061798906E+02  0.67003902870E+02  0.00000000000E+00 0.  1.
         14    1    4    4    0    0  0.60089428073E+02 -0.35069879394E+02  0.81167897642E+02  0.10690586240E+03  0.00000000000E+00 0. -1.
        -11    1    3    3    0    0  0.28998801721E+02  0.57064195088E+02 -0.49871723643E+02  0.81144572717E+02  0.00000000000E+00 0. -1.
         11    1    3    3    0    0 -0.99266785878E+01 -0.20447168988E+02 -0.40475888035E+02  0.46421150133E+02  0.00000000000E+00 0.  1.
         -2    1    1    2    0  502 -0.55290828158E+02  0.31681712406E+02  0.16684540853E+03  0.17860066329E+03  0.00000000000E+00 0.  1.
<scales pt_clust_5="13000.00000" pt_clust_6="13000.00000" pt_clust_7="13000.00000" pt_clust_8="13000.00000" pt_clust_9="63.72446"></scales>
<clustering>
<clus scale="   63.724">  1  9  2 -1</clus>
<clus scale="   79.060">  5  6 -1 -1</clus>
<clus scale="   80.036">  7  8 -1 -1</clus>
<clus scale="   89.582">  1  5  2 -1</clus>
<clus scale="   63.724">  1  5  2 -1</clus>
</clustering>
</event>
<event>
 9    2  0.5615294E-005  0.9846241E+02  0.7546771E-02  0.1285700E+00
          2   -1    0    0  502    0 -0.00000000000E+00  0.00000000000E+00  0.22460389075E+03  0.22460389075E+03  0.00000000000E+00 0. -1.
         21   -1    0    0  501  502  0.00000000000E+00 -0.00000000000E+00 -0.21214786825E+03  0.21214786825E+03  0.00000000000E+00 0.  1.
         23    2    1    2    0    0  0.11292099599E+02  0.40145497743E+02  0.11869497917E+03  0.15608637280E+03  0.92386607206E+02 0.  0.
         24    2    1    2    0    0  0.61009146215E+02  0.20806958260E+02 -0.14581150750E+03  0.17815363655E+03  0.79515263076E+02 0.  0.
        -13    1    4    4    0    0  0.66580557634E+02  0.45753041571E+01 -0.57201736865E+02  0.87897342186E+02  0.00000000000E+00 0.  1.
         14    1    4    4    0    0 -0.55714114186E+01  0.16231654103E+02 -0.88609770633E+02  0.90256294361E+02  0.00000000000E+00 0. -1.
        -11    1    3    3    0    0  0.51740727986E+02  0.19489138566E+02  0.56269549808E+02  0.78887208660E+02  0.00000000000E+00 0. -1.
         11    1    3    3    0    0 -0.40448628386E+02  0.20656359177E+02  0.62425429360E+02  0.77199164137E+02  0.00000000000E+00 0.  1.
          1    1    1    2  501    0 -0.72301245815E+02 -0.60952456003E+02  0.39572550833E+02  0.10251174966E+03  0.00000000000E+00 0. -1.
<scales pt_clust_5="13000.00000" pt_clust_6="13000.00000" pt_clust_7="13000.00000" pt_clust_8="13000.00000" pt_clust_9="94.56575"></scales>
<clustering>
<clus scale="   79.515">  5  6 -1 -1</clus>
<clus scale="   92.387">  7  8 -1 -1</clus>
<clus scale="   94.566">  2  9  1 -1</clus>
<clus scale="   94.566">  2  5  1 -1</clus>
<clus scale="   94.566">  2  5  1 -1</clus>
</clustering>
</event>
<event>
 9    2  0.5615294E-005  0.1296653E+03  0.7546771E-02  0.1231817E+00
          2   -1    0    0  502    0 -0.00000000000E+00  0.00000000000E+00  0.70521710650E+03  0.70521710650E+03  0.00000000000E+00 0. -1.
         21   -1    0    0  501  502  0.00000000000E+00 -0.00000000000E+00 -0.56025414419E+02  0.56025414419E+02  0.00000000000E+00 0.  1.
         24    2    1    2    0    0 -0.67513121777E+02 -0.40964901520E+02  0.11062172303E+03  0.15878303484E+03  0.82089839689E+02 0.  0.
         23    2    1    2    0    0  0.33910861697E+02  0.10409802988E+03  0.15656584681E+03  0.21381819492E+03  0.96015674369E+02 0.  0.
        -11    1    3    3    0    0 -0.83846373792E+02 -0.18324891550E+02  0.87068953681E+02  0.12225800073E+03  0.00000000000E+00 0.  1.
         12    1    3    3    0    0  0.16333252015E+02 -0.22640009970E+02  0.23552769345E+02  0.36525034109E+02  0.00000000000E+00 0. -1.
        -11    1    4    4    0    0 -0.30462598580E+02  0.13902206617E+02  0.24903334268E+02  0.41730292579E+02  0.00000000000E+00 0.  1.
         11    1    4    4    0    0  0.64373460278E+02  0.90195823267E+02  0.13166251254E+03  0.17208790234E+03  0.00000000000E+00 0. -1.
          1    1    1    2  501    0  0.33602260079E+02 -0.63133128364E+02  0.38200412224E+03  0.38864129115E+03  0.00000000000E+00 0. -1.
<scales pt_clust_5="13000.00000" pt_clust_6="13000.00000" pt_clust_7="13000.00000" pt_clust_8="13000.00000" pt_clust_9="71.51859"></scales>
<clustering>
<clus scale="   71.519">  2  9  1 -1</clus>
<clus scale="   82.090">  5  6 -1 -1</clus>
<clus scale="   96.016">  7  8 -1 -1</clus>
<clus scale="  119.720">  1  5  2 -1</clus>
<clus scale="   71.519">  2  5  1 -1</clus>
</clustering>
</event>
<event>
 9    2  0.5615294E-005  0.1130960E+03  0.7546771E-02  0.1258070E+00
          4   -1    0    0  502    0 -0.00000000000E+00  0.00000000000E+00  0.57976554755E+02  0.57976554755E+02  0.00000000000E+00 0. -1.
         21   -1    0    0  501  502  0.00000000000E+00 -0.00000000000E+00 -0.38704606036E+03  0.38704606036E+03  0.00000000000E+00 0. -1.
         24    2    1    2    0    0  0.71176067229E+02  0.59207925806E+02 -0.71834599438E+02  0.14306221970E+03  0.82066911758E+02 0.  0.
         23    2    1    2    0    0 -0.25131798635E+02 -0.19820746089E+02 -0.13783344030E+03  0.16806441098E+03  0.90681418682E+02 0.  0.
        -11    1    3    3    0    0  0.76701628415E+02  0.15353954999E+02 -0.55618583293E+02  0.95980782155E+02  0.00000000000E+00 0.  1.
         12    1    3    3    0    0 -0.55255611860E+01  0.43853970807E+02 -0.16216016144E+02  0.47081437547E+02  0.00000000000E+00 0. -1.
        -11    1    4    4    0    0 -0.58447131114E+02 -0.15865085952E+02 -0.71286908364E+02  0.93539250541E+02  0.00000000000E+00 0.  1.
         11    1    4    4    0    0  0.33315332479E+02 -0.39556601363E+01 -0.66546531940E+02  0.74525160440E+02  0.00000000000E+00 0. -1.
          3    1    1    2  501    0 -0.46044268594E+02 -0.39387179718E+02 -0.11940146586E+03  0.13389598443E+03  0.00000000000E+00 0. -1.
<scales pt_clust_5="13000.00000" pt_clust_6="13000.00000" pt_clust_7="13000.00000" pt_clust_8="13000.00000" pt_clust_9="60.59228"></scales>
<clustering>
<clus scale="   60.592">  2  9  1 -1</clus>
<clus scale="   82.067">  5  6 -1 -1</clus>
<clus scale="   90.681">  7  8 -1 -1</clus>
<clus scale="  106.314">  1  5  2 -1</clus>
<clus scale="   60.592">  2  5  1 -1</clus>
</clustering>
</event>
<event>
 9    2  0.5615294E-005  0.2574172E+03  0.7546771E-02  0.1109305E+00
         21   -1    0    0  501  502  0.00000000000E+00  0.00000000000E+00  0.74224790750E+02  0.74224790750E+02  0.00000000000E+00 0. -1.
          2   -1    0    0  502    0 -0.00000000000E+00 -0.00000000000E+00 -0.18355112211E+04  0.18355112211E+04  0.00000000000E+00 0. -1.
         24    2    1    2    0    0  0.13624745548E+03  0.22692263986E+03 -0.13517959589E+04  0.13798248006E+04  0.80665434178E+02 0.  0.
         23    2    1    2    0    0 -0.75371602094E+02 -0.13334720081E+03 -0.10911821094E+03  0.20946507349E+03  0.92230573488E+02 0.  0.
        -13    1    3    3    0    0 -0.67189619656E+01  0.40708786033E+02 -0.23885257556E+03  0.24238998033E+03  0.00000000000E+00 0.  1.
         14    1    3    3    0    0  0.14296641745E+03  0.18621385382E+03 -0.11129433833E+04  0.11374348203E+04  0.00000000000E+00 0. -1.
        -11    1    4    4    0    0  0.20400586841E+02 -0.19936478838E+02 -0.29442258707E+02  0.40993825507E+02  0.00000000000E+00 0.  1.
         11    1    4    4    0    0 -0.95772188935E+02 -0.11341072197E+03 -0.79675952235E+02  0.16847124798E+03  0.00000000000E+00 0. -1.
          1    1    1    2  501    0 -0.60875853390E+02 -0.93575439046E+02 -0.30037226049E+03  0.32044613774E+03  0.00000000000E+00 0. -1.
<scales pt_clust_5="13000.00000" pt_clust_6="13000.00000" pt_clust_7="13000.00000" pt_clust_8="13000.00000" pt_clust_9="111.63442"></scales>
<clustering>
<clus scale="   80.665">  5  6 -1 -1</clus>
<clus scale="   92.231">  7  8 -1 -1</clus>
<clus scale="  111.634">  1  9  2 -1</clus>
<clus scale="  253.504">  2  5  1 -1</clus>
<clus scale="  111.634">  1  5  2 -1</clus>
</clustering>
</event>
<event>
 9    2  0.5615294E-005  0.1201361E+03  0.7546771E-02  0.1246115E+00
          2   -1    0    0  502    0 -0.00000000000E+00  0.00000000000E+00  0.21784272484E+03  0.21784272484E+03  0.00000000000E+00 0. -1.
         21   -1    0    0  501  502  0.00000000000E+00 -0.00000000000E+00 -0.11214666499E+03  0.11214666499E+03  0.00000000000E+00 0.  1.
         24    2    1    2    0    0  0.63617709287E+02  0.71090212183E+02  0.12002858078E+03  0.17330593248E+03  0.80790190156E+02 0.  0.
         23    2    1    2    0    0 -0.37859333578E+02 -0.22723288445E+02 -0.10102578308E+02  0.10172214691E+03  0.91080492458E+02 0.  0.
        -11    1    3    3    0    0  0.18091319802E+01  0.22777706500E+02 -0.70940396520E+01  0.23925347866E+02  0.00000000000E+00 0.  1.
         12    1    3    3    0    0  0.61808577306E+02  0.48312505683E+02  0.12712262043E+03  0.14938058461E+03  0.00000000000E+00 0. -1.
        -11    1    4    4    0    0 -0.11034974535E+02 -0.19540100598E+02 -0.49271896938E+02  0.54141536940E+02  0.00000000000E+00 0.  1.
         11    1    4    4    0    0 -0.26824359043E+02 -0.31831878477E+01  0.39169318631E+02  0.47580609968E+02  0.00000000000E+00 0. -1.
          1    1    1    2  501    0 -0.25758375708E+02 -0.48366923738E+02 -0.42299426294E+01  0.54961310443E+02  0.00000000000E+00 0. -1.
<scales pt_clust_5="13000.00000" pt_clust_6="13000.00000" pt_clust_7="13000.00000" pt_clust_8="13000.00000" pt_clust_9="54.79830"></scales>
<clustering>
<clus scale="   54.798">  2  9  1 -1</clus>
<clus scale="   80.790">  5  6 -1 -1</clus>
<clus scale="   91.080">  7  8 -1 -1</clus>
<clus scale="  112.535">  1  5  2 -1</clus>
<clus scale="   54.798">  2  5  1 -1</clus>
</clustering>
</event>
<event>
 9    2  0.5615294E-005  0.9172890E+02  0.7546771E-02  0.1299869E+00
         21   -1    0    0  501  502  0.00000000000E+00  0.00000000000E+00  0.53201216278E+02  0.53201216278E+02  0.00000000000E+00 0. -1.
          2   -1    0    0  502    0 -0.00000000000E+00 -0.00000000000E+00 -0.46456339775E+03  0.46456339775E+03  0.00000000000E+00 0. -1.
         23    2    1    2    0    0  0.25525698872E+02  0.52850778948E+02 -0.17628511539E+03  0.20376492864E+03  0.83659656338E+02 0.  0.
         24    2    1    2    0    0 -0.21334650334E+02  0.27236130712E+02 -0.29543040453E+02  0.93373953255E+02  0.81540969986E+02 0.  0.
        -13    1    4    4    0    0  0.20877667131E-01  0.47589070027E+02 -0.39905446022E+02  0.62106075743E+02  0.00000000000E+00 0.  1.
         14    1    4    4    0    0 -0.21355528001E+02 -0.20352939315E+02  0.10362405569E+02  0.31267877512E+02  0.00000000000E+00 0. -1.
        -13    1    3    3    0    0  0.46944682984E+02  0.58491485158E+02 -0.15853533040E+03  0.17538103684E+03  0.00000000000E+00 0.  1.
         13    1    3    3    0    0 -0.21418984112E+02 -0.56407062097E+01 -0.17749784988E+02  0.28383891806E+02  0.00000000000E+00 0. -1.
          1    1    1    2  501    0 -0.41910485380E+01 -0.80086909660E+02 -0.20553402563E+03  0.22062573213E+03  0.00000000000E+00 0. -1.
<scales pt_clust_5="13000.00000" pt_clust_6="13000.00000" pt_clust_7="13000.00000" pt_clust_8="13000.00000" pt_clust_9="80.19654"></scales>
<clustering>
<clus scale="   80.197">  1  9  2 -1</clus>
<clus scale="   81.541">  5  6 -1 -1</clus>
<clus scale="   83.660">  7  8 -1 -1</clus>
<clus scale="   89.801">  1  5  2 -1</clus>
<clus scale="   80.197">  1  5  2 -1</clus>
</clustering>
</event>
<event>
 9    2  0.5615294E-005  0.1811730E+03  0.7546771E-02  0.1199741E+00
          2   -1    0    0  502    0 -0.00000000000E+00  0.00000000000E+00  0.23076370108E+04  0.23076370108E+04  0.00000000000E+00 0. -1.
         21   -1    0    0  501  502  0.00000000000E+00 -0.00000000000E+00 -0.27540417868E+02  0.27540417868E+02  0.00000000000E+00 0. -1.
         24    2    1    2    0    0 -0.27519642221E+02 -0.33525612749E+01  0.93919540551E+03  0.94316987169E+03  0.81931842143E+02 0.  0.
         23    2    1    2    0    0 -0.86454685518E+02 -0.12655161906E+03  0.42504918729E+03  0.45999353906E+03  0.86241054174E+02 0.  0.
        -11    1    3    3    0    0  0.15350499159E+02  0.13956293371E+02  0.77308106287E+02  0.80043483475E+02  0.00000000000E+00 0.  1.
         12    1    3    3    0    0 -0.42870141379E+02 -0.17308854646E+02  0.86188729923E+03  0.86312638822E+03  0.00000000000E+00 0. -1.
        -11    1    4    4    0    0  0.17800496675E+02 -0.20310880988E+02  0.66471890309E+02  0.71748879919E+02  0.00000000000E+00 0.  1.
         11    1    4    4    0    0 -0.10425518219E+03 -0.10624073807E+03  0.35857729698E+03  0.38824465914E+03  0.00000000000E+00 0. -1.
          1    1    1    2  501    0  0.11397432774E+03  0.12990418034E+03  0.91585200014E+03  0.93201401792E+03  0.00000000000E+00 0. -1.
<scales pt_clust_5="13000.00000" pt_clust_6="13000.00000" pt_clust_7="13000.00000" pt_clust_8="13000.00000" pt_clust_9="159.33030"></scales>
<clustering>
<clus scale="   81.932">  5  6 -1 -1</clus>
<clus scale="   86.241">  7  8 -1 -1</clus>
<clus scale="   86.495">  1  5  2 -1</clus>
<clus scale="  159.330">  2  9  1 -1</clus>
<clus scale="  159.330">  2  5  1 -1</clus>
</clustering>
</event>
<event>
 9    2  0.5615294E-005  0.1043082E+03  0.7546771E-02  0.1275631E+00
         21   -1    0    0  501  502  0.00000000000E+00  0.00000000000E+00  0.29753422321E+03  0.29753422321E+03  0.00000000000E+00 0.  1.
         -3   -1    0    0    0  501 -0.00000000000E+00 -0.00000000000E+00 -0.65977097291E+02  0.65977097291E+02  0.00000000000E+00 0.  1.
         24    2    1    2    0    0 -0.47890560888E+02  0.34598267289E+02  0.14180546096E+02  0.10098168406E+03  0.80657713247E+02 0.  0.
         23    2    1    2    0    0  0.46158280192E+02  0.43450808032E+01  0.11642023225E+03  0.15430870837E+03  0.90044658060E+02 0.  0.
        -11    1    3    3    0    0 -0.30837877009E+02  0.62466100060E+01 -0.31536937052E+02  0.44548548726E+02  0.00000000000E+00 0.  1.
         12    1    3    3    0    0 -0.17052683879E+02  0.28351657283E+02  0.45717483148E+02  0.56433135333E+02  0.00000000000E+00 0. -1.
        -13    1    4    4    0    0 -0.12493570660E+02 -0.27477236677E+02  0.17211065133E+02  0.34746346660E+02  0.00000000000E+00 0. -1.
         13    1    4    4    0    0  0.58651850851E+02  0.31822317480E+02  0.99209167117E+02  0.11956236171E+03  0.00000000000E+00 0.  1.
         -4    1    1    2    0  502  0.17322806964E+01 -0.38943348092E+02  0.10095634757E+03  0.10822092807E+03  0.00000000000E+00 0.  1.
<scales pt_clust_5="13000.00000" pt_clust_6="13000.00000" pt_clust_7="13000.00000" pt_clust_8="13000.00000" pt_clust_9="38.98186"></scales>
<clustering>
<clus scale="   38.982">  1  9  2 -1</clus>
<clus scale="   80.658">  5  6 -1 -1</clus>
<clus scale="   90.045">  7  8 -1 -1</clus>
<clus scale="   96.322">  2  5  1 -1</clus>
<clus scale="   38.982">  1  5  2 -1</clus>
</clustering>
</event>
<event>
 9    2  0.5615294E-005  0.9855812E+02  0.7546771E-02  0.1290902E+00
          2   -1    0    0  502    0 -0.00000000000E+00  0.00000000000E+00  0.82157337055E+03  0.82157337055E+03  0.00000000000E+00 0. -1.
         21   -1    0    0  501  502  0.00000000000E+00 -0.00000000000E+00 -0.23421233008E+02  0.23421233008E+02  0.00000000000E+00 0. -1.
         24    2    1    2    0    0  0.21851578039E+02 -0.44462623643E+01  0.28790165073E+03  0.29876065564E+03  0.76637511403E+02 0.  0.
         23    2    1    2    0    0 -0.81082562541E+02  0.29532492886E+01  0.23558151168E+03  0.26524714304E+03  0.90963149778E+02 0.  0.
        -13    1    3    3    0    0 -0.58990436315E+01 -0.34298038522E+02  0.18177494856E+03  0.18507643310E+03  0.00000000000E+00 0.  1.
         14    1    3    3    0    0  0.27750621671E+02  0.29851776158E+02  0.10612670217E+03  0.11368422254E+03  0.00000000000E+00 0. -1.
        -11    1    4    4    0    0 -0.27292533323E+02 -0.33053864602E+02  0.16045121364E+03  0.16607839203E+03  0.00000000000E+00 0.  1.
         11    1    4    4    0    0 -0.53790029218E+02  0.36007113890E+02  0.75130298034E+02  0.99168751009E+02  0.00000000000E+00 0. -1.
          1    1    1    2  501    0  0.59230984501E+02  0.14930130757E+01  0.27466897514E+03  0.28098680488E+03  0.00000000000E+00 0. -1.
<scales pt_clust_5="13000.00000" pt_clust_6="13000.00000" pt_clust_7="13000.00000" pt_clust_8="13000.00000" pt_clust_9="59.24983"></scales>
<clustering>
<clus scale="   59.250">  2  9  1 -1</clus>
<clus scale="   76.638">  5  6 -1 -1</clus>
<clus scale="   85.514">  1  5  2 -1</clus>
<clus scale="   90.963">  7  8 -1 -1</clus>
<clus scale="   59.250">  2  5  1 -1</clus>
</clustering>
</event>
<event>
 9    2  0.5615294E-005  0.9752905E+02  0.7546771E-02  0.1290595E+00
         21   -1    0    0  501  502  0.00000000000E+00  0.00000000000E+00  0.10800082529E+03  0.10800082529E+03  0.00000000000E+00 0. -1.
          2   -1    0    0  502    0 -0.00000000000E+00 -0.00000000000E+00 -0.21757196443E+03  0.21757196443E+03  0.00000000000E+00 0. -1.
         24    2    1    2    0    0 -0.33687949672E+02 -0.10780200607E+02 -0.66856607110E+02  0.11158611725E+03  0.82040020541E+02 0.  0.
         23    2    1    2    0    0  0.29644241884E+02 -0.67048856015E+02  0.13367011997E+02  0.11797181316E+03  0.91456774055E+02 0.  0.
        -13    1    3    3    0    0  0.11478585609E+02 -0.27130951830E+02 -0.24357107662E+00  0.29460241032E+02  0.00000000000E+00 0.  1.
         14    1    3    3    0    0 -0.45166535281E+02  0.16350751223E+02 -0.66613036033E+02  0.82125876217E+02  0.00000000000E+00 0. -1.
        -11    1    4    4    0    0 -0.33229243889E+02 -0.22679885903E+02  0.58208634726E+01  0.40650243856E+02  0.00000000000E+00 0.  1.
         11    1    4    4    0    0  0.62873485772E+02 -0.44368970112E+02  0.75461485247E+01  0.77321569303E+02  0.00000000000E+00 0. -1.
          1    1    1    2  501    0  0.40437077883E+01  0.77829056622E+02 -0.56081544027E+02  0.96014859307E+02  0.00000000000E+00 0. -1.
<scales pt_clust_5="13000.00000" pt_clust_6="13000.00000" pt_clust_7="13000.00000" pt_clust_8="13000.00000" pt_clust_9="77.93407"></scales>
<clustering>
<clus scale="   77.934">  1  9  2 -1</clus>
<clus scale="   82.040">  5  6 -1 -1</clus>
<clus scale="   88.759">  2  5  1 -1</clus>
<clus scale="   91.457">  7  8 -1 -1</clus>
<clus scale="   77.934">  1  5  2 -1</clus>
</clustering>
</event>
<event>
 9    2  0.5615294E-005  0.1098953E+03  0.7546771E-02  0.1265251E+00
          2   -1    0    0  502    0 -0.00000000000E+00  0.00000000000E+00  0.17311782471E+03  0.17311782471E+03  0.00000000000E+00 0. -1.
         21   -1    0    0  501  502  0.00000000000E+00 -0.00000000000E+00 -0.17953231089E+03  0.17953231089E+03  0.00000000000E+00 0. -1.
         24    2    1    2    0    0  0.56954799676E+02 -0.16074950688E+02  0.38453141861E+02  0.10745221804E+03  0.81025192364E+02 0.  0.
         23    2    1    2    0    0 -0.57660860342E+02 -0.60390655052E+02  0.40254052166E+02  0.13077244914E+03  0.92245534878E+02 0.  0.
        -11    1    3    3    0    0  0.67748543890E+02  0.55123669912E+00  0.42050179730E+01  0.67881155244E+02  0.00000000000E+00 0.  1.
         12    1    3    3    0    0 -0.10793744214E+02 -0.16626187387E+02  0.34248123888E+02  0.39571062799E+02  0.00000000000E+00 0. -1.
        -13    1    4    4    0    0 -0.79179997778E+02 -0.28794063500E+02  0.16766624849E+02  0.85905121208E+02  0.00000000000E+00 0.  1.
         13    1    4    4    0    0  0.21519137436E+02 -0.31596591552E+02  0.23487427317E+02  0.44867327931E+02  0.00000000000E+00 0. -1.
          1    1    1    2  501    0  0.70606066557E+00  0.76465605740E+02 -0.85121680208E+02  0.11442546843E+03  0.00000000000E+00 0. -1.
<scales pt_clust_5="13000.00000" pt_clust_6="13000.00000" pt_clust_7="13000.00000" pt_clust_8="13000.00000" pt_clust_9="76.46887"></scales>
<clustering>
<clus scale="   76.469">  2  9  1 -1</clus>
<clus scale="   81.025">  5  6 -1 -1</clus>
<clus scale="   92.246">  7  8 -1 -1</clus>
<clus scale="  100.662">  1  5  2 -1</clus>
<clus scale="   76.469">  2  5  1 -1</clus>
</clustering>
</event>
<event>
 9    2  0.5615294E-005  0.1111834E+03  0.7546771E-02  0.1262419E+00
          2   -1    0    0  502    0 -0.00000000000E+00  0.00000000000E+00  0.10949943596E+04  0.10949943596E+04  0.00000000000E+00 0. -1.
         21   -1    0    0  501  502  0.00000000000E+00 -0.00000000000E+00 -0.99312922432E+02  0.99312922432E+02  0.00000000000E+00 0.  1.
         24    2    1    2    0    0 -0.19606457547E+02 -0.62073251460E+02  0.10064085302E+04  0.10116632138E+04  0.79792397637E+02 0.  0.
         23    2    1    2    0    0  0.70592200279E+02  0.35913106274E+02  0.12421756991E+02  0.12083979312E+03  0.90415405840E+02 0.  0.
        -13    1    3    3    0    0 -0.33721456707E+02 -0.27539768366E+02  0.21437207039E+03  0.21874862296E+03  0.00000000000E+00 0.  1.
         14    1    3    3    0    0  0.14114999160E+02 -0.34533483094E+02  0.79203645984E+03  0.79291459085E+03  0.00000000000E+00 0. -1.
        -13    1    4    4    0    0  0.33682865742E+02 -0.16420845229E+02  0.36606360329E+02  0.52385162204E+02  0.00000000000E+00 0. -1.
         13    1    4    4    0    0  0.36909334537E+02  0.52333951503E+02 -0.24184603338E+02  0.68454630920E+02  0.00000000000E+00 0.  1.
          1    1    1    2  501    0 -0.50985742732E+02  0.26160145187E+02 -0.23148850078E+02  0.61804275079E+02  0.00000000000E+00 0. -1.
<scales pt_clust_5="13000.00000" pt_clust_6="13000.00000" pt_clust_7="13000.00000" pt_clust_8="13000.00000" pt_clust_9="57.30532"></scales>
<clustering>
<clus scale="   57.305">  2  9  1 -1</clus>
<clus scale="   79.792">  5  6 -1 -1</clus>
<clus scale="   90.415">  7  8 -1 -1</clus>
<clus scale="  102.731">  1  5  2 -1</clus>
<clus scale="   57.305">  2  5  1 -1</clus>
</clustering>
</event>
<event>
 9    2  0.5615294E-005  0.9833830E+02  0.7546771E-02  0.1288370E+00
          2   -1    0    0  502    0 -0.00000000000E+00  0.00000000000E+00  0.12048910961E+03  0.12048910961E+03  0.00000000000E+00 0. -1.
         21   -1    0    0  501  502  0.00000000000E+00 -0.00000000000E+00 -0.14456353183E+03  0.14456353183E+03  0.00000000000E+00 0. -1.
         24    2    1    2    0    0  0.46748124005E+02 -0.32224292022E+02  0.35952810717E+02  0.10403896455E+03  0.79421089467E+02 0.  0.
         23    2    1    2    0    0 -0.23250523100E+02 -0.17557248101E+02 -0.47469802411E+02  0.10455105167E+03  0.88479921336E+02 0.  0.
        -11    1    3    3    0    0 -0.15943882041E+02  0.12454096582E+02  0.36746396033E+01  0.20562462703E+02  0.00000000000E+00 0.  1.
         12    1    3    3    0    0  0.62692006046E+02 -0.44678388603E+02  0.32278171114E+02  0.83476501847E+02  0.00000000000E+00 0. -1.
        -13    1    4    4    0    0 -0.40782528272E+02 -0.38829438651E+02 -0.51961007262E+02  0.76621708372E+02  0.00000000000E+00 0. -1.
         13    1    4    4    0    0  0.17532005172E+02  0.21272190550E+02  0.44912048513E+01  0.27929343300E+02  0.00000000000E+00 0.  1.
          1    1    1    2  501    0 -0.23497600905E+02  0.49781540123E+02 -0.12557430519E+02  0.56462625218E+02  0.00000000000E+00 0. -1.
<scales pt_clust_5="13000.00000" pt_clust_6="13000.00000" pt_clust_7="13000.00000" pt_clust_8="13000.00000" pt_clust_9="55.04851"></scales>
<clustering>
<clus scale="   55.049">  2  9  1 -1</clus>
<clus scale="   79.421">  5  6 -1 -1</clus>
<clus scale="   88.480">  7  8 -1 -1</clus>
<clus scale="   90.274">  1  5  2 -1</clus>
<clus scale="   55.049">  2  5  1 -1</clus>
</clustering>
</event>
<event>
 9    2  0.5615294E-005  0.1727820E+03  0.7546771E-02  0.1176271E+00
         21   -1    0    0  501  502  0.00000000000E+00  0.00000000000E+00  0.31532462975E+02  0.31532462975E+02  0.00000000000E+00 0. -1.
          2   -1    0    0  502    0 -0.00000000000E+00 -0.00000000000E+00 -0.13284062604E+04  0.13284062604E+04  0.00000000000E+00 0. -1.
         23    2    1    2    0    0  0.24029148981E+02 -0.13767171483E+03 -0.58130184694E+03  0.60499091278E+03  0.92581133196E+02 0.  0.
         24    2    1    2    0    0  0.29994639408E+02  0.15475163862E+03 -0.60548963337E+03  0.63113985427E+03  0.82897958214E+02 0.  0.
        -13    1    4    4    0    0 -0.74590864692E+01  0.30546786460E+02 -0.39575366286E+02  0.50546550333E+02  0.00000000000E+00 0.  1.
         14    1    4    4    0    0  0.37453725877E+02  0.12420485216E+03 -0.56591426708E+03  0.58059330393E+03  0.00000000000E+00 0. -1.
        -13    1    3    3    0    0  0.53348433940E+02 -0.71821040490E+02 -0.23935623927E+03  0.25553028497E+03  0.00000000000E+00 0.  1.
         13    1    3    3    0    0 -0.29319284959E+02 -0.65850674342E+02 -0.34194560767E+03  0.34946062781E+03  0.00000000000E+00 0. -1.
          1    1    1    2  501    0 -0.54023788389E+02 -0.17079923790E+02 -0.11008231710E+03  0.12380795631E+03  0.00000000000E+00 0. -1.
<scales pt_clust_5="13000.00000" pt_clust_6="13000.00000" pt_clust_7="13000.00000" pt_clust_8="13000.00000" pt_clust_9="56.65945"></scales>
<clustering>
<clus scale="   56.659">  1  9  2 -1</clus>
<clus scale="   82.898">  5  6 -1 -1</clus>
<clus scale="   92.581">  7  8 -1 -1</clus>
<clus scale="  167.793">  1  5  2 -1</clus>
<clus scale="   56.659">  1  5  2 -1</clus>
</clustering>
</event>
<event>
 9    2  0.5615294E-005  0.1288726E+03  0.7546771E-02  0.1231850E+00
         21   -1    0    0  501  502  0.00000000000E+00  0.00000000000E+00  0.40195718808E+02  0.40195718808E+02  0.00000000000E+00 0. -1.
          2   -1    0    0  502    0 -0.00000000000E+00 -0.00000000000E+00 -0.72028351306E+03  0.72028351306E+03  0.00000000000E+00 0. -1.
         24    2    1    2    0    0  0.44705935688E+02  0.92321887040E+02 -0.25142727117E+03  0.28330952395E+03  0.80787759949E+02 0.  0.
         23    2    1    2    0    0 -0.56766714107E+02 -0.53870817197E+02 -0.13456118126E+03  0.18032232288E+03  0.91021447197E+02 0.  0.
        -11    1    3    3    0    0 -0.17360152828E+02  0.31135174325E+02 -0.34846827809E+02  0.49850530537E+02  0.00000000000E+00 0.  1.
         12    1    3    3    0    0  0.62066088516E+02  0.61186712715E+02 -0.21658044336E+03  0.23345899341E+03  0.00000000000E+00 0. -1.
        -13    1    4    4    0    0 -0.21363607668E+01 -0.32764382654E+02 -0.11338869512E+03  0.11804687623E+03  0.00000000000E+00 0.  1.
         13    1    4    4    0    0 -0.54630353340E+02 -0.21106434543E+02 -0.21172486142E+02  0.62275446643E+02  0.00000000000E+00 0. -1.
          1    1    1    2  501    0  0.12060778419E+02 -0.38451069843E+02 -0.29409934182E+03  0.29684738505E+03  0.00000000000E+00 0. -1.
<scales pt_clust_5="13000.00000" pt_clust_6="13000.00000" pt_clust_7="13000.00000" pt_clust_8="13000.00000" pt_clust_9="40.29825"></scales>
<clustering>
<clus scale="   40.298">  1  9  2 -1</clus>
<clus scale="   80.788">  5  6 -1 -1</clus>
<clus scale="   91.021">  7  8 -1 -1</clus>
<clus scale="  121.860">  2  5  1 -1</clus>
<clus scale="   40.298">  1  5  2 -1</clus>
</clustering>
</event>
<event>
 9    2  0.5615294E-005  0.9528696E+02  0.7546771E-02  0.1294773E+00
         -1   -1    0    0    0  501 -0.00000000000E+00  0.00000000000E+00  0.64129495919E+03  0.64129495919E+03  0.00000000000E+00 0.  1.
         21   -1    0    0  501  502  0.00000000000E+00 -0.00000000000E+00 -0.25364345809E+02  0.25364345809E+02  0.00000000000E+00 0. -1.
         23    2    1    2    0    0 -0.33346152058E+02  0.26957303645E+02  0.22353043760E+03  0.24377858108E+03  0.87312530516E+02 0.  0.
         24    2    1    2    0    0 -0.89700426257E+01 -0.45704328803E+02  0.14896010684E+03  0.17508004100E+03  0.79338263101E+02 0.  0.
        -13    1    4    4    0    0 -0.29983485090E+01 -0.36925597105E+02  0.15728435672E+03  0.16158854750E+03  0.00000000000E+00 0.  1.
         14    1    4    4    0    0 -0.59716941167E+01 -0.87787316982E+01 -0.83242498788E+01  0.13491493501E+02  0.00000000000E+00 0. -1.
        -13    1    3    3    0    0  0.21276677951E+02  0.19625706724E+02  0.14486324745E+03  0.14772686232E+03  0.00000000000E+00 0.  1.
         13    1    3    3    0    0 -0.54622830008E+02  0.73315969202E+01  0.78667190147E+02  0.96051718763E+02  0.00000000000E+00 0. -1.
         -2    1    1    2    0  502  0.42316194683E+02  0.18747025158E+02  0.24344006894E+03  0.24780068291E+03  0.00000000000E+00 0.  1.
<scales pt_clust_5="13000.00000" pt_clust_6="13000.00000" pt_clust_7="13000.00000" pt_clust_8="13000.00000" pt_clust_9="46.28297"></scales>
<clustering>
<clus scale="   46.283">  2  9  1 -1</clus>
<clus scale="   79.338">  5  6 -1 -1</clus>
<clus scale="   87.313">  7  8 -1 -1</clus>
<clus scale="   88.038">  2  5  1 -1</clus>
<clus scale="   46.283">  2  5  1 -1</clus>
</clustering>
</event>
<event>
 9    2  0.5615294E-005  0.9435901E+02  0.7546771E-02  0.1299534E+00
         21   -1    0    0  501  502  0.00000000000E+00  0.00000000000E+00  0.47141097547E+02  0.47141097547E+02  0.00000000000E+00 0.  1.
          4   -1    0    0  502    0 -0.00000000000E+00 -0.00000000000E+00 -0.34791484650E+03  0.34791484650E+03  0.00000000000E+00 0. -1.
         24    2    1    2    0    0 -0.25160544235E+01 -0.23363774329E+02 -0.23403572327E+03  0.24831082469E+03  0.79582343584E+02 0.  0.
         23    2    1    2    0    0  0.31994896827E+02  0.16648872337E+02 -0.61977044046E+02  0.11613860038E+03  0.91357332138E+02 0.  0.
        -13    1    3    3    0    0  0.26720453296E+01  0.21503175505E+02 -0.19755994979E+02  0.29322785008E+02  0.00000000000E+00 0.  1.
         14    1    3    3    0    0 -0.51880997531E+01 -0.44866949834E+02 -0.21427972829E+03  0.21898803968E+03  0.00000000000E+00 0. -1.
        -11    1    4    4    0    0  0.56141929506E+01 -0.30451040048E+02  0.36297640454E+01  0.31176276069E+02  0.00000000000E+00 0.  1.
         11    1    4    4    0    0  0.26380703876E+02  0.47099912385E+02 -0.65606808092E+02  0.84962324307E+02  0.00000000000E+00 0. -1.
          3    1    1    2  501    0 -0.29478842403E+02  0.67149019922E+01 -0.47609816393E+01  0.30606518985E+02  0.00000000000E+00 0. -1.
<scales pt_clust_5="13000.00000" pt_clust_6="13000.00000" pt_clust_7="13000.00000" pt_clust_8="13000.00000" pt_clust_9="30.23396"></scales>
<clustering>
<clus scale="   30.234">  1  9  2 -1</clus>
<clus scale="   79.582">  5  6 -1 -1</clus>
<clus scale="   83.011">  2  5  1 -1</clus>
<clus scale="   91.357">  7  8 -1 -1</clus>
<clus scale="   30.234">  1  5  2 -1</clus>
</clustering>
</event>
<event>
 9    2  0.5615294E-005  0.9956912E+02  0.7546771E-02  0.1290588E+00
          2   -1    0    0  502    0 -0.00000000000E+00  0.00000000000E+00  0.44418004167E+03  0.44418004167E+03  0.00000000000E+00 0. -1.
         21   -1    0    0  501  502  0.00000000000E+00 -0.00000000000E+00 -0.45375786814E+03  0.45375786814E+03  0.00000000000E+00 0. -1.
         24    2    1    2    0    0 -0.20044131787E+02  0.72243895977E+01  0.41835072066E+03  0.42658324782E+03  0.80634873454E+02 0.  0.
         23    2    1    2    0    0  0.35485227377E+02  0.29014193292E+02 -0.12079414350E+03  0.16170453004E+03  0.97242506944E+02 0.  0.
        -13    1    3    3    0    0  0.22771452412E+02 -0.21859089918E+02  0.16751498995E+03  0.17046298928E+03  0.00000000000E+00 0.  1.
         14    1    3    3    0    0 -0.42815584199E+02  0.29083479516E+02  0.25083573071E+03  0.25612025854E+03  0.00000000000E+00 0. -1.
        -11    1    4    4    0    0 -0.25033264606E+02  0.35121367867E+02 -0.71103993902E+02  0.83162207561E+02  0.00000000000E+00 0.  1.
         11    1    4    4    0    0  0.60518491983E+02 -0.61071745744E+01 -0.49690149602E+02  0.78542322481E+02  0.00000000000E+00 0. -1.
          1    1    1    2  501    0 -0.15441095590E+02 -0.36238582890E+02 -0.30713440363E+03  0.30965013195E+03  0.00000000000E+00 0. -1.
<scales pt_clust_5="13000.00000" pt_clust_6="13000.00000" pt_clust_7="13000.00000" pt_clust_8="13000.00000" pt_clust_9="39.39115"></scales>
<clustering>
<clus scale="   39.391">  2  9  1 -1</clus>
<clus scale="   80.635">  5  6 -1 -1</clus>
<clus scale="   83.426">  1  5  2 -1</clus>
<clus scale="   97.243">  7  8 -1 -1</clus>
<clus scale="   39.391">  2  5  1 -1</clus>
</clustering>
</event>
<event>
 9    2  0.5615294E-005  0.1843042E+03  0.7546771E-02  0.1164900E+00
          2   -1    0    0  502    0 -0.00000000000E+00  0.00000000000E+00  0.38571624464E+03  0.38571624464E+03  0.00000000000E+00 0. -1.
         21   -1    0    0  501  502  0.00000000000E+00 -0.00000000000E+00 -0.12828637274E+03  0.12828637274E+03  0.00000000000E+00 0.  1.
         24    2    1    2    0    0  0.15794473911E+03  0.37143229901E+02  0.22232911404E+03  0.28690529681E+03  0.80983049118E+02 0.  0.
         23    2    1    2    0    0 -0.14522530250E+03 -0.58216955279E+02  0.61081158462E+02  0.19130811572E+03  0.91587580231E+02 0.  0.
        -11    1    3    3    0    0  0.45303230285E+02 -0.24604667583E+02  0.48656080533E+02  0.70888549950E+02  0.00000000000E+00 0.  1.
         12    1    3    3    0    0  0.11264150883E+03  0.61747897484E+02  0.17367303351E+03  0.21601674686E+03  0.00000000000E+00 0. -1.
        -11    1    4    4    0    0 -0.51515819541E+02  0.79246334785E+00  0.61935566542E+02  0.80563776376E+02  0.00000000000E+00 0. -1.
         11    1    4    4    0    0 -0.93709482959E+02 -0.59009418626E+02 -0.85440808048E+00  0.11074433934E+03  0.00000000000E+00 0.  1.
          1    1    1    2  501    0 -0.12719436611E+02  0.21073725378E+02 -0.25980400605E+02  0.35789204861E+02  0.00000000000E+00 0. -1.
<scales pt_clust_5="13000.00000" pt_clust_6="13000.00000" pt_clust_7="13000.00000" pt_clust_8="13000.00000" pt_clust_9="24.61475"></scales>
<clustering>
<clus scale="   24.615">  2  9  1 -1</clus>
<clus scale="   80.983">  5  6 -1 -1</clus>
<clus scale="   91.588">  7  8 -1 -1</clus>
<clus scale="  179.271">  1  5  2 -1</clus>
<clus scale="   24.615">  2  5  1 -1</clus>
</clustering>
</event>
<event>
 9    2  0.5615294E-005  0.9305807E+02  0.7546771E-02  0.1302555E+00
          2   -1    0    0  502    0 -0.00000000000E+00  0.00000000000E+00  0.37176393536E+03  0.37176393536E+03  0.00000000000E+00 0. -1.
         21   -1    0    0  501  502  0.00000000000E+00 -0.00000000000E+00 -0.67525230466E+02  0.67525230466E+02  0.00000000000E+00 0.  1.
         24    2    1    2    0    0 -0.16954168732E+02  0.49462845784E+01  0.30568569276E+03  0.31648760354E+03  0.80054674235E+02 0.  0.
         23    2    1    2    0    0  0.16712504259E+02  0.21661663133E+02 -0.65733063831E+01  0.95703215013E+02  0.91473283306E+02 0.  0.
        -11    1    3    3    0    0  0.23895456501E+02  0.20813919736E+02  0.71079998315E+02  0.77824021077E+02  0.00000000000E+00 0.  1.
         12    1    3    3    0    0 -0.40849625233E+02 -0.15867635158E+02  0.23460569445E+03  0.23866358247E+03  0.00000000000E+00 0. -1.
        -11    1    4    4    0    0  0.48756240566E+02  0.34578748820E+02 -0.11299874139E+02  0.60832129830E+02  0.00000000000E+00 0.  1.
         11    1    4    4    0    0 -0.32043736307E+02 -0.12917085686E+02  0.47265677555E+01  0.34871085183E+02  0.00000000000E+00 0. -1.
          1    1    1    2  501    0  0.24166447277E+00 -0.26607947711E+02  0.51263185091E+01  0.27098347267E+02  0.00000000000E+00 0. -1.
<scales pt_clust_5="13000.00000" pt_clust_6="13000.00000" pt_clust_7="13000.00000" pt_clust_8="13000.00000" pt_clust_9="26.60905"></scales>
<clustering>
<clus scale="   26.609">  2  9  1 -1</clus>
<clus scale="   80.055">  5  6 -1 -1</clus>
<clus scale="   81.861">  1  5  2 -1</clus>
<clus scale="   91.473">  7  8 -1 -1</clus>
<clus scale="   26.609">  2  5  1 -1</clus>
</clustering>
</event>
<event>
 9    2  0.5615294E-005  0.2159695E+03  0.7546771E-02  0.1164723E+00
         21   -1    0    0  501  502  0.00000000000E+00  0.00000000000E+00  0.92909001956E+02  0.92909001956E+02  0.00000000000E+00 0. -1.
          2   -1    0    0  502    0 -0.00000000000E+00 -0.00000000000E+00 -0.77781270550E+03  0.77781270550E+03  0.00000000000E+00 0. -1.
         23    2    1    2    0    0 -0.18917984280E+02 -0.68189641373E+02 -0.11599000496E+03  0.16114675956E+03  0.86642250351E+02 0.  0.
         24    2    1    2    0    0  0.18816193261E+03 -0.58945132882E+02 -0.27356597196E+03  0.34620592817E+03  0.78363014990E+02 0.  0.
        -13    1    4    4    0    0  0.71375084041E+02  0.15961100627E+02 -0.85842258101E+02  0.11277434385E+03  0.00000000000E+00 0.  1.
         14    1    4    4    0    0  0.11678684856E+03 -0.74906233509E+02 -0.18772371385E+03  0.23343158432E+03  0.00000000000E+00 0. -1.
        -13    1    3    3    0    0 -0.48026485333E+02 -0.66112968146E+02 -0.94342534161E+02  0.12481178471E+03  0.00000000000E+00 0. -1.
         13    1    3    3    0    0  0.29108501053E+02 -0.20766732273E+01 -0.21647470797E+02  0.36334974847E+02  0.00000000000E+00 0.  1.
          1    1    1    2  501    0 -0.16924394833E+03  0.12713477426E+03 -0.29534772663E+03  0.36336901972E+03  0.00000000000E+00 0. -1.
<scales pt_clust_5="13000.00000" pt_clust_6="13000.00000" pt_clust_7="13000.00000" pt_clust_8="13000.00000" pt_clust_9="201.25133"></scales>
<clustering>
<clus scale="   78.363">  5  6 -1 -1</clus>
<clus scale="   86.642">  7  8 -1 -1</clus>
<clus scale="  111.869">  2  7  1 -1</clus>
<clus scale="  201.251">  1  9  2 -1</clus>
<clus scale="  201.251">  1  5  2 -1</clus>
</clustering>
</event>
<event>
 9    2  0.5615294E-005  0.1031292E+03  0.7546771E-02  0.1280403E+00
         21   -1    0    0  501  502  0.00000000000E+00  0.00000000000E+00  0.28299757941E+03  0.28299757941E+03  0.00000000000E+00 0. -1.
          2   -1    0    0  502    0 -0.00000000000E+00 -0.00000000000E+00 -0.11559394159E+03  0.11559394159E+03  0.00000000000E+00 0. -1.
         24    2    1    2    0    0  0.49671026994E+02  0.29744391924E+02 -0.19593703577E+02  0.97926038492E+02  0.76509189130E+02 0.  0.
         23    2    1    2    0    0 -0.27586023995E+02  0.48510760087E+02  0.19165685624E+03  0.21922024169E+03  0.90613913152E+02 0.  0.
        -11    1    3    3    0    0  0.29408673786E+02 -0.21950002213E+02  0.52990954103E+01  0.37077663130E+02  0.00000000000E+00 0.  1.
         12    1    3    3    0    0  0.20262353207E+02  0.51694394137E+02 -0.24892798988E+02  0.60848375362E+02  0.00000000000E+00 0. -1.
        -11    1    4    4    0    0  0.22915970499E+02  0.68817515435E+01  0.96427156025E+01  0.25796941144E+02  0.00000000000E+00 0.  1.
         11    1    4    4    0    0 -0.50501994494E+02  0.41629008543E+02  0.18201414064E+03  0.19342330054E+03  0.00000000000E+00 0. -1.
          1    1    1    2  501    0 -0.22085002999E+02 -0.78255152011E+02 -0.46595148377E+01  0.81445240820E+02  0.00000000000E+00 0. -1.
<scales pt_clust_5="13000.00000" pt_clust_6="13000.00000" pt_clust_7="13000.00000" pt_clust_8="13000.00000" pt_clust_9="81.31189"></scales>
<clustering>
<clus scale="   76.509">  5  6 -1 -1</clus>
<clus scale="   81.312">  1  9  2 -1</clus>
<clus scale="   90.614">  7  8 -1 -1</clus>
<clus scale="   90.986">  2  5  1 -1</clus>
<clus scale="   81.312">  1  5  2 -1</clus>
</clustering>
</event>
<event>
 9    2  0.5615294E-005  0.1640997E+03  0.7546771E-02  0.1185728E+00
          2   -1    0    0  502    0 -0.00000000000E+00  0.00000000000E+00  0.62894487445E+03  0.62894487445E+03  0.00000000000E+00 0. -1.
         21   -1    0    0  501  502  0.00000000000E+00 -0.00000000000E+00 -0.50057001646E+02  0.50057001646E+02  0.00000000000E+00 0. -1.
         23    2    1    2    0    0 -0.14506244223E+03 -0.28978255101E+01  0.32665064885E+03  0.36892214644E+03  0.91385962852E+02 0.  0.
         24    2    1    2    0    0  0.12473687666E+03  0.24296717479E+02  0.20417167692E+03  0.25367637864E+03  0.80721821986E+02 0.  0.
        -13    1    4    4    0    0  0.52949279099E+02  0.49609549979E+02  0.11964055177E+03  0.13992353352E+03  0.00000000000E+00 0.  1.
         14    1    4    4    0    0  0.71787597564E+02 -0.25312832500E+02  0.84531125153E+02  0.11375284512E+03  0.00000000000E+00 0. -1.
        -13    1    3    3    0    0 -0.52551939619E+01 -0.28607166254E+02  0.63044529149E+02  0.69430538528E+02  0.00000000000E+00 0.  1.
         13    1    3    3    0    0 -0.13980724827E+03  0.25709340744E+02  0.26360611970E+03  0.29949160791E+03  0.00000000000E+00 0. -1.
          1    1    1    2  501    0  0.20325565568E+02 -0.21398891969E+02  0.48065547038E+02  0.56403351011E+02  0.00000000000E+00 0. -1.
<scales pt_clust_5="13000.00000" pt_clust_6="13000.00000" pt_clust_7="13000.00000" pt_clust_8="13000.00000" pt_clust_9="29.51341"></scales>
<clustering>
<clus scale="   29.513">  2  9  1 -1</clus>
<clus scale="   80.722">  5  6 -1 -1</clus>
<clus scale="   91.386">  7  8 -1 -1</clus>
<clus scale="  158.409">  2  5  1 -1</clus>
<clus scale="   29.513">  2  5  1 -1</clus>
</clustering>
</event>
<event>
 9    2  0.5615294E-005  0.2493140E+03  0.7546771E-02  0.1114247E+00
          2   -1    0    0  502    0 -0.00000000000E+00  0.00000000000E+00  0.72372801055E+03  0.72372801055E+03  0.00000000000E+00 0. -1.
         21   -1    0    0  501  502  0.00000000000E+00 -0.00000000000E+00 -0.12484850337E+03  0.12484850337E+03  0.00000000000E+00 0. -1.
         23    2    1    2    0    0  0.23357668318E+03 -0.29929638168E+02  0.49206785211E+03  0.55294513259E+03  0.90353187067E+02 0.  0.
         24    2    1    2    0    0 -0.22580018039E+03 -0.48008516838E+01  0.95330958985E+02  0.25823502719E+03  0.81169993724E+02 0.  0.
        -11    1    4    4    0    0 -0.10494796628E+03 -0.14463135244E+02  0.86335164198E+02  0.13666388874E+03  0.00000000000E+00 0.  1.
         12    1    4    4    0    0 -0.12085221411E+03  0.96622835606E+01  0.89957947874E+01  0.12157113845E+03  0.00000000000E+00 0. -1.
        -11    1    3    3    0    0  0.31419636387E+01 -0.20906922836E+02  0.51507929583E+02  0.55677986385E+02  0.00000000000E+00 0.  1.
         11    1    3    3    0    0  0.23043471954E+03 -0.90227153325E+01  0.44055992253E+03  0.49726714621E+03  0.00000000000E+00 0. -1.
          1    1    1    2  501    0 -0.77765027829E+01  0.34730489852E+02  0.11480696089E+02  0.37396354148E+02  0.00000000000E+00 0. -1.
<scales pt_clust_5="13000.00000" pt_clust_6="13000.00000" pt_clust_7="13000.00000" pt_clust_8="13000.00000" pt_clust_9="35.59046"></scales>
<clustering>
<clus scale="   35.590">  2  9  1 -1</clus>
<clus scale="   81.170">  5  6 -1 -1</clus>
<clus scale="   90.353">  7  8 -1 -1</clus>
<clus scale="  246.135">  2  5  1 -1</clus>
<clus scale="   35.590">  2  5  1 -1</clus>
</clustering>
</event>
<event>
 9    2  0.5615294E-005  0.2115872E+03  0.7546771E-02  0.1172247E+00
          2   -1    0    0  502    0 -0.00000000000E+00  0.00000000000E+00  0.43272359131E+02  0.43272359131E+02  0.00000000000E+00 0. -1.
         21   -1    0    0  501  502  0.00000000000E+00 -0.00000000000E+00 -0.18126815544E+04  0.18126815544E+04  0.00000000000E+00 0. -1.
         24    2    1    2    0    0  0.48492368667E+02 -0.32197473365E+02 -0.14372053490E+03  0.17515029071E+03  0.81448419701E+02 0.  0.
         23    2    1    2    0    0  0.15385591973E+03 -0.16739523187E+02 -0.41463478509E+03  0.45198665180E+03  0.91750055745E+02 0.  0.
        -13    1    3    3    0    0  0.50784774062E+02  0.13673459231E+02 -0.61063702766E+02  0.80590524005E+02  0.00000000000E+00 0.  1.
         14    1    3    3    0    0 -0.22924053951E+01 -0.45870932597E+02 -0.82656832137E+02  0.94559766702E+02  0.00000000000E+00 0. -1.
        -11    1    4    4    0    0  0.88531922673E+02 -0.53950726594E+02 -0.21575098781E+03  0.23936806590E+03  0.00000000000E+00 0.  1.
         11    1    4    4    0    0  0.65323997055E+02  0.37211203408E+02 -0.19888379728E+03  0.21261858590E+03  0.00000000000E+00 0. -1.
          1    1    1    2  501    0 -0.20234828840E+03  0.48936996552E+02 -0.12110538753E+04  0.12288169711E+04  0.00000000000E+00 0. -1.
<scales pt_clust_5="13000.00000" pt_clust_6="13000.00000" pt_clust_7="13000.00000" pt_clust_8="13000.00000" pt_clust_9="190.65960"></scales>
<clustering>
<clus scale="   81.448">  5  6 -1 -1</clus>
<clus scale="   91.750">  7  8 -1 -1</clus>
<clus scale="  100.110">  1  5  2 -1</clus>
<clus scale="  190.660">  2  9  1 -1</clus>
<clus scale="  190.660">  2  5  1 -1</clus>
</clustering>
</event>
<event>
 9    2  0.5615294E-005  0.1116765E+03  0.7546771E-02  0.1262244E+00
         21   -1    0    0  501  502  0.00000000000E+00  0.00000000000E+00  0.38382044280E+02  0.38382044280E+02  0.00000000000E+00 0. -1.
          2   -1    0    0  502    0 -0.00000000000E+00 -0.00000000000E+00 -0.81956332686E+03  0.81956332686E+03  0.00000000000E+00 0. -1.
         24    2    1    2    0    0 -0.24131871812E+02 -0.59133737553E+02 -0.57570367918E+03  0.58441206120E+03  0.77611757552E+02 0.  0.
         23    2    1    2    0    0  0.12320527112E+02  0.81024021997E+02 -0.80482660963E+02  0.14608752518E+03  0.90263053174E+02 0.  0.
        -13    1    3    3    0    0 -0.34968400612E+02 -0.13521619491E+02 -0.10716925690E+03  0.11353797981E+03  0.00000000000E+00 0.  1.
         14    1    3    3    0    0  0.10836528800E+02 -0.45612118062E+02 -0.46853442228E+03  0.47087408140E+03  0.00000000000E+00 0. -1.
        -13    1    4    4    0    0 -0.29079878524E+02 -0.19008680443E+01 -0.16870323203E+02  0.33672844241E+02  0.00000000000E+00 0. -1.
         13    1    4    4    0    0  0.41400405636E+02  0.82924890041E+02 -0.63612337760E+02  0.11241468094E+03  0.00000000000E+00 0.  1.
          1    1    1    2  501    0  0.11811344701E+02 -0.21890284444E+02 -0.12499494244E+03  0.12744578476E+03  0.00000000000E+00 0. -1.
<scales pt_clust_5="13000.00000" pt_clust_6="13000.00000" pt_clust_7="13000.00000" pt_clust_8="13000.00000" pt_clust_9="24.87354"></scales>
<clustering>
<clus scale="   24.874">  1  9  2 -1</clus>
<clus scale="   77.612">  5  6 -1 -1</clus>
<clus scale="   90.263">  7  8 -1 -1</clus>
<clus scale="  101.724">  2  5  1 -1</clus>
<clus scale="   24.874">  1  5  2 -1</clus>
</clustering>
</event>
<event>
 9    2  0.5615294E-005  0.1498716E+03  0.7546771E-02  0.1228523E+00
         21   -1    0    0  501  502  0.00000000000E+00  0.00000000000E+00  0.29893592907E+02  0.29893592907E+02  0.00000000000E+00 0. -1.
          2   -1    0    0  502    0 -0.00000000000E+00 -0.00000000000E+00 -0.10729232347E+04  0.10729232347E+04  0.00000000000E+00 0. -1.
         24    2    1    2    0    0 -0.91108232644E+01  0.14585950217E+02 -0.28282174450E+03  0.29474557836E+03  0.81185341992E+02 0.  0.
         23    2    1    2    0    0  0.13983657598E+02 -0.12673231224E+03 -0.35672919511E+03  0.38926865357E+03  0.89541858184E+02 0.  0.
        -11    1    3    3    0    0  0.29756981490E+02 -0.14863459877E+02 -0.93345578565E+02  0.99094891011E+02  0.00000000000E+00 0.  1.
         12    1    3    3    0    0 -0.38867804754E+02  0.29449410093E+02 -0.18947616594E+03  0.19565068735E+03  0.00000000000E+00 0. -1.
        -11    1    4    4    0    0  0.32247203811E+02 -0.29379746538E+02 -0.19333914953E+03  0.19819959234E+03  0.00000000000E+00 0.  1.
         11    1    4    4    0    0 -0.18263546213E+02 -0.97352565700E+02 -0.16339004557E+03  0.19106906123E+03  0.00000000000E+00 0. -1.
          1    1    1    2  501    0 -0.48728343339E+01  0.11214636202E+03 -0.40347870217E+03  0.41880259566E+03  0.00000000000E+00 0. -1.
<scales pt_clust_5="13000.00000" pt_clust_6="13000.00000" pt_clust_7="13000.00000" pt_clust_8="13000.00000" pt_clust_9="120.18217"></scales>
<clustering>
<clus scale="   81.185">  5  6 -1 -1</clus>
<clus scale="   82.987">  2  5  1 -1</clus>
<clus scale="   89.542">  7  8 -1 -1</clus>
<clus scale="  120.182">  1  9  2 -1</clus>
<clus scale="  120.182">  1  5  2 -1</clus>
</clustering>
</event>
<event>
 9    2  0.5615294E-005  0.9396146E+02  0.7546771E-02  0.1298309E+00
          2   -1    0    0  502    0 -0.00000000000E+00  0.00000000000E+00  0.22047645506E+03  0.22047645506E+03  0.00000000000E+00 0. -1.
         21   -1    0    0  501  502  0.00000000000E+00 -0.00000000000E+00 -0.61024558341E+02  0.61024558341E+02  0.00000000000E+00 0.  1.
         24    2    1    2    0    0  0.19593193366E+02 -0.71122874686E+01  0.11545881415E+03  0.14345520325E+03  0.82548044879E+02 0.  0.
         23    2    1    2    0    0 -0.14125784170E+02  0.37205086458E+02  0.41054474993E+02  0.10731952615E+03  0.90819901667E+02 0.  0.
        -13    1    3    3    0    0  0.44727472545E+02 -0.20153215218E+02  0.99536794613E+02  0.11096969120E+03  0.00000000000E+00 0.  1.
         14    1    3    3    0    0 -0.25134279179E+02  0.13040927750E+02  0.15922019540E+02  0.32485512042E+02  0.00000000000E+00 0. -1.
        -11    1    4    4    0    0 -0.40980561137E+02  0.53622054112E+02  0.31081417568E+02  0.74301989182E+02  0.00000000000E+00 0. -1.
         11    1    4    4    0    0  0.26854776967E+02 -0.16416967654E+02  0.99730574247E+01  0.33017536966E+02  0.00000000000E+00 0.  1.
          1    1    1    2  501    0 -0.54674091957E+01 -0.30092798990E+02  0.29386075715E+01  0.30726284006E+02  0.00000000000E+00 0. -1.
<scales pt_clust_5="13000.00000" pt_clust_6="13000.00000" pt_clust_7="13000.00000" pt_clust_8="13000.00000" pt_clust_9="30.58544"></scales>
<clustering>
<clus scale="   30.585">  2  9  1 -1</clus>
<clus scale="   82.548">  5  6 -1 -1</clus>
<clus scale="   85.992">  1  5  2 -1</clus>
<clus scale="   90.820">  7  8 -1 -1</clus>
<clus scale="   30.585">  2  5  1 -1</clus>
</clustering>
</event>
<event>
 9    2  0.5615294E-005  0.2449082E+03  0.7546771E-02  0.1152336E+00
         21   -1    0    0  501  502  0.00000000000E+00  0.00000000000E+00  0.15646925076E+03  0.15646925076E+03  0.00000000000E+00 0. -1.
          2   -1    0    0  502    0 -0.00000000000E+00 -0.00000000000E+00 -0.88084392009E+03  0.88084392009E+03  0.00000000000E+00 0. -1.
         24    2    1    2    0    0 -0.61889587882E+02 -0.18271503963E+02 -0.14478209492E+02  0.10345039362E+03  0.79549961944E+02 0.  0.
         23    2    1    2    0    0 -0.30615617685E+02  0.22721038756E+03 -0.65347112963E+03  0.69849819190E+03  0.91177467420E+02 0.  0.
        -11    1    3    3    0    0 -0.29095105212E+02  0.75013387718E+01  0.30010735794E+02  0.42466922346E+02  0.00000000000E+00 0.  1.
         12    1    3    3    0    0 -0.32794482669E+02 -0.25772842735E+02 -0.44488945286E+02  0.60983471276E+02  0.00000000000E+00 0. -1.
        -13    1    4    4    0    0 -0.29493228274E+02  0.17195538706E+03 -0.58524366227E+03  0.61069521849E+03  0.00000000000E+00 0.  1.
         13    1    4    4    0    0 -0.11223894112E+01  0.55255000496E+02 -0.68227467358E+02  0.87802973412E+02  0.00000000000E+00 0. -1.
          1    1    1    2  501    0  0.92505205566E+02 -0.20893888360E+03 -0.56425330207E+02  0.23536458532E+03  0.00000000000E+00 0. -1.
<scales pt_clust_5="13000.00000" pt_clust_6="13000.00000" pt_clust_7="13000.00000" pt_clust_8="13000.00000" pt_clust_9="227.30306"></scales>
<clustering>
<clus scale="   79.550">  5  6 -1 -1</clus>
<clus scale="   91.177">  7  8 -1 -1</clus>
<clus scale="  102.432">  2  5  1 -1</clus>
<clus scale="  227.303">  1  9  2 -1</clus>
<clus scale="  227.303">  1  5  2 -1</clus>
</clustering>
</event>
<event>
 9    2  0.5615294E-005  0.9957553E+02  0.7546771E-02  0.1286559E+00
          2   -1    0    0  502    0 -0.00000000000E+00  0.00000000000E+00  0.89194717848E+03  0.89194717848E+03  0.00000000000E+00 0. -1.
         21   -1    0    0  501  502  0.00000000000E+00 -0.00000000000E+00 -0.29292956543E+02  0.29292956543E+02  0.00000000000E+00 0. -1.
         24    2    1    2    0    0  0.12629099426E+02 -0.54475710229E+02  0.54674523207E+03  0.55548490065E+03  0.80659958467E+02 0.  0.
         23    2    1    2    0    0  0.38640376218E+02  0.79258008078E+01  0.25438956524E+03  0.27312644400E+03  0.91258459957E+02 0.  0.
        -13    1    3    3    0    0 -0.23720897890E+02  0.24907178888E+01  0.69491350559E+02  0.73470623210E+02  0.00000000000E+00 0.  1.
         14    1    3    3    0    0  0.36349997317E+02 -0.56966428118E+02  0.47725388152E+03  0.48201427744E+03  0.00000000000E+00 0. -1.
        -11    1    4    4    0    0  0.24374405525E+02  0.44207084044E+02  0.81275887572E+02  0.95677310921E+02  0.00000000000E+00 0.  1.
         11    1    4    4    0    0  0.14265970694E+02 -0.36281283237E+02  0.17311367767E+03  0.17744913308E+03  0.00000000000E+00 0. -1.
          1    1    1    2  501    0 -0.51269475645E+02  0.46549909421E+02  0.61519424618E+02  0.92628790370E+02  0.00000000000E+00 0. -1.
<scales pt_clust_5="13000.00000" pt_clust_6="13000.00000" pt_clust_7="13000.00000" pt_clust_8="13000.00000" pt_clust_9="69.24921"></scales>
<clustering>
<clus scale="   69.249">  2  9  1 -1</clus>
<clus scale="   80.660">  5  6 -1 -1</clus>
<clus scale="   89.962">  1  5  2 -1</clus>
<clus scale="   91.258">  7  8 -1 -1</clus>
<clus scale="   69.249">  2  5  1 -1</clus>
</clustering>
</event>
<event>
 9    2  0.5615294E-005  0.9403547E+02  0.7546771E-02  0.1300142E+00
         21   -1    0    0  501  502  0.00000000000E+00  0.00000000000E+00  0.10505547954E+03  0.10505547954E+03  0.00000000000E+00 0.  1.
          2   -1    0    0  502    0 -0.00000000000E+00 -0.00000000000E+00 -0.72915485963E+03  0.72915485963E+03  0.00000000000E+00 0. -1.
         24    2    1    2    0    0 -0.12319003701E+02  0.16159810097E+02 -0.62044943337E+03  0.62593545793E+03  0.80154855136E+02 0.  0.
         23    2    1    2    0    0  0.19937466256E+02 -0.54689473975E+02  0.66929013180E+02  0.12750381246E+03  0.91593057943E+02 0.  0.
        -11    1    3    3    0    0 -0.24408890462E+02 -0.21991841401E+02 -0.13919846054E+03  0.14302323741E+03  0.00000000000E+00 0.  1.
         12    1    3    3    0    0  0.12089886761E+02  0.38151651498E+02 -0.48125097283E+03  0.48291222051E+03  0.00000000000E+00 0. -1.
        -13    1    4    4    0    0  0.20185534562E+00 -0.21654360943E+02  0.83016932694E+02  0.85794890334E+02  0.00000000000E+00 0.  1.
         13    1    4    4    0    0  0.19735610910E+02 -0.33035113032E+02 -0.16087919514E+02  0.41708922131E+02  0.00000000000E+00 0. -1.
          1    1    1    2  501    0 -0.76184625547E+01  0.38529663878E+02 -0.70578959901E+02  0.80771068775E+02  0.00000000000E+00 0. -1.
<scales pt_clust_5="13000.00000" pt_clust_6="13000.00000" pt_clust_7="13000.00000" pt_clust_8="13000.00000" pt_clust_9="39.27566"></scales>
<clustering>
<clus scale="   39.276">  1  9  2 -1</clus>
<clus scale="   80.155">  5  6 -1 -1</clus>
<clus scale="   82.935">  2  5  1 -1</clus>
<clus scale="   91.593">  7  8 -1 -1</clus>
<clus scale="   39.276">  1  5  2 -1</clus>
</clustering>
</event>
<event>
 9    2  0.5615294E-005  0.1936141E+03  0.7546771E-02  0.1182147E+00
          2   -1    0    0  502    0 -0.00000000000E+00  0.00000000000E+00  0.13302156739E+04  0.13302156739E+04  0.00000000000E+00 0. -1.
         21   -1    0    0  501  502  0.00000000000E+00 -0.00000000000E+00 -0.66124686032E+02  0.66124686032E+02  0.00000000000E+00 0.  1.
         23    2    1    2    0    0  0.48295542483E+02 -0.13567089541E+02  0.57326054862E+03  0.58270307606E+03  0.91644382874E+02 0.  0.
         24    2    1    2    0    0 -0.11131043575E+03 -0.14102046310E+03  0.15193693496E+03  0.24947915251E+03  0.82935102435E+02 0.  0.
        -13    1    4    4    0    0 -0.12239719299E+03 -0.11179015842E+03  0.11892005873E+03  0.20401003098E+03  0.00000000000E+00 0.  1.
         14    1    4    4    0    0  0.11086757237E+02 -0.29230304682E+02  0.33016876227E+02  0.45469121540E+02  0.00000000000E+00 0. -1.
        -11    1    3    3    0    0  0.74800902216E+02 -0.37306794439E+00  0.40117927860E+03  0.40809328312E+03  0.00000000000E+00 0.  1.
         11    1    3    3    0    0 -0.26505359734E+02 -0.13194021597E+02  0.17208127002E+03  0.17460979294E+03  0.00000000000E+00 0. -1.
          1    1    1    2  501    0  0.63014893268E+02  0.15458755264E+03  0.53889350434E+03  0.56415813140E+03  0.00000000000E+00 0. -1.
<scales pt_clust_5="13000.00000" pt_clust_6="13000.00000" pt_clust_7="13000.00000" pt_clust_8="13000.00000" pt_clust_9="174.95209"></scales>
<clustering>
<clus scale="   82.935">  5  6 -1 -1</clus>
<clus scale="   91.644">  7  8 -1 -1</clus>
<clus scale="  104.476">  1  7  2 -1</clus>
<clus scale="  174.952">  2  9  1 -1</clus>
<clus scale="  174.952">  2  5  1 -1</clus>
</clustering>
</event>
<event>
 9    2  0.5615294E-005  0.2532100E+03  0.7546771E-02  0.1156536E+00
          2   -1    0    0  502    0 -0.00000000000E+00  0.00000000000E+00  0.22257020221E+04  0.22257020221E+04  0.00000000000E+00 0. -1.
         21   -1    0    0  501  502  0.00000000000E+00 -0.00000000000E+00 -0.39760817154E+02  0.39760817154E+02  0.00000000000E+00 0. -1.
         24    2    1    2    0    0  0.12981018777E+02 -0.24797283334E+02  0.18398575989E+03  0.20224165575E+03  0.79167640928E+02 0.  0.
         23    2    1    2    0    0  0.22811550957E+03 -0.27929074603E+02  0.84732006912E+03  0.88250510579E+03  0.89706428383E+02 0.  0.
        -13    1    3    3    0    0  0.29296231345E+02  0.36131844398E+01  0.15713193814E+03  0.15988048742E+03  0.00000000000E+00 0.  1.
         14    1    3    3    0    0 -0.16315212568E+02 -0.28410467774E+02  0.26853821751E+02  0.42361168337E+02  0.00000000000E+00 0. -1.
        -13    1    4    4    0    0  0.12142268808E+03 -0.55296186784E+02  0.53296644805E+03  0.54941275213E+03  0.00000000000E+00 0.  1.
         13    1    4    4    0    0  0.10669282150E+03  0.27367112182E+02  0.31435362108E+03  0.33309235367E+03  0.00000000000E+00 0. -1.
          1    1    1    2  501    0 -0.24109652835E+03  0.52726357937E+02  0.11546353759E+04  0.11807160777E+04  0.00000000000E+00 0. -1.
<scales pt_clust_5="13000.00000" pt_clust_6="13000.00000" pt_clust_7="13000.00000" pt_clust_8="13000.00000" pt_clust_9="236.78708"></scales>
<clustering>
<clus scale="   79.168">  5  6 -1 -1</clus>
<clus scale="   83.970">  1  5  2 -1</clus>
<clus scale="   89.706">  7  8 -1 -1</clus>
<clus scale="  236.787">  2  9  1 -1</clus>
<clus scale="  236.787">  2  5  1 -1</clus>
</clustering>
</event>
<event>
 9    2  0.5615294E-005  0.1135916E+03  0.7546771E-02  0.1258420E+00
          2   -1    0    0  502    0 -0.00000000000E+00  0.00000000000E+00  0.96292144743E+03  0.96292144743E+03  0.00000000000E+00 0. -1.
         21   -1    0    0  501  502  0.00000000000E+00 -0.00000000000E+00 -0.11452346080E+03  0.11452346080E+03  0.00000000000E+00 0. -1.
         24    2    1    2    0    0  0.32854332912E+02 -0.66449866544E+02  0.72127902379E+03  0.72941856240E+03  0.79454496806E+02 0.  0.
         23    2    1    2    0    0  0.62016302376E+02  0.61241364023E+02  0.19424066586E+03  0.23169540000E+03  0.91415511139E+02 0.  0.
        -13    1    3    3    0    0  0.57059212881E+02 -0.44820590852E+02  0.40217897479E+03  0.40867171042E+03  0.00000000000E+00 0.  1.
         14    1    3    3    0    0 -0.24204879968E+02 -0.21629275691E+02  0.31910004900E+03  0.32074685198E+03  0.00000000000E+00 0. -1.
        -13    1    4    4    0    0 -0.14903605309E+02  0.15317898985E+02  0.44593046065E+01  0.21832106589E+02  0.00000000000E+00 0.  1.
         13    1    4    4    0    0  0.76919907686E+02  0.45923465038E+02  0.18978136126E+03  0.20986329341E+03  0.00000000000E+00 0. -1.
          1    1    1    2  501    0 -0.94870635289E+02  0.52085025206E+01 -0.67121703028E+02  0.11633094582E+03  0.00000000000E+00 0. -1.
<scales pt_clust_5="13000.00000" pt_clust_6="13000.00000" pt_clust_7="13000.00000" pt_clust_8="13000.00000" pt_clust_9="95.01350"></scales>
<clustering>
<clus scale="   79.454">  5  6 -1 -1</clus>
<clus scale="   91.416">  7  8 -1 -1</clus>
<clus scale="   95.014">  2  9  1 -1</clus>
<clus scale="  104.208">  1  5  2 -1</clus>
<clus scale="   95.014">  2  5  1 -1</clus>
</clustering>
</event>
<event>
 9    2  0.5615294E-005  0.3518811E+03  0.7546771E-02  0.1080606E+00
          2   -1    0    0  502    0 -0.00000000000E+00  0.00000000000E+00  0.17730148680E+04  0.17730148680E+04  0.00000000000E+00 0. -1.
         21   -1    0    0  501  502  0.00000000000E+00 -0.00000000000E+00 -0.13797184486E+03  0.13797184486E+03  0.00000000000E+00 0. -1.
         24    2    1    2    0    0  0.16849009257E+03 -0.97085290801E+02  0.68959798144E+03  0.72100532545E+03  0.80553326039E+02 0.  0.
         23    2    1    2    0    0  0.71863888540E+02  0.35437519626E+03  0.50881612846E+03  0.62907770622E+03  0.78094235941E+02 0.  0.
        -13    1    3    3    0    0  0.39680550160E+02 -0.48725395426E+02  0.12527747682E+03  0.14015404532E+03  0.00000000000E+00 0.  1.
         14    1    3    3    0    0  0.12880954241E+03 -0.48359895375E+02  0.56432050462E+03  0.58085128013E+03  0.00000000000E+00 0. -1.
        -13    1    4    4    0    0  0.21491035982E+02  0.21281919605E+03  0.35202261066E+03  0.41191478882E+03  0.00000000000E+00 0.  1.
         13    1    4    4    0    0  0.50372852558E+02  0.14155600021E+03  0.15679351780E+03  0.21716291740E+03  0.00000000000E+00 0. -1.
          1    1    1    2  501    0 -0.24035398111E+03 -0.25728990546E+03  0.43662891326E+03  0.56090368120E+03  0.00000000000E+00 0. -1.
<scales pt_clust_5="13000.00000" pt_clust_6="13000.00000" pt_clust_7="13000.00000" pt_clust_8="13000.00000" pt_clust_9="343.10586"></scales>
<clustering>
<clus scale="   78.094">  7  8 -1 -1</clus>
<clus scale="   80.553">  5  6 -1 -1</clus>
<clus scale="  210.483">  1  5  2 -1</clus>
<clus scale="  343.106">  2  9  1 -1</clus>
<clus scale="  343.106">  2  5  1 -1</clus>
</clustering>
</event>
<event>
 9    2  0.5615294E-005  0.1027434E+03  0.7546771E-02  0.1283603E+00
         21   -1    0    0  501  502  0.00000000000E+00  0.00000000000E+00  0.17671428638E+03  0.17671428638E+03  0.00000000000E+00 0.  1.
         -3   -1    0    0    0  501 -0.00000000000E+00 -0.00000000000E+00 -0.21727633298E+03  0.21727633298E+03  0.00000000000E+00 0.  1.
         24    2    1    2    0    0 -0.17597054291E+02 -0.24315999820E+02 -0.15301067619E+03  0.17525812081E+03  0.80013859525E+02 0.  0.
         23    2    1    2    0    0  0.36625381818E+02  0.33743978971E+02  0.51918160079E+01  0.10939363036E+03  0.97262205913E+02 0.  0.
        -11    1    3    3    0    0 -0.39486083322E+02 -0.38609453321E+02 -0.12648264246E+03  0.13801340336E+03  0.00000000000E+00 0.  1.
         12    1    3    3    0    0  0.21889029031E+02  0.14293453502E+02 -0.26528033724E+02  0.37244717453E+02  0.00000000000E+00 0. -1.
        -13    1    4    4    0    0  0.17660122019E+02 -0.16743417320E+02  0.38834008758E+02  0.45829053770E+02  0.00000000000E+00 0. -1.
         13    1    4    4    0    0  0.18965259799E+02  0.50487396291E+02 -0.33642192750E+02  0.63564576586E+02  0.00000000000E+00 0.  1.
         -4    1    1    2    0  502 -0.19028327527E+02 -0.94279791515E+01  0.10725681358E+03  0.10933886820E+03  0.00000000000E+00 0.  1.
<scales pt_clust_5="13000.00000" pt_clust_6="13000.00000" pt_clust_7="13000.00000" pt_clust_8="13000.00000" pt_clust_9="21.23591"></scales>
<clustering>
<clus scale="   21.236">  1  9  2 -1</clus>
<clus scale="   80.014">  5  6 -1 -1</clus>
<clus scale="   86.594">  2  5  1 -1</clus>
<clus scale="   97.262">  7  8 -1 -1</clus>
<clus scale="   21.236">  1  5  2 -1</clus>
</clustering>
</event>
<event>
 9    2  0.5615294E-005  0.3383500E+03  0.7546771E-02  0.1121306E+00
          2   -1    0    0  502    0 -0.00000000000E+00  0.00000000000E+00  0.46050225100E+03  0.46050225100E+03  0.00000000000E+00 0. -1.
         21   -1    0    0  501  502  0.00000000000E+00 -0.00000000000E+00 -0.66455544116E+03  0.66455544116E+03  0.00000000000E+00 0. -1.
         24    2    1    2    0    0  0.14315152618E+02  0.94850288860E+01  0.16317278449E+03  0.18283206763E+03  0.80667948943E+02 0.  0.
         23    2    1    2    0    0  0.15578192674E+03  0.26481493208E+03  0.12861484393E+03  0.35059093796E+03  0.10944071797E+03 0.  0.
        -11    1    3    3    0    0  0.12800227294E+02  0.40417682876E+02  0.13300113177E+03  0.13959489948E+03  0.00000000000E+00 0.  1.
         12    1    3    3    0    0  0.15149253241E+01 -0.30932653990E+02  0.30171652718E+02  0.43237168147E+02  0.00000000000E+00 0. -1.
        -11    1    4    4    0    0  0.16396567356E+03  0.19797144926E+03  0.11626268979E+03  0.28212488345E+03  0.00000000000E+00 0. -1.
         11    1    4    4    0    0 -0.81837468192E+01  0.66843482819E+02  0.12352154136E+02  0.68466054503E+02  0.00000000000E+00 0.  1.
          1    1    1    2  501    0 -0.17009707936E+03 -0.27429996096E+03 -0.49584081858E+03  0.59163468657E+03  0.00000000000E+00 0. -1.
<scales pt_clust_5="13000.00000" pt_clust_6="13000.00000" pt_clust_7="13000.00000" pt_clust_8="13000.00000" pt_clust_9="320.16161"></scales>
<clustering>
<clus scale="   80.668">  5  6 -1 -1</clus>
<clus scale="   82.475">  1  5  2 -1</clus>
<clus scale="  109.441">  7  8 -1 -1</clus>
<clus scale="  320.162">  2  9  1 -1</clus>
<clus scale="  320.162">  2  5  1 -1</clus>
</clustering>
</event>
<event>
 9    2  0.5615294E-005  0.1333794E+03  0.7546771E-02  0.1240914E+00
         21   -1    0    0  501  502  0.00000000000E+00  0.00000000000E+00  0.42262343067E+02  0.42262343067E+02  0.00000000000E+00 0. -1.
          2   -1    0    0  502    0 -0.00000000000E+00 -0.00000000000E+00 -0.95601986580E+03  0.95601986580E+03  0.00000000000E+00 0. -1.
         24    2    1    2    0    0  0.27559718034E+01  0.42162508738E+02 -0.55832643708E+03  0.56574805844E+03  0.80976433426E+02 0.  0.
         23    2    1    2    0    0 -0.93162592346E+02  0.77015488774E+00 -0.27325514724E+03  0.30303721804E+03  0.92104930755E+02 0.  0.
        -13    1    3    3    0    0  0.75761097421E+01 -0.23637881515E+02 -0.12674967729E+03  0.12915737522E+03  0.00000000000E+00 0.  1.
         14    1    3    3    0    0 -0.48201379387E+01  0.65800390253E+02 -0.43157675978E+03  0.43659068322E+03  0.00000000000E+00 0. -1.
        -11    1    4    4    0    0 -0.72377171500E+02  0.38887995734E+02 -0.21659592767E+03  0.23165605335E+03  0.00000000000E+00 0. -1.
         11    1    4    4    0    0 -0.20785420847E+02 -0.38117840846E+02 -0.56659219569E+02  0.71381164691E+02  0.00000000000E+00 0.  1.
          1    1    1    2  501    0  0.90406620543E+02 -0.42932663625E+02 -0.82175938419E+02  0.12949693239E+03  0.00000000000E+00 0. -1.
<scales pt_clust_5="13000.00000" pt_clust_6="13000.00000" pt_clust_7="13000.00000" pt_clust_8="13000.00000" pt_clust_9="96.47143"></scales>
<clustering>
<clus scale="   80.976">  5  6 -1 -1</clus>
<clus scale="   91.337">  2  5  1 -1</clus>
<clus scale="   92.105">  7  8 -1 -1</clus>
<clus scale="   96.471">  1  9  2 -1</clus>
<clus scale="   96.471">  1  5  2 -1</clus>
</clustering>
</event>
<event>
 9    2  0.5615294E-005  0.1488189E+03  0.7546771E-02  0.1223724E+00
         21   -1    0    0  501  502  0.00000000000E+00  0.00000000000E+00  0.15337902032E+03  0.15337902032E+03  0.00000000000E+00 0. -1.
         -1   -1    0    0    0  501 -0.00000000000E+00 -0.00000000000E+00 -0.34259739797E+03  0.34259739797E+03  0.00000000000E+00 0.  1.
         23    2    1    2    0    0  0.11907017307E+02  0.12383635493E+02 -0.90314759498E+02  0.13010480428E+03  0.92061788086E+02 0.  0.
         24    2    1    2    0    0  0.78747689332E+02  0.92945661012E+02  0.57471958025E+02  0.15666870446E+03  0.80012264820E+02 0.  0.
        -11    1    4    4    0    0  0.55107957211E+02  0.60615285983E+02 -0.54269524632E+01  0.82100862698E+02  0.00000000000E+00 0.  1.
         12    1    4    4    0    0  0.23639732120E+02  0.32330375029E+02  0.62898910488E+02  0.74567841761E+02  0.00000000000E+00 0. -1.
        -13    1    3    3    0    0 -0.32070203410E+02 -0.15028451520E+02 -0.14496191356E+02  0.38268679957E+02  0.00000000000E+00 0.  1.
         13    1    3    3    0    0  0.43977220717E+02  0.27412087013E+02 -0.75818568142E+02  0.91836124327E+02  0.00000000000E+00 0. -1.
         -2    1    1    2    0  502 -0.90654706638E+02 -0.10532929650E+03 -0.15637557617E+03  0.20920290954E+03  0.00000000000E+00 0.  1.
<scales pt_clust_5="13000.00000" pt_clust_6="13000.00000" pt_clust_7="13000.00000" pt_clust_8="13000.00000" pt_clust_9="125.47954"></scales>
<clustering>
<clus scale="   80.012">  5  6 -1 -1</clus>
<clus scale="   92.062">  7  8 -1 -1</clus>
<clus scale="   93.651">  2  7  1 -1</clus>
<clus scale="  125.480">  1  9  2 -1</clus>
<clus scale="  125.480">  1  5  2 -1</clus>
</clustering>
</event>
<event>
 9    2  0.5615294E-005  0.1232129E+03  0.7546771E-02  0.1251587E+00
         21   -1    0    0  501  502  0.00000000000E+00  0.00000000000E+00  0.30763004073E+02  0.30763004073E+02  0.00000000000E+00 0.  1.
          2   -1    0    0  502    0 -0.00000000000E+00 -0.00000000000E+00 -0.60131536719E+03  0.60131536719E+03  0.00000000000E+00 0. -1.
         24    2    1    2    0    0 -0.41443499268E+02 -0.39322165230E+02 -0.30141126686E+03  0.31727756759E+03  0.80947555850E+02 0.  0.
         23    2    1    2    0    0 -0.27299185224E+00  0.35731964955E+02 -0.21913383148E+03  0.24957901513E+03  0.11398772238E+03 0.  0.
        -13    1    3    3    0    0 -0.48215882013E+02  0.82281341840E+01 -0.18476744403E+03  0.19113210574E+03  0.00000000000E+00 0.  1.
         14    1    3    3    0    0  0.67723827450E+01 -0.47550299414E+02 -0.11664382283E+03  0.12614546185E+03  0.00000000000E+00 0. -1.
        -11    1    4    4    0    0 -0.42095737333E+02  0.57664851021E+02 -0.14602307467E+03  0.16254237749E+03  0.00000000000E+00 0.  1.
         11    1    4    4    0    0  0.41822745481E+02 -0.21932886066E+02 -0.73110756804E+02  0.87036637637E+02  0.00000000000E+00 0. -1.
          1    1    1    2  501    0  0.41716491121E+02  0.35902002743E+01 -0.50007264786E+02  0.65221788543E+02  0.00000000000E+00 0. -1.
<scales pt_clust_5="13000.00000" pt_clust_6="13000.00000" pt_clust_7="13000.00000" pt_clust_8="13000.00000" pt_clust_9="41.87070"></scales>
<clustering>
<clus scale="   41.871">  1  9  2 -1</clus>
<clus scale="   80.948">  5  6 -1 -1</clus>
<clus scale="   93.492">  2  5  1 -1</clus>
<clus scale="  113.988">  7  8 -1 -1</clus>
<clus scale="   41.871">  1  5  2 -1</clus>
</clustering>
</event>
<event>
 9    2  0.5615294E-005  0.9678864E+02  0.7546771E-02  0.1290597E+00
         -1   -1    0    0    0  501 -0.00000000000E+00  0.00000000000E+00  0.10093330728E+03  0.10093330728E+03  0.00000000000E+00 0.  1.
         21   -1    0    0  501  502  0.00000000000E+00 -0.00000000000E+00 -0.40813917850E+03  0.40813917850E+03  0.00000000000E+00 0. -1.
         24    2    1    2    0    0  0.27401022079E+02 -0.30368005538E+02  0.62989986021E+02  0.10967495838E+03  0.79923878691E+02 0.  0.
         23    2    1    2    0    0 -0.31078051976E+02  0.57426876619E+02 -0.20485701434E+03  0.23181878165E+03  0.86659446858E+02 0.  0.
        -11    1    3    3    0    0  0.50250787927E+02 -0.16318794363E+02  0.63803605714E+02  0.82839271115E+02  0.00000000000E+00 0.  1.
         12    1    3    3    0    0 -0.22849765848E+02 -0.14049211175E+02 -0.81361969243E+00  0.26835687264E+02  0.00000000000E+00 0. -1.
        -13    1    4    4    0    0  0.18060526142E+02 -0.10403659700E+02 -0.70277252001E+02  0.73302870943E+02  0.00000000000E+00 0.  1.
         13    1    4    4    0    0 -0.49138578118E+02  0.67830536319E+02 -0.13457976234E+03  0.15851591071E+03  0.00000000000E+00 0. -1.
         -2    1    1    2    0  502  0.36770298970E+01 -0.27058871081E+02 -0.16533884290E+03  0.16757874575E+03  0.00000000000E+00 0.  1.
<scales pt_clust_5="13000.00000" pt_clust_6="13000.00000" pt_clust_7="13000.00000" pt_clust_8="13000.00000" pt_clust_9="27.30756"></scales>
<clustering>
<clus scale="   27.308">  2  9  1 -1</clus>
<clus scale="   79.924">  5  6 -1 -1</clus>
<clus scale="   86.659">  7  8 -1 -1</clus>
<clus scale="   90.808">  1  5  2 -1</clus>
<clus scale="   27.308">  2  5  1 -1</clus>
</clustering>
</event>
<event>
 9    2  0.5615294E-005  0.9557353E+02  0.7546771E-02  0.1295705E+00
          2   -1    0    0  502    0 -0.00000000000E+00  0.00000000000E+00  0.67552718491E+03  0.67552718491E+03  0.00000000000E+00 0. -1.
         21   -1    0    0  501  502  0.00000000000E+00 -0.00000000000E+00 -0.41629613028E+02  0.41629613028E+02  0.00000000000E+00 0.  1.
         24    2    1    2    0    0 -0.38769528849E+02 -0.13818207825E+02  0.39837119200E+03  0.40852936124E+03  0.80638781902E+02 0.  0.
         23    2    1    2    0    0 -0.33814412505E+02  0.43762974891E+02  0.19014315528E+03  0.21793700339E+03  0.91013765357E+02 0.  0.
        -13    1    3    3    0    0 -0.65521923620E+01  0.32681506454E+02  0.12510734298E+03  0.12947146155E+03  0.00000000000E+00 0.  1.
         14    1    3    3    0    0 -0.32217336487E+02 -0.46499714279E+02  0.27326384902E+03  0.27905789969E+03  0.00000000000E+00 0. -1.
        -11    1    4    4    0    0 -0.59062864151E+01  0.66263155175E+02  0.15015676844E+03  0.16423381218E+03  0.00000000000E+00 0. -1.
         11    1    4    4    0    0 -0.27908126090E+02 -0.22500180284E+02  0.39986386838E+02  0.53703191218E+02  0.00000000000E+00 0.  1.
          1    1    1    2  501    0  0.72583941354E+02 -0.29944767066E+02  0.45383224602E+02  0.90690433302E+02  0.00000000000E+00 0. -1.
<scales pt_clust_5="13000.00000" pt_clust_6="13000.00000" pt_clust_7="13000.00000" pt_clust_8="13000.00000" pt_clust_9="78.51826"></scales>
<clustering>
<clus scale="   78.518">  2  9  1 -1</clus>
<clus scale="   80.639">  5  6 -1 -1</clus>
<clus scale="   85.752">  1  5  2 -1</clus>
<clus scale="   91.014">  7  8 -1 -1</clus>
<clus scale="   78.518">  2  5  1 -1</clus>
</clustering>
</event>
<event>
 9    2  0.5615294E-005  0.1362277E+03  0.7546771E-02  0.1240979E+00
          2   -1    0    0  502    0 -0.00000000000E+00  0.00000000000E+00  0.15492585772E+03  0.15492585772E+03  0.00000000000E+00 0. -1.
         21   -1    0    0  501  502  0.00000000000E+00 -0.00000000000E+00 -0.20986079189E+03  0.20986079189E+03  0.00000000000E+00 0. -1.
         24    2    1    2    0    0 -0.20180250664E+02 -0.22405939879E+02  0.45744107932E+02  0.97069115765E+02  0.80128778639E+02 0.  0.
         23    2    1    2    0    0  0.61921334448E+02 -0.73523678409E+02 -0.91773131900E+02  0.16272170071E+03  0.93893882635E+02 0.  0.
        -13    1    3    3    0    0  0.28931173685E+02  0.36894747976E+01  0.94424281941E+01  0.30655904575E+02  0.00000000000E+00 0.  1.
         14    1    3    3    0    0 -0.49111424349E+02 -0.26095414677E+02  0.36301679738E+02  0.66413211190E+02  0.00000000000E+00 0. -1.
        -11    1    4    4    0    0  0.45310265170E+02  0.11133357255E+02 -0.43869203547E+02  0.64042788769E+02  0.00000000000E+00 0. -1.
         11    1    4    4    0    0  0.16611069278E+02 -0.84657035664E+02 -0.47903928353E+02  0.98678911940E+02  0.00000000000E+00 0.  1.
          1    1    1    2  501    0 -0.41741083784E+02  0.95929618288E+02 -0.89059101978E+01  0.10499583314E+03  0.00000000000E+00 0. -1.
<scales pt_clust_5="13000.00000" pt_clust_6="13000.00000" pt_clust_7="13000.00000" pt_clust_8="13000.00000" pt_clust_9="98.70127"></scales>
<clustering>
<clus scale="   80.129">  5  6 -1 -1</clus>
<clus scale="   85.615">  1  5  2 -1</clus>
<clus scale="   93.894">  7  8 -1 -1</clus>
<clus scale="   98.701">  2  9  1 -1</clus>
<clus scale="   98.701">  2  5  1 -1</clus>
</clustering>
</event>
<event>
 9    2  0.5615294E-005  0.1000550E+03  0.7546771E-02  0.1288445E+00
         21   -1    0    0  501  502  0.00000000000E+00  0.00000000000E+00  0.53468146546E+02  0.53468146546E+02  0.00000000000E+00 0. -1.
          2   -1    0    0  502    0 -0.00000000000E+00 -0.00000000000E+00 -0.55078512795E+03  0.55078512795E+03  0.00000000000E+00 0. -1.
         23    2    1    2    0    0 -0.40125491914E+02 -0.20724911806E+02 -0.45575252549E+03  0.46727618702E+03  0.92720512283E+02 0.  0.
         24    2    1    2    0    0 -0.75719131790E+01  0.25796121870E+01 -0.12658919508E+02  0.78327071398E+02  0.76882336088E+02 0.  0.
        -13    1    4    4    0    0  0.31953451550E+02  0.71667557691E+01 -0.19262033695E+02  0.37992254425E+02  0.00000000000E+00 0.  1.
         14    1    4    4    0    0 -0.39525364730E+02 -0.45871435821E+01  0.66031141871E+01  0.40334816973E+02  0.00000000000E+00 0. -1.
        -13    1    3    3    0    0  0.29502808593E+02 -0.15245053907E+02 -0.15569158242E+03  0.15919389505E+03  0.00000000000E+00 0.  1.
         13    1    3    3    0    0 -0.69628300507E+02 -0.54798578985E+01 -0.30006094306E+03  0.30808229197E+03  0.00000000000E+00 0. -1.
          1    1    1    2  501    0  0.47697405093E+02  0.18145299618E+02 -0.28905536409E+02  0.58650016078E+02  0.00000000000E+00 0. -1.
<scales pt_clust_5="13000.00000" pt_clust_6="13000.00000" pt_clust_7="13000.00000" pt_clust_8="13000.00000" pt_clust_9="51.03229"></scales>
<clustering>
<clus scale="   51.032">  1  9  2 -1</clus>
<clus scale="   76.882">  5  6 -1 -1</clus>
<clus scale="   85.585">  1  5  2 -1</clus>
<clus scale="   92.721">  7  8 -1 -1</clus>
<clus scale="   51.032">  1  5  2 -1</clus>
</clustering>
</event>
<event>
 9    2  0.5615294E-005  0.9709798E+02  0.7546771E-02  0.1292762E+00
         -3   -1    0    0    0  501 -0.00000000000E+00  0.00000000000E+00  0.10483067704E+03  0.10483067704E+03  0.00000000000E+00 0.  1.
         21   -1    0    0  501  502  0.00000000000E+00 -0.00000000000E+00 -0.11696249473E+03  0.11696249473E+03  0.00000000000E+00 0. -1.
         23    2    1    2    0    0 -0.29317971565E+02 -0.26580512262E+02 -0.30804973278E+01  0.99424035672E+02  0.91156910417E+02 0.  0.
         24    2    1    2    0    0  0.27784581851E+02  0.60801530724E+01 -0.33025444120E+02  0.90787897665E+02  0.79641767642E+02 0.  0.
        -11    1    4    4    0    0 -0.11365853566E+02  0.34382103113E+02 -0.15650947122E+02  0.39449509345E+02  0.00000000000E+00 0.  1.
         12    1    4    4    0    0  0.39150435417E+02 -0.28301950040E+02 -0.17374496997E+02  0.51338388320E+02  0.00000000000E+00 0. -1.
        -11    1    3    3    0    0 -0.58882834127E+02 -0.34945035832E+01 -0.13462491344E+02  0.60503209695E+02  0.00000000000E+00 0.  1.
         11    1    3    3    0    0  0.29564862562E+02 -0.23086008679E+02  0.10381994016E+02  0.38920825978E+02  0.00000000000E+00 0. -1.
         -4    1    1    2    0  502  0.15333897143E+01  0.20500359189E+02  0.23974123762E+02  0.31581238434E+02  0.00000000000E+00 0.  1.
<scales pt_clust_5="13000.00000" pt_clust_6="13000.00000" pt_clust_7="13000.00000" pt_clust_8="13000.00000" pt_clust_9="20.55764"></scales>
<clustering>
<clus scale="   20.558">  2  9  1 -1</clus>
<clus scale="   79.642">  5  6 -1 -1</clus>
<clus scale="   86.379">  2  5  1 -1</clus>
<clus scale="   91.157">  7  8 -1 -1</clus>
<clus scale="   20.558">  2  5  1 -1</clus>
</clustering>
</event>
<event>
 9    2  0.5615294E-005  0.1951409E+03  0.7546771E-02  0.1155204E+00
          2   -1    0    0  502    0 -0.00000000000E+00  0.00000000000E+00  0.10196068479E+04  0.10196068479E+04  0.00000000000E+00 0. -1.
         21   -1    0    0  501  502  0.00000000000E+00 -0.00000000000E+00 -0.11302373402E+03  0.11302373402E+03  0.00000000000E+00 0. -1.
         24    2    1    2    0    0 -0.15850194654E+03  0.86920660320E+02  0.69144774239E+03  0.71915613322E+03  0.80046831546E+02 0.  0.
         23    2    1    2    0    0  0.41960692357E+02 -0.16378945985E+03  0.54303902783E+02  0.20050159223E+03  0.93082156014E+02 0.  0.
        -13    1    3    3    0    0 -0.50513622037E+02  0.72018697691E+02  0.27854470601E+03  0.29210524144E+03  0.00000000000E+00 0.  1.
         14    1    3    3    0    0 -0.10798832450E+03  0.14901962629E+02  0.41290303638E+03  0.42705089178E+03  0.00000000000E+00 0. -1.
        -13    1    4    4    0    0  0.16989971929E+02 -0.20215694723E+02  0.47821876381E+02  0.54628429594E+02  0.00000000000E+00 0.  1.
         13    1    4    4    0    0  0.24970720428E+02 -0.14357376512E+03  0.64820264017E+01  0.14587316263E+03  0.00000000000E+00 0. -1.
          1    1    1    2  501    0  0.11654125418E+03  0.76868799525E+02  0.16083146871E+03  0.21297285647E+03  0.00000000000E+00 0. -1.
<scales pt_clust_5="13000.00000" pt_clust_6="13000.00000" pt_clust_7="13000.00000" pt_clust_8="13000.00000" pt_clust_9="139.60901"></scales>
<clustering>
<clus scale="   80.047">  5  6 -1 -1</clus>
<clus scale="   93.082">  7  8 -1 -1</clus>
<clus scale="  139.609">  2  9  1 -1</clus>
<clus scale="  189.270">  1  5  2 -1</clus>
<clus scale="  139.609">  2  5  1 -1</clus>
</clustering>
</event>
<event>
 9    2  0.5615294E-005  0.9971960E+02  0.7546771E-02  0.1285584E+00
         21   -1    0    0  501  502  0.00000000000E+00  0.00000000000E+00  0.30619732881E+02  0.30619732881E+02  0.00000000000E+00 0. -1.
          2   -1    0    0  502    0 -0.00000000000E+00 -0.00000000000E+00 -0.46246398850E+03  0.46246398850E+03  0.00000000000E+00 0. -1.
         23    2    1    2    0    0 -0.42040151543E+02  0.27766539894E+01 -0.17160259828E+03  0.19858248767E+03  0.90622671138E+02 0.  0.
         24    2    1    2    0    0  0.34519145014E+02  0.35595269650E+02 -0.15098096334E+03  0.17845439267E+03  0.81191898470E+02 0.  0.
        -11    1    4    4    0    0 -0.19482970667E+02 -0.68104538212E+01 -0.13162237034E+02  0.24478825768E+02  0.00000000000E+00 0.  1.
         12    1    4    4    0    0  0.54002115681E+02  0.42405723471E+02 -0.13781872631E+03  0.15397556690E+03  0.00000000000E+00 0. -1.
        -11    1    3    3    0    0  0.13321203503E+02 -0.15735841924E+02 -0.11649456259E+03  0.11830492085E+03  0.00000000000E+00 0.  1.
         11    1    3    3    0    0 -0.55361355045E+02  0.18512495914E+02 -0.55108035689E+02  0.80277566822E+02  0.00000000000E+00 0. -1.
          1    1    1    2  501    0  0.75210065284E+01 -0.38371923640E+02 -0.10926069401E+03  0.11604684105E+03  0.00000000000E+00 0. -1.
<scales pt_clust_5="13000.00000" pt_clust_6="13000.00000" pt_clust_7="13000.00000" pt_clust_8="13000.00000" pt_clust_9="39.10207"></scales>
<clustering>
<clus scale="   39.102">  1  9  2 -1</clus>
<clus scale="   81.192">  5  6 -1 -1</clus>
<clus scale="   90.623">  7  8 -1 -1</clus>
<clus scale="   91.234">  1  5  2 -1</clus>
<clus scale="   39.102">  1  5  2 -1</clus>
</clustering>
</event>
<event>
 9    2  0.5615294E-005  0.9794153E+02  0.7546771E-02  0.1290499E+00
         21   -1    0    0  501  502  0.00000000000E+00  0.00000000000E+00  0.84591473776E+02  0.84591473776E+02  0.00000000000E+00 0. -1.
          2   -1    0    0  502    0 -0.00000000000E+00 -0.00000000000E+00 -0.36678729749E+03  0.36678729749E+03  0.00000000000E+00 0. -1.
         23    2    1    2    0    0 -0.15106310913E+01  0.27385752185E+02 -0.21609424214E+03  0.23672122662E+03  0.92671226495E+02 0.  0.
         24    2    1    2    0    0 -0.62107674655E+02 -0.22749520954E+02 -0.97576594877E+02  0.14352766394E+03  0.81878535003E+02 0.  0.
        -13    1    4    4    0    0 -0.28857580003E+02 -0.33031078215E+02 -0.44216465568E+01  0.44083591164E+02  0.00000000000E+00 0.  1.
         14    1    4    4    0    0 -0.33250094651E+02  0.10281557261E+02 -0.93154948320E+02  0.99444072778E+02  0.00000000000E+00 0. -1.
        -11    1    3    3    0    0  0.24197089651E+02 -0.21764956571E+02 -0.37210457588E+02  0.49435115414E+02  0.00000000000E+00 0. -1.
         11    1    3    3    0    0 -0.25707720743E+02  0.49150708756E+02 -0.17888378455E+03  0.18728611121E+03  0.00000000000E+00 0.  1.
          1    1    1    2  501    0  0.63618305746E+02 -0.46362312317E+01  0.31475013301E+02  0.71129880700E+02  0.00000000000E+00 0. -1.
<scales pt_clust_5="13000.00000" pt_clust_6="13000.00000" pt_clust_7="13000.00000" pt_clust_8="13000.00000" pt_clust_9="63.78702"></scales>
<clustering>
<clus scale="   63.787">  1  9  2 -1</clus>
<clus scale="   81.879">  5  6 -1 -1</clus>
<clus scale="   87.799">  1  5  2 -1</clus>
<clus scale="   92.671">  7  8 -1 -1</clus>
<clus scale="   63.787">  1  5  2 -1</clus>
</clustering>
</event>
<event>
 9    2  0.5615294E-005  0.1903512E+03  0.7546771E-02  0.1159443E+00
          2   -1    0    0  502    0 -0.00000000000E+00  0.00000000000E+00  0.31253747369E+03  0.31253747369E+03  0.00000000000E+00 0. -1.
         21   -1    0    0  501  502  0.00000000000E+00 -0.00000000000E+00 -0.19482569676E+03  0.19482569676E+03  0.00000000000E+00 0. -1.
         23    2    1    2    0    0 -0.13005687862E+02  0.12744530584E+03  0.19256495782E+02  0.15875224590E+03  0.91760607299E+02 0.  0.
         24    2    1    2    0    0  0.47808285137E+01 -0.22142922057E+03  0.42926796095E+02  0.23913929721E+03  0.79316691822E+02 0.  0.
        -11    1    4    4    0    0  0.32228493749E+02 -0.16299403368E+03  0.51648963292E+02  0.17399237407E+03  0.00000000000E+00 0.  1.
         12    1    4    4    0    0 -0.27447665235E+02 -0.58435186895E+02 -0.87221671973E+01  0.65146923143E+02  0.00000000000E+00 0. -1.
        -13    1    3    3    0    0 -0.10423647703E+02  0.24620433887E+02  0.45343050685E+02  0.52638488216E+02  0.00000000000E+00 0. -1.
         13    1    3    3    0    0 -0.25820401594E+01  0.10282487195E+03 -0.26086554903E+02  0.10611375769E+03  0.00000000000E+00 0.  1.
          1    1    1    2  501    0  0.82248593484E+01  0.93983914731E+02  0.55528485058E+02  0.10947162734E+03  0.00000000000E+00 0. -1.
<scales pt_clust_5="13000.00000" pt_clust_6="13000.00000" pt_clust_7="13000.00000" pt_clust_8="13000.00000" pt_clust_9="94.34317"></scales>
<clustering>
<clus scale="   79.317">  5  6 -1 -1</clus>
<clus scale="   91.761">  7  8 -1 -1</clus>
<clus scale="   94.343">  2  9  1 -1</clus>
<clus scale="  184.675">  2  5  1 -1</clus>
<clus scale="   94.343">  2  5  1 -1</clus>
</clustering>
</event>
<event>
 9    2  0.5615294E-005  0.2392023E+03  0.7546771E-02  0.1120793E+00
          2   -1    0    0  502    0 -0.00000000000E+00  0.00000000000E+00  0.79714939738E+03  0.79714939738E+03  0.00000000000E+00 0. -1.
         21   -1    0    0  501  502  0.00000000000E+00 -0.00000000000E+00 -0.15724830908E+03  0.15724830908E+03  0.00000000000E+00 0. -1.
         24    2    1    2    0    0 -0.23605812292E+03  0.38512393997E+02  0.63862197321E+03  0.68650866182E+03  0.79053628554E+02 0.  0.
         23    2    1    2    0    0  0.16334569518E+03  0.72131619739E+00  0.55356868319E+01  0.18515755387E+03  0.87007697912E+02 0.  0.
        -11    1    3    3    0    0 -0.62777695121E+02  0.43705572566E+02  0.15715082339E+03  0.17477870971E+03  0.00000000000E+00 0.  1.
         12    1    3    3    0    0 -0.17328042780E+03 -0.51931785687E+01  0.48147114983E+03  0.51172995210E+03  0.00000000000E+00 0. -1.
        -11    1    4    4    0    0  0.47583374084E+02 -0.39481867195E+02  0.94607036232E+01  0.62549981930E+02  0.00000000000E+00 0.  1.
         11    1    4    4    0    0  0.11576232109E+03  0.40203183393E+02 -0.39250167913E+01  0.12260757194E+03  0.00000000000E+00 0. -1.
          1    1    1    2  501    0  0.72712427743E+02 -0.39233710194E+02 -0.42565717520E+01  0.82731490781E+02  0.00000000000E+00 0. -1.
<scales pt_clust_5="13000.00000" pt_clust_6="13000.00000" pt_clust_7="13000.00000" pt_clust_8="13000.00000" pt_clust_9="82.62192"></scales>
<clustering>
<clus scale="   79.054">  5  6 -1 -1</clus>
<clus scale="   82.622">  2  9  1 -1</clus>
<clus scale="   87.008">  7  8 -1 -1</clus>
<clus scale="  236.425">  1  5  2 -1</clus>
<clus scale="   82.622">  2  5  1 -1</clus>
</clustering>
</event>
<event>
 9    2  0.5615294E-005  0.1970789E+03  0.7546771E-02  0.1171445E+00
          2   -1    0    0  502    0 -0.00000000000E+00  0.00000000000E+00  0.40899503504E+03  0.40899503504E+03  0.00000000000E+00 0. -1.
         21   -1    0    0  501  502  0.00000000000E+00 -0.00000000000E+00 -0.17728763958E+03  0.17728763958E+03  0.00000000000E+00 0. -1.
         24    2    1    2    0    0 -0.16204167486E+01 -0.98980511467E+02 -0.95554557016E+01  0.12653338938E+03  0.78228028830E+02 0.  0.
         23    2    1    2    0    0  0.75403680284E+02  0.21976794366E+03  0.14750756739E+03  0.28997406033E+03  0.91338979436E+02 0.  0.
        -11    1    3    3    0    0 -0.36915008720E+02 -0.63352689829E+02  0.71573042081E+01  0.73671623987E+02  0.00000000000E+00 0.  1.
         12    1    3    3    0    0  0.35294591971E+02 -0.35627821638E+02 -0.16712759910E+02  0.52861765397E+02  0.00000000000E+00 0. -1.
        -13    1    4    4    0    0 -0.25968743172E+01  0.13273119051E+03  0.80380455029E+02  0.15519449166E+03  0.00000000000E+00 0. -1.
         13    1    4    4    0    0  0.78000554601E+02  0.87036753157E+02  0.67127112365E+02  0.13477956868E+03  0.00000000000E+00 0.  1.
          1    1    1    2  501    0 -0.73783263535E+02 -0.12078743220E+03  0.93755283768E+02  0.16977522490E+03  0.00000000000E+00 0. -1.
<scales pt_clust_5="13000.00000" pt_clust_6="13000.00000" pt_clust_7="13000.00000" pt_clust_8="13000.00000" pt_clust_9="174.63475"></scales>
<clustering>
<clus scale="   78.228">  5  6 -1 -1</clus>
<clus scale="   91.339">  7  8 -1 -1</clus>
<clus scale="  126.172">  1  5  2 -1</clus>
<clus scale="  174.635">  2  9  1 -1</clus>
<clus scale="  174.635">  2  5  1 -1</clus>
</clustering>
</event>
<event>
 9    2  0.5615294E-005  0.9382089E+02  0.7546771E-02  0.1298613E+00
         21   -1    0    0  501  502  0.00000000000E+00  0.00000000000E+00  0.98104946611E+02  0.98104946611E+02  0.00000000000E+00 0. -1.
          2   -1    0    0  502    0 -0.00000000000E+00 -0.00000000000E+00 -0.95367872736E+03  0.95367872736E+03  0.00000000000E+00 0. -1.
         24    2    1    2    0    0 -0.34302119334E+01 -0.25705778704E+02 -0.80831080121E+03  0.81279193239E+03  0.81190027612E+02 0.  0.
         23    2    1    2    0    0 -0.31561135433E+02  0.10123479149E+03  0.81038628255E+01  0.13901917837E+03  0.89532514126E+02 0.  0.
        -11    1    3    3    0    0  0.20351710096E+02  0.77299087126E+00 -0.55145631034E+02  0.58786309978E+02  0.00000000000E+00 0.  1.
         12    1    3    3    0    0 -0.23781922030E+02 -0.26478769575E+02 -0.75316517018E+03  0.75400562241E+03  0.00000000000E+00 0. -1.
        -11    1    4    4    0    0  0.27783131519E+02  0.94333787242E+01 -0.73193667216E+00  0.29350072614E+02  0.00000000000E+00 0.  1.
         11    1    4    4    0    0 -0.59344266952E+02  0.91801412761E+02  0.88357994976E+01  0.10966910576E+03  0.00000000000E+00 0. -1.
          1    1    1    2  501    0  0.34991347366E+02 -0.75529012781E+02 -0.55366842362E+02  0.99972563213E+02  0.00000000000E+00 0. -1.
<scales pt_clust_5="13000.00000" pt_clust_6="13000.00000" pt_clust_7="13000.00000" pt_clust_8="13000.00000" pt_clust_9="83.24077"></scales>
<clustering>
<clus scale="   81.190">  5  6 -1 -1</clus>
<clus scale="   83.241">  1  9  2 -1</clus>
<clus scale="   85.896">  2  5  1 -1</clus>
<clus scale="   89.533">  7  8 -1 -1</clus>
<clus scale="   83.241">  1  5  2 -1</clus>
</clustering>
</event>
<event>
 9    2  0.5615294E-005  0.1581907E+03  0.7546771E-02  0.1214237E+00
          2   -1    0    0  502    0 -0.00000000000E+00  0.00000000000E+00  0.54490063656E+03  0.54490063656E+03  0.00000000000E+00 0. -1.
         21   -1    0    0  501  502  0.00000000000E+00 -0.00000000000E+00 -0.22104614790E+03  0.22104614790E+03  0.00000000000E+00 0. -1.
         24    2    1    2    0    0 -0.48084875428E+02 -0.17297583083E+02  0.43973413557E+03  0.44991985511E+03  0.80314409711E+02 0.  0.
         23    2    1    2    0    0 -0.42740543016E+02 -0.10096427384E+03 -0.64739777716E+02  0.15838680229E+03  0.94205104489E+02 0.  0.
        -11    1    3    3    0    0  0.18742906706E+02 -0.20640243177E+02  0.11127098093E+03  0.11471071174E+03  0.00000000000E+00 0.  1.
         12    1    3    3    0    0 -0.66827782133E+02  0.33426600941E+01  0.32846315464E+03  0.33520914337E+03  0.00000000000E+00 0. -1.
        -13    1    4    4    0    0 -0.11019484952E+02  0.16966560122E+02 -0.14114330700E+00  0.20231488636E+02  0.00000000000E+00 0.  1.
         13    1    4    4    0    0 -0.31721058064E+02 -0.11793083396E+03 -0.64598634409E+02  0.13815531365E+03  0.00000000000E+00 0. -1.
          1    1    1    2  501    0  0.90825418444E+02  0.11826185692E+03 -0.51139869194E+02  0.15764012706E+03  0.00000000000E+00 0. -1.
<scales pt_clust_5="13000.00000" pt_clust_6="13000.00000" pt_clust_7="13000.00000" pt_clust_8="13000.00000" pt_clust_9="127.08153"></scales>
<clustering>
<clus scale="   80.314">  5  6 -1 -1</clus>
<clus scale="   94.205">  7  8 -1 -1</clus>
<clus scale="   95.193">  1  5  2 -1</clus>
<clus scale="  127.082">  2  9  1 -1</clus>
<clus scale="  127.082">  2  5  1 -1</clus>
</clustering>
</event>
<event>
 9    2  0.5615294E-005  0.2881964E+03  0.7546771E-02  0.1091295E+00
         -1   -1    0    0    0  501 -0.00000000000E+00  0.00000000000E+00  0.65530190612E+03  0.65530190612E+03  0.00000000000E+00 0.  1.
         21   -1    0    0  501  502  0.00000000000E+00 -0.00000000000E+00 -0.20434764432E+03  0.20434764432E+03  0.00000000000E+00 0. -1.
         23    2    1    2    0    0  0.24472134255E+03 -0.15418382514E+03  0.43031725526E+03  0.52236264997E+03  0.63471335882E+02 0.  0.
         24    2    1    2    0    0 -0.24642895558E+03  0.89214952373E+02  0.19795480240E+01  0.26967054794E+03  0.63496046655E+02 0.  0.
        -11    1    4    4    0    0 -0.51466034285E+02  0.15518033497E+02  0.26274687041E+02  0.59832442937E+02  0.00000000000E+00 0.  1.
         12    1    4    4    0    0 -0.19496292129E+03  0.73696918876E+02 -0.24295139017E+02  0.20983810500E+03  0.00000000000E+00 0. -1.
        -13    1    3    3    0    0  0.21721913959E+03 -0.11050119411E+03  0.36891100978E+03  0.44214251282E+03  0.00000000000E+00 0.  1.
         13    1    3    3    0    0  0.27502202960E+02 -0.43682631029E+02  0.61406245479E+02  0.80220137154E+02  0.00000000000E+00 0. -1.
         -2    1    1    2    0  502  0.17076130239E+01  0.64968872769E+02  0.18657458528E+02  0.67616352533E+02  0.00000000000E+00 0.  1.
<scales pt_clust_5="13000.00000" pt_clust_6="13000.00000" pt_clust_7="13000.00000" pt_clust_8="13000.00000" pt_clust_9="64.99131"></scales>
<clustering>
<clus scale="   63.471">  7  8 -1 -1</clus>
<clus scale="   63.496">  5  6 -1 -1</clus>
<clus scale="   64.991">  2  9  1 -1</clus>
<clus scale="  288.191">  1  7  2 -1</clus>
<clus scale="   64.991">  2  5  1 -1</clus>
</clustering>
</event>
<event>
 9    2  0.5615294E-005  0.1156520E+03  0.7546771E-02  0.1254321E+00
         -3   -1    0    0    0  501 -0.00000000000E+00  0.00000000000E+00  0.15682481666E+03  0.15682481666E+03  0.00000000000E+00 0.  1.
         21   -1    0    0  501  502  0.00000000000E+00 -0.00000000000E+00 -0.21172255631E+03  0.21172255631E+03  0.00000000000E+00 0.  1.
         23    2    1    2    0    0  0.76525241375E+02 -0.39593511598E+02  0.94433469721E+02  0.15725681081E+03  0.91587475205E+02 0.  0.
         24    2    1    2    0    0 -0.18067919319E+02  0.24088544919E+02 -0.66124425795E+02  0.10842642201E+03  0.80480690848E+02 0.  0.
        -11    1    4    4    0    0 -0.23263531637E+02 -0.11468270017E+02 -0.67658234353E+02  0.72459297520E+02  0.00000000000E+00 0.  1.
         12    1    4    4    0    0  0.51956123174E+01  0.35556814935E+02  0.15338085578E+01  0.35967124494E+02  0.00000000000E+00 0. -1.
        -11    1    3    3    0    0  0.26555570869E+02 -0.29768938803E+01 -0.15629549304E+02  0.30957116351E+02  0.00000000000E+00 0. -1.
         11    1    3    3    0    0  0.49969670506E+02 -0.36616617718E+02  0.11006301903E+03  0.12629969446E+03  0.00000000000E+00 0.  1.
         -4    1    1    2    0  502 -0.58457322056E+02  0.15504966680E+02 -0.83206783584E+02  0.10286414015E+03  0.00000000000E+00 0.  1.
<scales pt_clust_5="13000.00000" pt_clust_6="13000.00000" pt_clust_7="13000.00000" pt_clust_8="13000.00000" pt_clust_9="60.47861"></scales>
<clustering>
<clus scale="   60.479">  2  9  1 -1</clus>
<clus scale="   80.481">  5  6 -1 -1</clus>
<clus scale="   91.587">  7  8 -1 -1</clus>
<clus scale="  107.071">  2  5  1 -1</clus>
<clus scale="   60.479">  2  5  1 -1</clus>
</clustering>
</event>
<event>
 9    2  0.5615294E-005  0.1019623E+03  0.7546771E-02  0.1282913E+00
         21   -1    0    0  501  502  0.00000000000E+00  0.00000000000E+00  0.37176540859E+03  0.37176540859E+03  0.00000000000E+00 0.  1.
          2   -1    0    0  502    0 -0.00000000000E+00 -0.00000000000E+00 -0.71813176018E+02  0.71813176018E+02  0.00000000000E+00 0. -1.
         24    2    1    2    0    0  0.31793272562E+02 -0.19310798911E+02 -0.96935044170E+01  0.87797681104E+02  0.78935097673E+02 0.  0.
         23    2    1    2    0    0 -0.40988267366E+02  0.69890803148E+02  0.20248387318E+03  0.23692574033E+03  0.92570649271E+02 0.  0.
        -13    1    3    3    0    0  0.13191030669E+02  0.30275296790E+02  0.35267658743E+01  0.33211970182E+02  0.00000000000E+00 0.  1.
         14    1    3    3    0    0  0.18602241893E+02 -0.49586095701E+02 -0.13220270291E+02  0.54585710922E+02  0.00000000000E+00 0. -1.
        -13    1    4    4    0    0 -0.32679708807E+02  0.15870245709E+02  0.16892974626E+03  0.17279203465E+03  0.00000000000E+00 0.  1.
         13    1    4    4    0    0 -0.83085585589E+01  0.54020557439E+02  0.33554126927E+02  0.64133705687E+02  0.00000000000E+00 0. -1.
          1    1    1    2  501    0  0.91949948039E+01 -0.50580004238E+02  0.10716186380E+03  0.11885516317E+03  0.00000000000E+00 0. -1.
<scales pt_clust_5="13000.00000" pt_clust_6="13000.00000" pt_clust_7="13000.00000" pt_clust_8="13000.00000" pt_clust_9="51.40899"></scales>
<clustering>
<clus scale="   51.409">  1  9  2 -1</clus>
<clus scale="   78.935">  5  6 -1 -1</clus>
<clus scale="   89.765">  2  5  1 -1</clus>
<clus scale="   92.571">  7  8 -1 -1</clus>
<clus scale="   51.409">  1  5  2 -1</clus>
</clustering>
</event>
<event>
 9    2  0.5615294E-005  0.9950793E+02  0.7546771E-02  0.1286844E+00
         21   -1    0    0  501  502  0.00000000000E+00  0.00000000000E+00  0.13239572371E+03  0.13239572371E+03  0.00000000000E+00 0. -1.
         -3   -1    0    0    0  501 -0.00000000000E+00 -0.00000000000E+00 -0.18824080796E+03  0.18824080796E+03  0.00000000000E+00 0.  1.
         24    2    1    2    0    0  0.38304835843E+02  0.29738816335E+02 -0.92917414242E+02  0.13235478813E+03  0.80823798638E+02 0.  0.
         23    2    1    2    0    0  0.36792851786E+02 -0.43605665566E+02  0.16466712712E+02  0.10918342713E+03  0.91622596125E+02 0.  0.
        -13    1    3    3    0    0  0.21264218023E+02  0.48631306995E+02 -0.92806599807E+02  0.10691228160E+03  0.00000000000E+00 0.  1.
         14    1    3    3    0    0  0.17040617820E+02 -0.18892490661E+02 -0.11081443467E+00  0.25442506537E+02  0.00000000000E+00 0. -1.
        -13    1    4    4    0    0  0.53008694360E+02 -0.97313760149E+01  0.37951940539E+02  0.65916395135E+02  0.00000000000E+00 0. -1.
         13    1    4    4    0    0 -0.16215842575E+02 -0.33874289551E+02 -0.21485227827E+02  0.43267031997E+02  0.00000000000E+00 0.  1.
         -4    1    1    2    0  502 -0.75097687629E+02  0.13866849231E+02  0.20605617287E+02  0.79098316408E+02  0.00000000000E+00 0.  1.
<scales pt_clust_5="13000.00000" pt_clust_6="13000.00000" pt_clust_7="13000.00000" pt_clust_8="13000.00000" pt_clust_9="76.36722"></scales>
<clustering>
<clus scale="   76.367">  1  9  2 -1</clus>
<clus scale="   80.824">  5  6 -1 -1</clus>
<clus scale="   89.664">  2  5  1 -1</clus>
<clus scale="   91.623">  7  8 -1 -1</clus>
<clus scale="   76.367">  1  5  2 -1</clus>
</clustering>
</event>
<event>
 9    2  0.5615294E-005  0.1123766E+03  0.7546771E-02  0.1260691E+00
         21   -1    0    0  501  502  0.00000000000E+00  0.00000000000E+00  0.17262966304E+02  0.17262966304E+02  0.00000000000E+00 0.  1.
          2   -1    0    0  502    0 -0.00000000000E+00 -0.00000000000E+00 -0.89992397277E+03  0.89992397277E+03  0.00000000000E+00 0. -1.
         23    2    1    2    0    0  0.12350151143E+01  0.80662912057E+02 -0.48003798114E+03  0.49535398808E+03  0.91820910091E+02 0.  0.
         24    2    1    2    0    0 -0.38295630325E+01 -0.49203773532E+02 -0.28811012797E+03  0.30304906010E+03  0.79972558429E+02 0.  0.
        -11    1    4    4    0    0 -0.28815698092E+02 -0.55728504101E+02 -0.24399158063E+03  0.25192836689E+03  0.00000000000E+00 0.  1.
         12    1    4    4    0    0  0.24986135060E+02  0.65247305681E+01 -0.44118547346E+02  0.51120693208E+02  0.00000000000E+00 0. -1.
        -11    1    3    3    0    0 -0.33032694306E+02  0.71606977948E+00 -0.93988882040E+02  0.99627213131E+02  0.00000000000E+00 0. -1.
         11    1    3    3    0    0  0.34267709421E+02  0.79946842277E+02 -0.38604909910E+03  0.39572677495E+03  0.00000000000E+00 0.  1.
          1    1    1    2  501    0  0.25945479182E+01 -0.31459138524E+02 -0.11451289735E+03  0.11878389089E+03  0.00000000000E+00 0. -1.
<scales pt_clust_5="13000.00000" pt_clust_6="13000.00000" pt_clust_7="13000.00000" pt_clust_8="13000.00000" pt_clust_9="31.56596"></scales>
<clustering>
<clus scale="   31.566">  1  9  2 -1</clus>
<clus scale="   79.973">  5  6 -1 -1</clus>
<clus scale="   91.821">  7  8 -1 -1</clus>
<clus scale="  102.922">  1  5  2 -1</clus>
<clus scale="   31.566">  1  5  2 -1</clus>
</clustering>
</event>
<event>
 9    2  0.5615294E-005  0.1504496E+03  0.7546771E-02  0.1228717E+00
         21   -1    0    0  501  502  0.00000000000E+00  0.00000000000E+00  0.42141040813E+02  0.42141040813E+02  0.00000000000E+00 0. -1.
          2   -1    0    0  502    0 -0.00000000000E+00 -0.00000000000E+00 -0.12905430646E+04  0.12905430646E+04  0.00000000000E+00 0. -1.
         24    2    1    2    0    0  0.57979984767E+01 -0.18585368123E+02 -0.81549002132E+03  0.81957289430E+03  0.79351884084E+02 0.  0.
         23    2    1    2    0    0 -0.45358876076E+01  0.12982239669E+03 -0.29631081307E+03  0.33694323902E+03  0.94107488648E+02 0.  0.
        -13    1    3    3    0    0 -0.18626526004E+02  0.76429481837E+01 -0.61094305201E+02  0.64326326305E+02  0.00000000000E+00 0.  1.
         14    1    3    3    0    0  0.24424524481E+02 -0.26228316306E+02 -0.75439571612E+03  0.75524656800E+03  0.00000000000E+00 0. -1.
        -11    1    4    4    0    0 -0.47297712478E+02  0.71607126027E+02 -0.18919096138E+03  0.20774473272E+03  0.00000000000E+00 0.  1.
         11    1    4    4    0    0  0.42761824870E+02  0.58215270665E+02 -0.10711985168E+03  0.12919850630E+03  0.00000000000E+00 0. -1.
          1    1    1    2  501    0 -0.12621108691E+01 -0.11123702857E+03 -0.13660118943E+03  0.17616797212E+03  0.00000000000E+00 0. -1.
<scales pt_clust_5="13000.00000" pt_clust_6="13000.00000" pt_clust_7="13000.00000" pt_clust_8="13000.00000" pt_clust_9="117.38345"></scales>
<clustering>
<clus scale="   79.352">  5  6 -1 -1</clus>
<clus scale="   81.705">  2  5  1 -1</clus>
<clus scale="   94.107">  7  8 -1 -1</clus>
<clus scale="  117.383">  1  9  2 -1</clus>
<clus scale="  117.383">  1  5  2 -1</clus>
</clustering>
</event>
<event>
 9    2  0.5615294E-005  0.1253153E+03  0.7546771E-02  0.1238074E+00
          2   -1    0    0  502    0 -0.00000000000E+00  0.00000000000E+00  0.32858448413E+03  0.32858448413E+03  0.00000000000E+00 0. -1.
         21   -1    0    0  501  502  0.00000000000E+00 -0.00000000000E+00 -0.12884307646E+03  0.12884307646E+03  0.00000000000E+00 0. -1.
         24    2    1    2    0    0  0.35026773821E+02 -0.92647338665E+02  0.21192723390E+03  0.24589362086E+03  0.75763553677E+02 0.  0.
         23    2    1    2    0    0 -0.80913437175E+02  0.15048942803E+02 -0.11336014440E+02  0.12137952167E+03  0.88493096132E+02 0.  0.
        -11    1    3    3    0    0  0.12708884147E+02 -0.45989329843E+02  0.29089850340E+02  0.55881603310E+02  0.00000000000E+00 0.  1.
         12    1    3    3    0    0  0.22317889673E+02 -0.46658008822E+02  0.18283738356E+03  0.19001201755E+03  0.00000000000E+00 0. -1.
        -13    1    4    4    0    0 -0.29440976549E+02  0.28395594615E+02 -0.43116500655E+02  0.59431586908E+02  0.00000000000E+00 0. -1.
         13    1    4    4    0    0 -0.51472460626E+02 -0.13346651812E+02  0.31780486215E+02  0.61947934764E+02  0.00000000000E+00 0.  1.
          1    1    1    2  501    0  0.45886663354E+02  0.77598395862E+02 -0.84981178649E+00  0.90154418051E+02  0.00000000000E+00 0. -1.
<scales pt_clust_5="13000.00000" pt_clust_6="13000.00000" pt_clust_7="13000.00000" pt_clust_8="13000.00000" pt_clust_9="90.15041"></scales>
<clustering>
<clus scale="   75.764">  5  6 -1 -1</clus>
<clus scale="   88.493">  7  8 -1 -1</clus>
<clus scale="   90.150">  2  9  1 -1</clus>
<clus scale="  116.675">  1  5  2 -1</clus>
<clus scale="   90.150">  2  5  1 -1</clus>
</clustering>
</event>
<event>
 9    2  0.5615294E-005  0.1703866E+03  0.7546771E-02  0.1179093E+00
          2   -1    0    0  502    0 -0.00000000000E+00  0.00000000000E+00  0.74374755108E+02  0.74374755108E+02  0.00000000000E+00 0. -1.
         21   -1    0    0  501  502  0.00000000000E+00 -0.00000000000E+00 -0.73705899858E+03  0.73705899858E+03  0.00000000000E+00 0. -1.
         24    2    1    2    0    0 -0.24574968272E+01 -0.96728711729E+02 -0.22802506315E+03  0.26024583637E+03  0.79812173009E+02 0.  0.
         23    2    1    2    0    0 -0.27923829176E+02  0.20503487054E+03 -0.28706757747E+03  0.36561709461E+03  0.91918591496E+02 0.  0.
        -11    1    3    3    0    0  0.36734431653E+02 -0.38295601585E+02 -0.12149064895E+03  0.13257431634E+03  0.00000000000E+00 0.  1.
         12    1    3    3    0    0 -0.39191928480E+02 -0.58433110144E+02 -0.10653441420E+03  0.12767152003E+03  0.00000000000E+00 0. -1.
        -13    1    4    4    0    0 -0.54380082723E+02  0.73124577631E+02 -0.10143168369E+03  0.13635535819E+03  0.00000000000E+00 0. -1.
         13    1    4    4    0    0  0.26456253546E+02  0.13191029291E+03 -0.18563589377E+03  0.22926173642E+03  0.00000000000E+00 0.  1.
          1    1    1    2  501    0  0.30381326003E+02 -0.10830615881E+03 -0.14759160285E+03  0.18557082270E+03  0.00000000000E+00 0. -1.
<scales pt_clust_5="13000.00000" pt_clust_6="13000.00000" pt_clust_7="13000.00000" pt_clust_8="13000.00000" pt_clust_9="112.48672"></scales>
<clustering>
<clus scale="   79.812">  5  6 -1 -1</clus>
<clus scale="   91.919">  7  8 -1 -1</clus>
<clus scale="  112.487">  2  9  1 -1</clus>
<clus scale="  164.172">  1  5  2 -1</clus>
<clus scale="  112.487">  2  5  1 -1</clus>
</clustering>
</event>
<event>
 9    2  0.5615294E-005  0.9602984E+02  0.7546771E-02  0.1294027E+00
         21   -1    0    0  501  502  0.00000000000E+00  0.00000000000E+00  0.79444908939E+02  0.79444908939E+02  0.00000000000E+00 0. -1.
          2   -1    0    0  502    0 -0.00000000000E+00 -0.00000000000E+00 -0.24912295708E+03  0.24912295708E+03  0.00000000000E+00 0. -1.
         24    2    1    2    0    0 -0.16768939030E+02 -0.30555708011E+02 -0.16422774561E+03  0.18646179860E+03  0.81131999249E+02 0.  0.
         23    2    1    2    0    0  0.27261860549E+02  0.18649134873E+01  0.26178657600E+02  0.98132732184E+02  0.90542940471E+02 0.  0.
        -13    1    3    3    0    0 -0.37842990704E+02  0.12887493841E+02 -0.71600449102E+02  0.82004900796E+02  0.00000000000E+00 0.  1.
         14    1    3    3    0    0  0.21074051674E+02 -0.43443201853E+02 -0.92627296507E+02  0.10445689781E+03  0.00000000000E+00 0. -1.
        -11    1    4    4    0    0  0.52364215499E+02  0.12185609076E+02  0.40625176536E+02  0.67386238224E+02  0.00000000000E+00 0. -1.
         11    1    4    4    0    0 -0.25102354950E+02 -0.10320695589E+02 -0.14446518935E+02  0.30746493960E+02  0.00000000000E+00 0.  1.
          1    1    1    2  501    0 -0.10492921519E+02  0.28690794524E+02 -0.31628960129E+02  0.43973335230E+02  0.00000000000E+00 0. -1.
<scales pt_clust_5="13000.00000" pt_clust_6="13000.00000" pt_clust_7="13000.00000" pt_clust_8="13000.00000" pt_clust_9="30.54937"></scales>
<clustering>
<clus scale="   30.549">  1  9  2 -1</clus>
<clus scale="   81.132">  5  6 -1 -1</clus>
<clus scale="   87.213">  2  5  1 -1</clus>
<clus scale="   90.543">  7  8 -1 -1</clus>
<clus scale="   30.549">  1  5  2 -1</clus>
</clustering>
</event>
<event>
 9    2  0.5615294E-005  0.1672561E+03  0.7546771E-02  0.1182072E+00
          2   -1    0    0  502    0 -0.00000000000E+00  0.00000000000E+00  0.20317914817E+03  0.20317914817E+03  0.00000000000E+00 0. -1.
         21   -1    0    0  501  502  0.00000000000E+00 -0.00000000000E+00 -0.62439480680E+03  0.62439480680E+03  0.00000000000E+00 0.  1.
         23    2    1    2    0    0 -0.10953026485E+03  0.85023001950E+02  0.14202005421E+03  0.21808638107E+03  0.90366941041E+02 0.  0.
         24    2    1    2    0    0  0.13796411394E+03 -0.84585142012E+02 -0.34645168949E+03  0.39084634203E+03  0.80890957153E+02 0.  0.
        -13    1    4    4    0    0  0.10010826324E+03 -0.87511033473E+02 -0.31365263808E+03  0.34067260342E+03  0.00000000000E+00 0.  1.
         14    1    4    4    0    0  0.37855850701E+02  0.29258914602E+01 -0.32799051406E+02  0.50173738612E+02  0.00000000000E+00 0. -1.
        -13    1    3    3    0    0 -0.10315328660E+03  0.63260481301E+02  0.15116702249E+03  0.19363356558E+03  0.00000000000E+00 0. -1.
         13    1    3    3    0    0 -0.63769782486E+01  0.21762520648E+02 -0.91469682842E+01  0.24452815489E+02  0.00000000000E+00 0.  1.
          1    1    1    2  501    0 -0.28433849093E+02 -0.43785993745E+00 -0.21678402334E+03  0.21864123187E+03  0.00000000000E+00 0. -1.
<scales pt_clust_5="13000.00000" pt_clust_6="13000.00000" pt_clust_7="13000.00000" pt_clust_8="13000.00000" pt_clust_9="28.43722"></scales>
<clustering>
<clus scale="   28.437">  2  9  1 -1</clus>
<clus scale="   80.891">  5  6 -1 -1</clus>
<clus scale="   90.367">  7  8 -1 -1</clus>
<clus scale="  162.332">  2  5  1 -1</clus>
<clus scale="   28.437">  2  5  1 -1</clus>
</clustering>
</event>
<event>
 9    2  0.5615294E-005  0.1050673E+03  0.7546771E-02  0.1276329E+00
         21   -1    0    0  501  502  0.00000000000E+00  0.00000000000E+00  0.27951208537E+02  0.27951208537E+02  0.00000000000E+00 0.  1.
          2   -1    0    0  502    0 -0.00000000000E+00 -0.00000000000E+00 -0.63936488958E+03  0.63936488958E+03  0.00000000000E+00 0. -1.
         24    2    1    2    0    0  0.19774840326E+02  0.52861513025E+02 -0.38319493940E+03  0.39478967149E+03  0.76388083295E+02 0.  0.
         23    2    1    2    0    0 -0.46810906982E+02 -0.27225484932E+02 -0.19854401886E+03  0.22489509230E+03  0.90695022326E+02 0.  0.
        -11    1    3    3    0    0  0.46828045350E+02  0.39123505028E+02 -0.30217681486E+03  0.30827640506E+03  0.00000000000E+00 0.  1.
         12    1    3    3    0    0 -0.27053205024E+02  0.13738007996E+02 -0.81018124539E+02  0.86513266437E+02  0.00000000000E+00 0. -1.
        -13    1    4    4    0    0 -0.25767877944E+02  0.10951051099E+02 -0.75624603909E+01  0.29001721691E+02  0.00000000000E+00 0.  1.
         13    1    4    4    0    0 -0.21043029038E+02 -0.38176536031E+02 -0.19098155847E+03  0.19589337061E+03  0.00000000000E+00 0. -1.
          1    1    1    2  501    0  0.27036066656E+02 -0.25636028093E+02 -0.29674722784E+02  0.47631334318E+02  0.00000000000E+00 0. -1.
<scales pt_clust_5="13000.00000" pt_clust_6="13000.00000" pt_clust_7="13000.00000" pt_clust_8="13000.00000" pt_clust_9="37.25795"></scales>
<clustering>
<clus scale="   37.258">  1  9  2 -1</clus>
<clus scale="   76.388">  5  6 -1 -1</clus>
<clus scale="   90.695">  7  8 -1 -1</clus>
<clus scale="   92.998">  2  5  1 -1</clus>
<clus scale="   37.258">  1  5  2 -1</clus>
</clustering>
</event>
<event>
 9    2  0.5615294E-005  0.9704320E+02  0.7546771E-02  0.1290850E+00
         -3   -1    0    0    0  501 -0.00000000000E+00  0.00000000000E+00  0.84351759702E+02  0.84351759702E+02  0.00000000000E+00 0.  1.
         21   -1    0    0  501  502  0.00000000000E+00 -0.00000000000E+00 -0.27048683115E+03  0.27048683115E+03  0.00000000000E+00 0.  1.
         24    2    1    2    0    0  0.16098824303E+02  0.42071005093E+02  0.37612373515E+02  0.98690084882E+02  0.79346711331E+02 0.  0.
         23    2    1    2    0    0 -0.22617373036E+02 -0.18894696964E+02 -0.13094346793E+03  0.16027248765E+03  0.87592941312E+02 0.  0.
        -13    1    3    3    0    0  0.23014917505E+02  0.42339091000E+02  0.59018039916E+02  0.76193268010E+02  0.00000000000E+00 0.  1.
         14    1    3    3    0    0 -0.69160932027E+01 -0.26808590769E+00 -0.21405666402E+02  0.22496816871E+02  0.00000000000E+00 0. -1.
        -11    1    4    4    0    0  0.28064752327E+02  0.74799220152E+01 -0.19339444310E+02  0.34894034773E+02  0.00000000000E+00 0. -1.
         11    1    4    4    0    0 -0.50682125363E+02 -0.26374618979E+02 -0.11160402363E+03  0.12537845288E+03  0.00000000000E+00 0.  1.
         -4    1    1    2    0  502  0.65185487336E+01 -0.23176308129E+02 -0.92803977025E+02  0.95876018314E+02  0.00000000000E+00 0.  1.
<scales pt_clust_5="13000.00000" pt_clust_6="13000.00000" pt_clust_7="13000.00000" pt_clust_8="13000.00000" pt_clust_9="24.07556"></scales>
<clustering>
<clus scale="   24.076">  2  9  1 -1</clus>
<clus scale="   79.347">  5  6 -1 -1</clus>
<clus scale="   87.593">  7  8 -1 -1</clus>
<clus scale="   89.670">  1  5  2 -1</clus>
<clus scale="   24.076">  2  5  1 -1</clus>
</clustering>
</event>
<event>
 9    2  0.5615294E-005  0.1157534E+03  0.7546771E-02  0.1253985E+00
          2   -1    0    0  502    0 -0.00000000000E+00  0.00000000000E+00  0.38177498594E+03  0.38177498594E+03  0.00000000000E+00 0. -1.
         21   -1    0    0  501  502  0.00000000000E+00 -0.00000000000E+00 -0.77354534851E+02  0.77354534851E+02  0.00000000000E+00 0. -1.
         24    2    1    2    0    0 -0.31470548504E+02  0.59654613129E+02  0.20453073933E+03  0.23006207772E+03  0.80911482390E+02 0.  0.
         23    2    1    2    0    0  0.51756421181E+02 -0.71207374210E+02  0.56405719802E+00  0.12703524927E+03  0.91588313230E+02 0.  0.
        -13    1    3    3    0    0 -0.44883273758E+02  0.24908491530E+01  0.10932760433E+03  0.11820845004E+03  0.00000000000E+00 0.  1.
         14    1    3    3    0    0  0.13412725254E+02  0.57163763976E+02  0.95203135001E+02  0.11185362768E+03  0.00000000000E+00 0. -1.
        -11    1    4    4    0    0  0.56895687502E+02 -0.40072587316E+02 -0.36316280734E+02  0.78497157635E+02  0.00000000000E+00 0. -1.
         11    1    4    4    0    0 -0.51392663204E+01 -0.31134786894E+02  0.36880337932E+02  0.48538091632E+02  0.00000000000E+00 0.  1.
          1    1    1    2  501    0 -0.20285872677E+02  0.11552761081E+02  0.99325654561E+02  0.10203219381E+03  0.00000000000E+00 0. -1.
<scales pt_clust_5="13000.00000" pt_clust_6="13000.00000" pt_clust_7="13000.00000" pt_clust_8="13000.00000" pt_clust_9="23.34488"></scales>
<clustering>
<clus scale="   23.345">  2  9  1 -1</clus>
<clus scale="   80.911">  5  6 -1 -1</clus>
<clus scale="   91.588">  7  8 -1 -1</clus>
<clus scale="  107.504">  1  5  2 -1</clus>
<clus scale="   23.345">  2  5  1 -1</clus>
</clustering>
</event>
<event>
 9    2  0.5615294E-005  0.1091756E+03  0.7546771E-02  0.1267783E+00
          2   -1    0    0  502    0 -0.00000000000E+00  0.00000000000E+00  0.22835512679E+03  0.22835512679E+03  0.00000000000E+00 0. -1.
         21   -1    0    0  501  502  0.00000000000E+00 -0.00000000000E+00 -0.68984988110E+02  0.68984988110E+02  0.00000000000E+00 0.  1.
         23    2    1    2    0    0 -0.33025742890E+02 -0.60333813523E+02  0.13365612349E+03  0.17644490660E+03  0.92401174082E+02 0.  0.
         24    2    1    2    0    0  0.26236140309E+02  0.32424141827E+02  0.24003143825E+02  0.92120643863E+02  0.78551906919E+02 0.  0.
        -13    1    4    4    0    0 -0.53219391368E+01 -0.23585180949E+02  0.10848821812E+02  0.26500579829E+02  0.00000000000E+00 0.  1.
         14    1    4    4    0    0  0.31558079446E+02  0.56009322776E+02  0.13154322013E+02  0.65620064033E+02  0.00000000000E+00 0. -1.
        -13    1    3    3    0    0 -0.97691532587E+01 -0.82111437263E+02  0.10447925240E+03  0.13324278092E+03  0.00000000000E+00 0. -1.
         13    1    3    3    0    0 -0.23256589632E+02  0.21777623740E+02  0.29176871095E+02  0.43202125688E+02  0.00000000000E+00 0.  1.
          1    1    1    2  501    0  0.67896025814E+01  0.27909671696E+02  0.17108713607E+01  0.28774564431E+02  0.00000000000E+00 0. -1.
<scales pt_clust_5="13000.00000" pt_clust_6="13000.00000" pt_clust_7="13000.00000" pt_clust_8="13000.00000" pt_clust_9="28.72366"></scales>
<clustering>
<clus scale="   28.724">  2  9  1 -1</clus>
<clus scale="   78.552">  5  6 -1 -1</clus>
<clus scale="   92.401">  7  8 -1 -1</clus>
<clus scale="   97.733">  2  5  1 -1</clus>
<clus scale="   28.724">  2  5  1 -1</clus>
</clustering>
</event>
<event>
 9    2  0.5615294E-005  0.3963922E+03  0.7546771E-02  0.1078419E+00
          2   -1    0    0  502    0 -0.00000000000E+00  0.00000000000E+00  0.32545432275E+04  0.32545432275E+04  0.00000000000E+00 0. -1.
         21   -1    0    0  501  502  0.00000000000E+00 -0.00000000000E+00 -0.71131386838E+02  0.71131386838E+02  0.00000000000E+00 0. -1.
         24    2    1    2    0    0 -0.47533509545E+02  0.12594848528E+03  0.38693568451E+03  0.41726776124E+03  0.79187784081E+02 0.  0.
         23    2    1    2    0    0  0.24230914064E+03  0.24975527423E+03  0.15839591879E+04  0.16241606697E+04  0.88767985694E+02 0.  0.
        -11    1    3    3    0    0 -0.61923820478E+02  0.57853471943E+02  0.24378738366E+03  0.25809663343E+03  0.00000000000E+00 0.  1.
         12    1    3    3    0    0  0.14390310933E+02  0.68095013338E+02  0.14314830086E+03  0.15917112781E+03  0.00000000000E+00 0. -1.
        -11    1    4    4    0    0  0.16697806200E+03  0.21077969886E+03  0.13123490027E+04  0.13396154895E+04  0.00000000000E+00 0. -1.
         11    1    4    4    0    0  0.75331078634E+02  0.38975575377E+02  0.27161018517E+03  0.28454518020E+03  0.00000000000E+00 0.  1.
          1    1    1    2  501    0 -0.19477563109E+03 -0.37570375951E+03  0.12125169682E+04  0.12842461834E+04  0.00000000000E+00 0. -1.
<scales pt_clust_5="13000.00000" pt_clust_6="13000.00000" pt_clust_7="13000.00000" pt_clust_8="13000.00000" pt_clust_9="386.32502"></scales>
<clustering>
<clus scale="   79.188">  5  6 -1 -1</clus>
<clus scale="   88.768">  7  8 -1 -1</clus>
<clus scale="  156.183">  1  5  2 -1</clus>
<clus scale="  386.325">  2  9  1 -1</clus>
<clus scale="  386.325">  2  5  1 -1</clus>
</clustering>
</event>
<event>
 9    2  0.5615294E-005  0.1923937E+03  0.7546771E-02  0.1157628E+00
         21   -1    0    0  501  502  0.00000000000E+00  0.00000000000E+00  0.22492785461E+03  0.22492785461E+03  0.00000000000E+00 0. -1.
         -3   -1    0    0    0  501 -0.00000000000E+00 -0.00000000000E+00 -0.26924184803E+03  0.26924184803E+03  0.00000000000E+00 0.  1.
         23    2    1    2    0    0 -0.23229586667E+02 -0.16189253840E+03 -0.10582490818E+03  0.21544806868E+03  0.92033425568E+02 0.  0.
         24    2    1    2    0    0  0.37703723331E+02  0.18179859284E+03  0.10591609174E+03  0.22795184591E+03  0.79192969715E+02 0.  0.
        -13    1    4    4    0    0 -0.24243509763E+02  0.66745564084E+02  0.32866307065E+02  0.78249039806E+02  0.00000000000E+00 0.  1.
         14    1    4    4    0    0  0.61947233094E+02  0.11505302875E+03  0.73049784679E+02  0.14970280610E+03  0.00000000000E+00 0. -1.
        -11    1    3    3    0    0 -0.27987990829E+00 -0.14026917577E+03 -0.11631026116E+03  0.18221854147E+03  0.00000000000E+00 0.  1.
         11    1    3    3    0    0 -0.22949706758E+02 -0.21623362633E+02  0.10485352981E+02  0.33229527216E+02  0.00000000000E+00 0. -1.
         -4    1    1    2    0  502 -0.14474136665E+02 -0.19906054436E+02 -0.44405176984E+02  0.50769788047E+02  0.00000000000E+00 0.  1.
<scales pt_clust_5="13000.00000" pt_clust_6="13000.00000" pt_clust_7="13000.00000" pt_clust_8="13000.00000" pt_clust_9="24.61203"></scales>
<clustering>
<clus scale="   24.612">  1  9  2 -1</clus>
<clus scale="   79.193">  5  6 -1 -1</clus>
<clus scale="   92.033">  7  8 -1 -1</clus>
<clus scale="  186.592">  1  5  2 -1</clus>
<clus scale="   24.612">  1  5  2 -1</clus>
</clustering>
</event>
<event>
 9    2  0.5615294E-005  0.1099410E+03  0.7546771E-02  0.1264582E+00
          2   -1    0    0  502    0 -0.00000000000E+00  0.00000000000E+00  0.52534490017E+03  0.52534490017E+03  0.00000000000E+00 0. -1.
         21   -1    0    0  501  502  0.00000000000E+00 -0.00000000000E+00 -0.52838370537E+02  0.52838370537E+02  0.00000000000E+00 0. -1.
         24    2    1    2    0    0 -0.33384218792E+02  0.65191836627E+02  0.30561821079E+03  0.32468946068E+03  0.81585988287E+02 0.  0.
         23    2    1    2    0    0  0.24293322242E+02 -0.24478090761E+01  0.24760444865E+02  0.97866723838E+02  0.91480373469E+02 0.  0.
        -11    1    3    3    0    0  0.21758662184E+02 -0.25973860114E+01  0.51576862423E+02  0.56038901948E+02  0.00000000000E+00 0.  1.
         12    1    3    3    0    0 -0.55142880976E+02  0.67789222639E+02  0.25404134836E+03  0.26865055873E+03  0.00000000000E+00 0. -1.
        -11    1    4    4    0    0  0.44701024842E+02 -0.31427585123E+02  0.29515126106E+02  0.62104890288E+02  0.00000000000E+00 0.  1.
         11    1    4    4    0    0 -0.20407702600E+02  0.28979776047E+02 -0.47546812408E+01  0.35761833550E+02  0.00000000000E+00 0. -1.
          1    1    1    2  501    0  0.90908965494E+01 -0.62744027551E+02  0.14212787398E+03  0.15562708619E+03  0.00000000000E+00 0. -1.
<scales pt_clust_5="13000.00000" pt_clust_6="13000.00000" pt_clust_7="13000.00000" pt_clust_8="13000.00000" pt_clust_9="63.39922"></scales>
<clustering>
<clus scale="   63.399">  2  9  1 -1</clus>
<clus scale="   81.586">  5  6 -1 -1</clus>
<clus scale="   91.480">  7  8 -1 -1</clus>
<clus scale="  101.856">  1  5  2 -1</clus>
<clus scale="   63.399">  2  5  1 -1</clus>
</clustering>
</event>
<event>
 9    2  0.5615294E-005  0.9905170E+02  0.7546771E-02  0.1282890E+00
         21   -1    0    0  501  502  0.00000000000E+00  0.00000000000E+00  0.35756071086E+02  0.35756071086E+02  0.00000000000E+00 0. -1.
          2   -1    0    0  502    0 -0.00000000000E+00 -0.00000000000E+00 -0.87220155749E+03  0.87220155749E+03  0.00000000000E+00 0. -1.
         24    2    1    2    0    0 -0.44899851768E+02 -0.17269508347E+02 -0.35643759555E+03  0.37134403499E+03  0.92381817410E+02 0.  0.
         23    2    1    2    0    0 -0.99782441099E+01 -0.35748429517E+02 -0.77725604511E+02  0.12715841284E+03  0.93543983187E+02 0.  0.
        -13    1    3    3    0    0  0.23589955405E+02 -0.18547959655E+02 -0.59891289308E+02  0.66988650818E+02  0.00000000000E+00 0.  1.
         14    1    3    3    0    0 -0.68489807173E+02  0.12784513078E+01 -0.29654630625E+03  0.30435538417E+03  0.00000000000E+00 0. -1.
        -11    1    4    4    0    0  0.31636225619E+02  0.12683077651E+02 -0.13701884584E+02  0.36734899908E+02  0.00000000000E+00 0. -1.
         11    1    4    4    0    0 -0.41614469729E+02 -0.48431507168E+02 -0.64023719927E+02  0.90423512930E+02  0.00000000000E+00 0.  1.
          1    1    1    2  501    0  0.54878095878E+02  0.53017937864E+02 -0.40228228634E+03  0.40945518076E+03  0.00000000000E+00 0. -1.
<scales pt_clust_5="13000.00000" pt_clust_6="13000.00000" pt_clust_7="13000.00000" pt_clust_8="13000.00000" pt_clust_9="76.30539"></scales>
<clustering>
<clus scale="   76.305">  1  9  2 -1</clus>
<clus scale="   92.382">  5  6 -1 -1</clus>
<clus scale="   93.544">  7  8 -1 -1</clus>
<clus scale="   97.955">  2  5  1 -1</clus>
<clus scale="   76.305">  1  5  2 -1</clus>
</clustering>
</event>
<event>
 9    2  0.5615294E-005  0.1778277E+03  0.7546771E-02  0.1173133E+00
         -1   -1    0    0    0  501 -0.00000000000E+00  0.00000000000E+00  0.26871090649E+04  0.26871090649E+04  0.00000000000E+00 0.  1.
         21   -1    0    0  501  502  0.00000000000E+00 -0.00000000000E+00 -0.43114083083E+02  0.43114083083E+02  0.00000000000E+00 0.  1.
         24    2    1    2    0    0 -0.13958528525E+03  0.32725359114E+02  0.57875945364E+03  0.60189390441E+03  0.82211714502E+02 0.  0.
         23    2    1    2    0    0 -0.10066294801E+03 -0.99160199113E+02  0.28347827980E+03  0.32922066049E+03  0.89780476659E+02 0.  0.
        -11    1    3    3    0    0 -0.76864065419E+01  0.26250905089E+02  0.51100081910E+02  0.57960410926E+02  0.00000000000E+00 0.  1.
         12    1    3    3    0    0 -0.13189887871E+03  0.64744540242E+01  0.52765937173E+03  0.54393349349E+03  0.00000000000E+00 0. -1.
        -13    1    4    4    0    0 -0.45048769854E+02 -0.10184474679E+03  0.19907570139E+03  0.22810716559E+03  0.00000000000E+00 0.  1.
         13    1    4    4    0    0 -0.55614178159E+02  0.26845476728E+01  0.84402578412E+02  0.10111349490E+03  0.00000000000E+00 0. -1.
         -2    1    1    2    0  502  0.24024823326E+03  0.66434840000E+02  0.17817572483E+04  0.17991085830E+04  0.00000000000E+00 0.  1.
<scales pt_clust_5="13000.00000" pt_clust_6="13000.00000" pt_clust_7="13000.00000" pt_clust_8="13000.00000" pt_clust_9="153.49981"></scales>
<clustering>
<clus scale="   82.212">  5  6 -1 -1</clus>
<clus scale="   89.780">  7  8 -1 -1</clus>
<clus scale="  165.269">  1  5  2 -1</clus>
<clus scale="  153.500">  2  9  1 -1</clus>
<clus scale="  153.500">  2  5  1 -1</clus>
</clustering>
</event>
<event>
 9    2  0.5615294E-005  0.9655823E+02  0.7546771E-02  0.1297098E+00
         21   -1    0    0  501  502  0.00000000000E+00  0.00000000000E+00  0.17691233284E+03  0.17691233284E+03  0.00000000000E+00 0.  1.
          2   -1    0    0  502    0 -0.00000000000E+00 -0.00000000000E+00 -0.14185998819E+03  0.14185998819E+03  0.00000000000E+00 0. -1.
         23    2    1    2    0    0 -0.32280475952E+01 -0.63328010216E+01 -0.97004540435E+02  0.13663982065E+03  0.95968927590E+02 0.  0.
         24    2    1    2    0    0  0.23604488392E+02  0.12495255538E+02  0.52128223725E+02  0.99417531405E+02  0.80331753115E+02 0.  0.
        -13    1    4    4    0    0  0.22396765902E+02 -0.92169099420E+01  0.68202943155E+02  0.72375465503E+02  0.00000000000E+00 0.  1.
         14    1    4    4    0    0  0.12077224910E+01  0.21712165480E+02 -0.16074719430E+02  0.27042065901E+02  0.00000000000E+00 0. -1.
        -13    1    3    3    0    0  0.22970643184E+02 -0.43961474123E+02 -0.59051860082E+02  0.77119283156E+02  0.00000000000E+00 0. -1.
         13    1    3    3    0    0 -0.26198690779E+02  0.37628673101E+02 -0.37952680353E+02  0.59520537496E+02  0.00000000000E+00 0.  1.
          1    1    1    2  501    0 -0.20376440797E+02 -0.61624545164E+01  0.79928661359E+02  0.82714968971E+02  0.00000000000E+00 0. -1.
<scales pt_clust_5="13000.00000" pt_clust_6="13000.00000" pt_clust_7="13000.00000" pt_clust_8="13000.00000" pt_clust_9="21.28791"></scales>
<clustering>
<clus scale="   21.288">  1  9  2 -1</clus>
<clus scale="   80.332">  5  6 -1 -1</clus>
<clus scale="   81.035">  1  5  2 -1</clus>
<clus scale="   95.969">  7  8 -1 -1</clus>
<clus scale="   21.288">  1  5  2 -1</clus>
</clustering>
</event>
<event>
 9    2  0.5615294E-005  0.1147561E+03  0.7546771E-02  0.1256051E+00
         21   -1    0    0  501  502  0.00000000000E+00  0.00000000000E+00  0.29827999688E+03  0.29827999688E+03  0.00000000000E+00 0. -1.
          2   -1    0    0  502    0 -0.00000000000E+00 -0.00000000000E+00 -0.75411151966E+02  0.75411151966E+02  0.00000000000E+00 0. -1.
         24    2    1    2    0    0 -0.32634055546E+02 -0.67691408002E+02  0.15321567367E+02  0.11072915868E+03  0.79869192160E+02 0.  0.
         23    2    1    2    0    0 -0.39564485538E+01  0.57022791159E+02  0.19512597877E+03  0.22287492194E+03  0.91278864163E+02 0.  0.
        -13    1    3    3    0    0  0.10208596259E+02 -0.33391970977E+02 -0.24729559994E+02  0.42787735402E+02  0.00000000000E+00 0.  1.
         14    1    3    3    0    0 -0.42842651805E+02 -0.34299437024E+02  0.40051127361E+02  0.67941423276E+02  0.00000000000E+00 0. -1.
        -11    1    4    4    0    0  0.35537918748E+02  0.12185139952E+02  0.32698184900E+02  0.49805547887E+02  0.00000000000E+00 0.  1.
         11    1    4    4    0    0 -0.39494367301E+02  0.44837651207E+02  0.16242779387E+03  0.17306937406E+03  0.00000000000E+00 0. -1.
          1    1    1    2  501    0  0.36590504100E+02  0.10668616843E+02  0.12421298777E+02  0.40087068226E+02  0.00000000000E+00 0. -1.
<scales pt_clust_5="13000.00000" pt_clust_6="13000.00000" pt_clust_7="13000.00000" pt_clust_8="13000.00000" pt_clust_9="38.11412"></scales>
<clustering>
<clus scale="   38.114">  1  9  2 -1</clus>
<clus scale="   79.869">  5  6 -1 -1</clus>
<clus scale="   91.279">  7  8 -1 -1</clus>
<clus scale="  105.907">  2  5  1 -1</clus>
<clus scale="   38.114">  1  5  2 -1</clus>
</clustering>
</event>
<event>
 9    2  0.5615294E-005  0.9810326E+02  0.7546771E-02  0.1288641E+00
         -1   -1    0    0    0  501 -0.00000000000E+00  0.00000000000E+00  0.13816846682E+03  0.13816846682E+03  0.00000000000E+00 0.  1.
         21   -1    0    0  501  502  0.00000000000E+00 -0.00000000000E+00 -0.17801828172E+03  0.17801828172E+03  0.00000000000E+00 0. -1.
         23    2    1    2    0    0  0.30805368694E+02  0.24833348179E+02  0.89006013405E+02  0.13408372322E+03  0.92145040503E+02 0.  0.
         24    2    1    2    0    0 -0.11394037297E+02  0.10924295653E+02 -0.10331672509E+03  0.13406497090E+03  0.83963720836E+02 0.  0.
        -13    1    4    4    0    0 -0.46365434508E+02  0.54643747446E+00 -0.41195913787E+02  0.62025441746E+02  0.00000000000E+00 0.  1.
         14    1    4    4    0    0  0.34971397211E+02  0.10377858179E+02 -0.62120811304E+02  0.72039529152E+02  0.00000000000E+00 0. -1.
        -13    1    3    3    0    0 -0.96813382004E+01  0.21673687640E+02  0.90385381863E+02  0.93450491169E+02  0.00000000000E+00 0. -1.
         13    1    3    3    0    0  0.40486706895E+02  0.31596605386E+01 -0.13793684578E+01  0.40633232055E+02  0.00000000000E+00 0.  1.
         -2    1    1    2    0  502 -0.19411331397E+02 -0.35757643832E+02 -0.25539103215E+02  0.48038054416E+02  0.00000000000E+00 0.  1.
<scales pt_clust_5="13000.00000" pt_clust_6="13000.00000" pt_clust_7="13000.00000" pt_clust_8="13000.00000" pt_clust_9="40.68672"></scales>
<clustering>
<clus scale="   40.687">  2  9  1 -1</clus>
<clus scale="   83.964">  5  6 -1 -1</clus>
<clus scale="   90.462">  2  5  1 -1</clus>
<clus scale="   92.145">  7  8 -1 -1</clus>
<clus scale="   40.687">  2  5  1 -1</clus>
</clustering>
</event>
<event>
 9    2  0.5615294E-005  0.9542484E+02  0.7546771E-02  0.1296487E+00
         21   -1    0    0  501  502  0.00000000000E+00  0.00000000000E+00  0.30281835137E+02  0.30281835137E+02  0.00000000000E+00 0. -1.
          2   -1    0    0  502    0 -0.00000000000E+00 -0.00000000000E+00 -0.16584454621E+04  0.16584454621E+04  0.00000000000E+00 0. -1.
         24    2    1    2    0    0 -0.46783396083E+02 -0.32341147692E+01 -0.12373233835E+04  0.12406630193E+04  0.77951437091E+02 0.  0.
         23    2    1    2    0    0 -0.12680882989E+02  0.17131154073E+02 -0.37345451469E+03  0.38457103610E+03  0.89287882892E+02 0.  0.
        -11    1    3    3    0    0 -0.15090977317E+02  0.18893884049E+02 -0.10781256524E+03  0.11049102079E+03  0.00000000000E+00 0.  1.
         12    1    3    3    0    0 -0.31692418767E+02 -0.22127998818E+02 -0.11295108182E+04  0.11301719985E+04  0.00000000000E+00 0. -1.
        -11    1    4    4    0    0  0.10977522140E+02  0.49624914562E+02 -0.23297941245E+03  0.23845868565E+03  0.00000000000E+00 0.  1.
         11    1    4    4    0    0 -0.23658405129E+02 -0.32493760488E+02 -0.14047510224E+03  0.14611235045E+03  0.00000000000E+00 0. -1.
          1    1    1    2  501    0  0.59464279073E+02 -0.13897039304E+02 -0.17385728747E+02  0.63493241775E+02  0.00000000000E+00 0. -1.
<scales pt_clust_5="13000.00000" pt_clust_6="13000.00000" pt_clust_7="13000.00000" pt_clust_8="13000.00000" pt_clust_9="61.06659"></scales>
<clustering>
<clus scale="   61.067">  1  9  2 -1</clus>
<clus scale="   77.951">  5  6 -1 -1</clus>
<clus scale="   84.912">  2  5  1 -1</clus>
<clus scale="   89.288">  7  8 -1 -1</clus>
<clus scale="   61.067">  1  5  2 -1</clus>
</clustering>
</event>
<event>
 9    2  0.5615294E-005  0.1000379E+03  0.7546771E-02  0.1285361E+00
         21   -1    0    0  501  502  0.00000000000E+00  0.00000000000E+00  0.33882354664E+03  0.33882354664E+03  0.00000000000E+00 0. -1.
          2   -1    0    0  502    0 -0.00000000000E+00 -0.00000000000E+00 -0.19810452961E+03  0.19810452961E+03  0.00000000000E+00 0. -1.
         23    2    1    2    0    0 -0.16365788645E+02  0.43230643649E+02 -0.16530114713E+03  0.19397632658E+03  0.90363811564E+02 0.  0.
         24    2    1    2    0    0  0.41322062623E+02  0.77122804585E+01  0.13224499227E+03  0.16015183859E+03  0.79955495710E+02 0.  0.
        -11    1    4    4    0    0 -0.21669677731E+02 -0.36760969258E+01  0.58537535670E+02  0.62527847427E+02  0.00000000000E+00 0.  1.
         12    1    4    4    0    0  0.62991740354E+02  0.11388377384E+02  0.73707456596E+02  0.97623991160E+02  0.00000000000E+00 0. -1.
        -11    1    3    3    0    0 -0.12060452267E+02  0.71684839288E+02 -0.11626929369E+03  0.13712300809E+03  0.00000000000E+00 0. -1.
         11    1    3    3    0    0 -0.43053363777E+01 -0.28454195639E+02 -0.49031853446E+02  0.56853318489E+02  0.00000000000E+00 0.  1.
          1    1    1    2  501    0 -0.24956273978E+02 -0.50942924108E+02  0.17377517190E+03  0.18279991109E+03  0.00000000000E+00 0. -1.
<scales pt_clust_5="13000.00000" pt_clust_6="13000.00000" pt_clust_7="13000.00000" pt_clust_8="13000.00000" pt_clust_9="56.72739"></scales>
<clustering>
<clus scale="   56.727">  1  9  2 -1</clus>
<clus scale="   79.955">  5  6 -1 -1</clus>
<clus scale="   90.364">  7  8 -1 -1</clus>
<clus scale="   90.746">  1  5  2 -1</clus>
<clus scale="   56.727">  1  5  2 -1</clus>
</clustering>
</event>
<event>
 9    2  0.5615294E-005  0.1037206E+03  0.7546771E-02  0.1277720E+00
         21   -1    0    0  501  502  0.00000000000E+00  0.00000000000E+00  0.12772109535E+03  0.12772109535E+03  0.00000000000E+00 0. -1.
          2   -1    0    0  502    0 -0.00000000000E+00 -0.00000000000E+00 -0.15212251637E+04  0.15212251637E+04  0.00000000000E+00 0. -1.
         24    2    1    2    0    0  0.22211359414E+02  0.45532458519E+02 -0.14439927725E+04  0.14471396698E+04  0.80817991646E+02 0.  0.
         23    2    1    2    0    0  0.36532929652E+01 -0.36578417749E+01 -0.38835557619E+02  0.99819886681E+02  0.91810036954E+02 0.  0.
        -13    1    3    3    0    0  0.11676097303E+02  0.18238642948E+02 -0.81358561675E+02  0.84191418224E+02  0.00000000000E+00 0.  1.
         14    1    3    3    0    0  0.10535262111E+02  0.27293815572E+02 -0.13626342108E+04  0.13629482516E+04  0.00000000000E+00 0. -1.
        -13    1    4    4    0    0  0.38727763640E+02  0.19281169231E+02 -0.86997794775E+00  0.43270775647E+02  0.00000000000E+00 0.  1.
         13    1    4    4    0    0 -0.35074470675E+02 -0.22939011006E+02 -0.37965579671E+02  0.56549111034E+02  0.00000000000E+00 0. -1.
          1    1    1    2  501    0 -0.25864652379E+02 -0.41874616744E+02  0.89324261715E+02  0.10198670257E+03  0.00000000000E+00 0. -1.
<scales pt_clust_5="13000.00000" pt_clust_6="13000.00000" pt_clust_7="13000.00000" pt_clust_8="13000.00000" pt_clust_9="49.21853"></scales>
<clustering>
<clus scale="   49.219">  1  9  2 -1</clus>
<clus scale="   80.818">  5  6 -1 -1</clus>
<clus scale="   91.810">  7  8 -1 -1</clus>
<clus scale="   94.130">  2  5  1 -1</clus>
<clus scale="   49.219">  1  5  2 -1</clus>
</clustering>
</event>
<event>
 9    2  0.5615294E-005  0.1414345E+03  0.7546771E-02  0.1213674E+00
          2   -1    0    0  502    0 -0.00000000000E+00  0.00000000000E+00  0.11684918496E+04  0.11684918496E+04  0.00000000000E+00 0. -1.
         21   -1    0    0  501  502  0.00000000000E+00 -0.00000000000E+00 -0.38550174346E+02  0.38550174346E+02  0.00000000000E+00 0. -1.
         24    2    1    2    0    0 -0.13349407083E+02  0.82651975095E+02  0.24354272579E+03  0.26965294278E+03  0.79938067322E+02 0.  0.
         23    2    1    2    0    0  0.36007113620E+02 -0.14884657562E+03  0.31566576319E+03  0.36238345796E+03  0.90692233674E+02 0.  0.
        -11    1    3    3    0    0  0.23133369842E+02  0.14791215260E+02  0.12707503832E+03  0.13000768520E+03  0.00000000000E+00 0.  1.
         12    1    3    3    0    0 -0.36482776925E+02  0.67860759835E+02  0.11646768748E+03  0.13964525758E+03  0.00000000000E+00 0. -1.
        -11    1    4    4    0    0  0.34270705604E+02 -0.90649054388E+01  0.92374428977E+02  0.98942856751E+02  0.00000000000E+00 0.  1.
         11    1    4    4    0    0  0.17364080156E+01 -0.13978167018E+03  0.22329133421E+03  0.26344060121E+03  0.00000000000E+00 0. -1.
          1    1    1    2  501    0 -0.22657706537E+02  0.66194600526E+02  0.57073318626E+03  0.57500562319E+03  0.00000000000E+00 0. -1.
<scales pt_clust_5="13000.00000" pt_clust_6="13000.00000" pt_clust_7="13000.00000" pt_clust_8="13000.00000" pt_clust_9="69.96500"></scales>
<clustering>
<clus scale="   69.965">  2  9  1 -1</clus>
<clus scale="   79.938">  5  6 -1 -1</clus>
<clus scale="   90.692">  7  8 -1 -1</clus>
<clus scale="  134.791">  1  5  2 -1</clus>
<clus scale="   69.965">  2  5  1 -1</clus>
</clustering>
</event>
<event>
 9    2  0.5615294E-005  0.9363923E+02  0.7546771E-02  0.1305560E+00
         21   -1    0    0  501  502  0.00000000000E+00  0.00000000000E+00  0.27748824263E+02  0.27748824263E+02  0.00000000000E+00 0. -1.
          2   -1    0    0  502    0 -0.00000000000E+00 -0.00000000000E+00 -0.41380401565E+03  0.41380401565E+03  0.00000000000E+00 0. -1.
         24    2    1    2    0    0  0.12904802379E+02 -0.13509300000E+02 -0.19869424431E+03  0.21331443833E+03  0.75330019031E+02 0.  0.
         23    2    1    2    0    0  0.11975487481E+01 -0.13556756428E+02 -0.10800346510E+03  0.14321453632E+03  0.93061459115E+02 0.  0.
        -11    1    3    3    0    0 -0.22563234444E+02 -0.30138304783E+02 -0.11259975861E+03  0.11872709296E+03  0.00000000000E+00 0.  1.
         12    1    3    3    0    0  0.35468036823E+02  0.16629004782E+02 -0.86094485703E+02  0.94587345372E+02  0.00000000000E+00 0. -1.
        -13    1    4    4    0    0 -0.39877825067E+02  0.29253564630E-01 -0.85736297709E+02  0.94556620776E+02  0.00000000000E+00 0.  1.
         13    1    4    4    0    0  0.41075373815E+02 -0.13586009992E+02 -0.22267167388E+02  0.48657915543E+02  0.00000000000E+00 0. -1.
          1    1    1    2  501    0 -0.14102351127E+02  0.27066056428E+02 -0.79357481974E+02  0.85023865256E+02  0.00000000000E+00 0. -1.
<scales pt_clust_5="13000.00000" pt_clust_6="13000.00000" pt_clust_7="13000.00000" pt_clust_8="13000.00000" pt_clust_9="30.51964"></scales>
<clustering>
<clus scale="   30.520">  1  9  2 -1</clus>
<clus scale="   75.330">  5  6 -1 -1</clus>
<clus scale="   76.043">  2  5  1 -1</clus>
<clus scale="   93.061">  7  8 -1 -1</clus>
<clus scale="   30.520">  1  5  2 -1</clus>
</clustering>
</event>
<event>
 9    2  0.5615294E-005  0.9387762E+02  0.7546771E-02  0.1298468E+00
         21   -1    0    0  501  502  0.00000000000E+00  0.00000000000E+00  0.51672523432E+02  0.51672523432E+02  0.00000000000E+00 0.  1.
         -1   -1    0    0    0  501 -0.00000000000E+00 -0.00000000000E+00 -0.27675184185E+03  0.27675184185E+03  0.00000000000E+00 0.  1.
         24    2    1    2    0    0  0.29386244457E+02 -0.23495958279E+02 -0.13063679346E+03  0.15895863205E+03  0.82378780518E+02 0.  0.
         23    2    1    2    0    0 -0.37789705464E+01 -0.11057053054E+02 -0.39075405394E+02  0.99357524023E+02  0.90600724240E+02 0.  0.
        -11    1    3    3    0    0  0.51193943891E+02 -0.38505363026E+02 -0.90492797942E+02  0.11087122870E+03  0.00000000000E+00 0.  1.
         12    1    3    3    0    0 -0.21807699435E+02  0.15009404747E+02 -0.40143995521E+02  0.48087403359E+02  0.00000000000E+00 0. -1.
        -13    1    4    4    0    0 -0.29772763066E+02 -0.32354157039E+02 -0.47487035950E+02  0.64716516297E+02  0.00000000000E+00 0.  1.
         13    1    4    4    0    0  0.25993792520E+02  0.21297103985E+02  0.84116305558E+01  0.34641007727E+02  0.00000000000E+00 0. -1.
         -2    1    1    2    0  502 -0.25607273910E+02  0.34553011333E+02 -0.55367119566E+02  0.70108209207E+02  0.00000000000E+00 0.  1.
<scales pt_clust_5="13000.00000" pt_clust_6="13000.00000" pt_clust_7="13000.00000" pt_clust_8="13000.00000" pt_clust_9="43.00750"></scales>
<clustering>
<clus scale="   43.007">  1  9  2 -1</clus>
<clus scale="   82.379">  5  6 -1 -1</clus>
<clus scale="   85.970">  2  5  1 -1</clus>
<clus scale="   90.601">  7  8 -1 -1</clus>
<clus scale="   43.007">  1  5  2 -1</clus>
</clustering>
</event>
<event>
 9    2  0.5615294E-005  0.9186838E+02  0.7546771E-02  0.1304765E+00
          2   -1    0    0  502    0 -0.00000000000E+00  0.00000000000E+00  0.13670419740E+04  0.13670419740E+04  0.00000000000E+00 0. -1.
         21   -1    0    0  501  502  0.00000000000E+00 -0.00000000000E+00 -0.40567211915E+02  0.40567211915E+02  0.00000000000E+00 0.  1.
         24    2    1    2    0    0  0.91540311232E+01 -0.13514745464E+02  0.11591556147E+04  0.11619894794E+04  0.79444109815E+02 0.  0.
         23    2    1    2    0    0 -0.46735877888E+02  0.59639732541E+02  0.89916947683E+02  0.14799281390E+03  0.89864762317E+02 0.  0.
        -11    1    3    3    0    0 -0.40530416156E+01 -0.21820987871E+02  0.89184232601E+02  0.91904352468E+02  0.00000000000E+00 0.  1.
         12    1    3    3    0    0  0.13207072739E+02  0.83062424070E+01  0.10699713821E+04  0.10700851270E+04  0.00000000000E+00 0. -1.
        -11    1    4    4    0    0 -0.18836144440E+02 -0.13193020835E+02  0.60349674659E+02  0.64582810155E+02  0.00000000000E+00 0. -1.
         11    1    4    4    0    0 -0.27899733449E+02  0.72832753376E+02  0.29567273024E+02  0.83410003746E+02  0.00000000000E+00 0.  1.
          1    1    1    2  501    0  0.37581846765E+02 -0.46124987077E+02  0.77402199757E+02  0.97626892639E+02  0.00000000000E+00 0. -1.
<scales pt_clust_5="13000.00000" pt_clust_6="13000.00000" pt_clust_7="13000.00000" pt_clust_8="13000.00000" pt_clust_9="59.49714"></scales>
<clustering>
<clus scale="   59.497">  2  9  1 -1</clus>
<clus scale="   79.444">  5  6 -1 -1</clus>
<clus scale="   81.704">  1  5  2 -1</clus>
<clus scale="   89.865">  7  8 -1 -1</clus>
<clus scale="   59.497">  2  5  1 -1</clus>
</clustering>
</event>
<event>
 9    2  0.5615294E-005  0.1921525E+03  0.7546771E-02  0.1157573E+00
         21   -1    0    0  501  502  0.00000000000E+00  0.00000000000E+00  0.18594577513E+03  0.18594577513E+03  0.00000000000E+00 0. -1.
          2   -1    0    0  502    0 -0.00000000000E+00 -0.00000000000E+00 -0.29717550061E+03  0.29717550061E+03  0.00000000000E+00 0. -1.
         24    2    1    2    0    0  0.13915540265E+03  0.80780674434E+02 -0.24767355372E+02  0.18172567918E+03  0.80753062680E+02 0.  0.
         23    2    1    2    0    0 -0.15313226241E+03 -0.95836918801E+02  0.10260647921E+02  0.20251493456E+03  0.90955005518E+02 0.  0.
        -11    1    3    3    0    0  0.45440486659E+02 -0.13172082792E+02 -0.76320045435E+01  0.47922740805E+02  0.00000000000E+00 0.  1.
         12    1    3    3    0    0  0.93714915990E+02  0.93952757225E+02 -0.17135350829E+02  0.13380293837E+03  0.00000000000E+00 0. -1.
        -11    1    4    4    0    0 -0.44703100659E+02  0.21210803615E+01 -0.26267998752E+02  0.51892908465E+02  0.00000000000E+00 0.  1.
         11    1    4    4    0    0 -0.10842916175E+03 -0.97957999163E+02  0.36528646674E+02  0.15062202609E+03  0.00000000000E+00 0. -1.
          1    1    1    2  501    0  0.13976859757E+02  0.15056244368E+02 -0.96723018023E+02  0.98880662005E+02  0.00000000000E+00 0. -1.
<scales pt_clust_5="13000.00000" pt_clust_6="13000.00000" pt_clust_7="13000.00000" pt_clust_8="13000.00000" pt_clust_9="20.54370"></scales>
<clustering>
<clus scale="   20.544">  1  9  2 -1</clus>
<clus scale="   80.753">  5  6 -1 -1</clus>
<clus scale="   90.955">  7  8 -1 -1</clus>
<clus scale="  187.539">  2  5  1 -1</clus>
<clus scale="   20.544">  1  5  2 -1</clus>
</clustering>
</event>
<event>
 9    2  0.5615294E-005  0.2068257E+03  0.7546771E-02  0.1174595E+00
         21   -1    0    0  501  502  0.00000000000E+00  0.00000000000E+00  0.18101657536E+04  0.18101657536E+04  0.00000000000E+00 0.  1.
         -3   -1    0    0    0  501 -0.00000000000E+00 -0.00000000000E+00 -0.70386766841E+02  0.70386766841E+02  0.00000000000E+00 0.  1.
         24    2    1    2    0    0  0.28320060468E+02 -0.56785669989E+02  0.17423335322E+03  0.20169875734E+03  0.79363021611E+02 0.  0.
         23    2    1    2    0    0 -0.18434356180E+03 -0.43069203882E+02  0.16972568225E+03  0.27079564455E+03  0.93198545001E+02 0.  0.
        -13    1    3    3    0    0  0.49587668882E+02 -0.58485203483E+02  0.11057025006E+03  0.13455569898E+03  0.00000000000E+00 0.  1.
         14    1    3    3    0    0 -0.21267608413E+02  0.16995334937E+01  0.63663103161E+02  0.67143058359E+02  0.00000000000E+00 0. -1.
        -11    1    4    4    0    0 -0.29008140324E+02 -0.38520625484E+02  0.73845274113E+02  0.88195438100E+02  0.00000000000E+00 0. -1.
         11    1    4    4    0    0 -0.15533542147E+03 -0.45485783984E+01  0.95880408140E+02  0.18260020645E+03  0.00000000000E+00 0.  1.
         -4    1    1    2    0  502  0.15602350133E+03  0.99854873872E+02  0.13958199513E+04  0.14080581185E+04  0.00000000000E+00 0.  1.
<scales pt_clust_5="13000.00000" pt_clust_6="13000.00000" pt_clust_7="13000.00000" pt_clust_8="13000.00000" pt_clust_9="184.63724"></scales>
<clustering>
<clus scale="   79.363">  5  6 -1 -1</clus>
<clus scale="   93.199">  7  8 -1 -1</clus>
<clus scale="  101.613">  2  5  1 -1</clus>
<clus scale="  184.637">  1  9  2 -1</clus>
<clus scale="  184.637">  1  5  2 -1</clus>
</clustering>
</event>
<event>
 9    2  0.5615294E-005  0.1058800E+03  0.7546771E-02  0.1269803E+00
         21   -1    0    0  501  502  0.00000000000E+00  0.00000000000E+00  0.34236505260E+02  0.34236505260E+02  0.00000000000E+00 0.  1.
          2   -1    0    0  502    0 -0.00000000000E+00 -0.00000000000E+00 -0.48581901854E+03  0.48581901854E+03  0.00000000000E+00 0. -1.
         24    2    1    2    0    0  0.66845116779E+01  0.46297563961E+02 -0.26235122936E+03  0.28130058986E+03  0.90076118831E+02 0.  0.
         23    2    1    2    0    0 -0.36821739272E+02 -0.49903842812E+02 -0.12598470389E+03  0.16860233157E+03  0.93318629360E+02 0.  0.
        -11    1    3    3    0    0 -0.80240898974E+01 -0.21436837940E+02 -0.24382452282E+02  0.33442906854E+02  0.00000000000E+00 0.  1.
         12    1    3    3    0    0  0.14708601575E+02  0.67734401901E+02 -0.23796877708E+03  0.24785768301E+03  0.00000000000E+00 0. -1.
        -11    1    4    4    0    0  0.20850748101E+02 -0.39701498124E+02 -0.23662247789E+02  0.50703694344E+02  0.00000000000E+00 0.  1.
         11    1    4    4    0    0 -0.57672487373E+02 -0.10202344688E+02 -0.10232245610E+03  0.11789863722E+03  0.00000000000E+00 0. -1.
          1    1    1    2  501    0  0.30137227594E+02  0.36062788512E+01 -0.63246580027E+02  0.70152602370E+02  0.00000000000E+00 0. -1.
<scales pt_clust_5="13000.00000" pt_clust_6="13000.00000" pt_clust_7="13000.00000" pt_clust_8="13000.00000" pt_clust_9="30.35224"></scales>
<clustering>
<clus scale="   30.352">  1  9  2 -1</clus>
<clus scale="   90.076">  5  6 -1 -1</clus>
<clus scale="   93.319">  7  8 -1 -1</clus>
<clus scale="  103.034">  2  5  1 -1</clus>
<clus scale="   30.352">  1  5  2 -1</clus>
</clustering>
</event>
<event>
 9    2  0.5615294E-005  0.1307667E+03  0.7546771E-02  0.1229184E+00
          2   -1    0    0  502    0 -0.00000000000E+00  0.00000000000E+00  0.65480271700E+03  0.65480271700E+03  0.00000000000E+00 0. -1.
         21   -1    0    0  501  502  0.00000000000E+00 -0.00000000000E+00 -0.80013151118E+02  0.80013151118E+02  0.00000000000E+00 0. -1.
         23    2    1    2    0    0 -0.10200740977E+03 -0.83036779614E+01  0.25521545683E+03  0.28973197202E+03  0.91297445140E+02 0.  0.
         24    2    1    2    0    0  0.61032043345E+02 -0.10036035549E+03  0.48598194906E+02  0.15027073685E+03  0.80139868579E+02 0.  0.
        -13    1    4    4    0    0  0.46414576740E+02 -0.59451592539E+02 -0.11312118808E+02  0.76267744305E+02  0.00000000000E+00 0.  1.
         14    1    4    4    0    0  0.14617466604E+02 -0.40908762953E+02  0.59910313714E+02  0.74002992545E+02  0.00000000000E+00 0. -1.
        -11    1    3    3    0    0 -0.10188910588E+03 -0.34487200763E+02  0.22724632254E+03  0.25141926740E+03  0.00000000000E+00 0. -1.
         11    1    3    3    0    0 -0.11830389160E+00  0.26183522802E+02  0.27969134295E+02  0.38312704621E+02  0.00000000000E+00 0.  1.
          1    1    1    2  501    0  0.40975366425E+02  0.10866403345E+03  0.27097591415E+03  0.29481315925E+03  0.00000000000E+00 0. -1.
<scales pt_clust_5="13000.00000" pt_clust_6="13000.00000" pt_clust_7="13000.00000" pt_clust_8="13000.00000" pt_clust_9="116.13297"></scales>
<clustering>
<clus scale="   80.140">  5  6 -1 -1</clus>
<clus scale="   91.297">  7  8 -1 -1</clus>
<clus scale="  116.133">  2  9  1 -1</clus>
<clus scale="  123.236">  2  5  1 -1</clus>
<clus scale="  116.133">  2  5  1 -1</clus>
</clustering>
</event>
<event>
 9    2  0.5615294E-005  0.9709055E+02  0.7546771E-02  0.1292965E+00
         -1   -1    0    0    0  501 -0.00000000000E+00  0.00000000000E+00  0.66232545251E+03  0.66232545251E+03  0.00000000000E+00 0.  1.
         21   -1    0    0  501  502  0.00000000000E+00 -0.00000000000E+00 -0.77742673331E+02  0.77742673331E+02  0.00000000000E+00 0.  1.
         24    2    1    2    0    0 -0.35933316352E+02  0.29822856362E+01  0.45971118069E+03  0.46781633920E+03  0.78852142088E+02 0.  0.
         23    2    1    2    0    0  0.13272963612E+01 -0.57929081572E+02 -0.23574503528E+02  0.11022409702E+03  0.90752708717E+02 0.  0.
        -13    1    3    3    0    0 -0.57548501676E+02  0.17620563599E+02  0.34076105420E+03  0.34603527330E+03  0.00000000000E+00 0.  1.
         14    1    3    3    0    0  0.21615185324E+02 -0.14638277963E+02  0.11895012650E+03  0.12178106590E+03  0.00000000000E+00 0. -1.
        -11    1    4    4    0    0 -0.14640394067E+02 -0.40849226360E+02 -0.55626593539E+02  0.70550112271E+02  0.00000000000E+00 0.  1.
         11    1    4    4    0    0  0.15967690428E+02 -0.17079855212E+02  0.32052090011E+02  0.39673984747E+02  0.00000000000E+00 0. -1.
         -2    1    1    2    0  502  0.34606019991E+02  0.54946795936E+02  0.14844610201E+03  0.16202768962E+03  0.00000000000E+00 0.  1.
<scales pt_clust_5="13000.00000" pt_clust_6="13000.00000" pt_clust_7="13000.00000" pt_clust_8="13000.00000" pt_clust_9="64.93636"></scales>
<clustering>
<clus scale="   64.936">  2  9  1 -1</clus>
<clus scale="   78.852">  5  6 -1 -1</clus>
<clus scale="   86.071">  1  5  2 -1</clus>
<clus scale="   90.753">  7  8 -1 -1</clus>
<clus scale="   64.936">  2  5  1 -1</clus>
</clustering>
</event>
<event>
 9    2  0.5615294E-005  0.9315598E+02  0.7546771E-02  0.1301413E+00
          2   -1    0    0  502    0 -0.00000000000E+00  0.00000000000E+00  0.62638109233E+02  0.62638109233E+02  0.00000000000E+00 0. -1.
         21   -1    0    0  501  502  0.00000000000E+00 -0.00000000000E+00 -0.29379024896E+03  0.29379024896E+03  0.00000000000E+00 0. -1.
         23    2    1    2    0    0  0.12267845095E+02 -0.62185069663E+01 -0.91294318530E+02  0.12958349119E+03  0.90928866374E+02 0.  0.
         24    2    1    2    0    0  0.40112556616E+02  0.33671355357E+02 -0.13721700126E+03  0.16764740677E+03  0.80835451339E+02 0.  0.
        -13    1    4    4    0    0  0.21243709844E+02  0.59669150320E+02 -0.80093693670E+02  0.10211122599E+03  0.00000000000E+00 0.  1.
         14    1    4    4    0    0  0.18868846772E+02 -0.25997794963E+02 -0.57123307589E+02  0.65536180781E+02  0.00000000000E+00 0. -1.
        -13    1    3    3    0    0  0.12665049105E+02  0.28258911683E+02 -0.89890649092E+02  0.95075224704E+02  0.00000000000E+00 0. -1.
         13    1    3    3    0    0 -0.39720400954E+00 -0.34477418650E+02 -0.14036694385E+01  0.34508266483E+02  0.00000000000E+00 0.  1.
          1    1    1    2  501    0 -0.52380401711E+02 -0.27452848391E+02 -0.26408199385E+01  0.59197460234E+02  0.00000000000E+00 0. -1.
<scales pt_clust_5="13000.00000" pt_clust_6="13000.00000" pt_clust_7="13000.00000" pt_clust_8="13000.00000" pt_clust_9="59.13856"></scales>
<clustering>
<clus scale="   59.139">  2  9  1 -1</clus>
<clus scale="   80.835">  5  6 -1 -1</clus>
<clus scale="   83.333">  2  5  1 -1</clus>
<clus scale="   90.929">  7  8 -1 -1</clus>
<clus scale="   59.139">  2  5  1 -1</clus>
</clustering>
</event>
<event>
 9    2  0.5615294E-005  0.9571619E+02  0.7546771E-02  0.1294167E+00
         21   -1    0    0  501  502  0.00000000000E+00  0.00000000000E+00  0.36032990413E+02  0.36032990413E+02  0.00000000000E+00 0.  1.
         -1   -1    0    0    0  501 -0.00000000000E+00 -0.00000000000E+00 -0.43683803110E+03  0.43683803110E+03  0.00000000000E+00 0.  1.
         23    2    1    2    0    0 -0.40597903489E+02  0.25368507511E+02 -0.21224984327E+03  0.23521620519E+03  0.89358358728E+02 0.  0.
         24    2    1    2    0    0 -0.13805449388E+02 -0.34751253692E+02 -0.10819480077E+03  0.14015838521E+03  0.80870377553E+02 0.  0.
        -11    1    4    4    0    0 -0.19803997609E+02 -0.43099793876E+02 -0.11723627233E+03  0.12646791729E+03  0.00000000000E+00 0.  1.
         12    1    4    4    0    0  0.59985482208E+01  0.83485401836E+01  0.90414715614E+01  0.13690467923E+02  0.00000000000E+00 0. -1.
        -13    1    3    3    0    0  0.37751206610E+01 -0.28361793934E+02 -0.90725746812E+02  0.95130457929E+02  0.00000000000E+00 0. -1.
         13    1    3    3    0    0 -0.44373024150E+02  0.53730301446E+02 -0.12152409646E+03  0.14008574726E+03  0.00000000000E+00 0.  1.
         -2    1    1    2    0  502  0.54403352878E+02  0.93827461805E+01 -0.80360396648E+02  0.97496431112E+02  0.00000000000E+00 0.  1.
<scales pt_clust_5="13000.00000" pt_clust_6="13000.00000" pt_clust_7="13000.00000" pt_clust_8="13000.00000" pt_clust_9="55.20653"></scales>
<clustering>
<clus scale="   55.207">  1  9  2 -1</clus>
<clus scale="   80.870">  5  6 -1 -1</clus>
<clus scale="   87.845">  1  5  2 -1</clus>
<clus scale="   89.358">  7  8 -1 -1</clus>
<clus scale="   55.207">  1  5  2 -1</clus>
</clustering>
</event>
<event>
 9    2  0.5615294E-005  0.9633815E+02  0.7546771E-02  0.1292711E+00
          2   -1    0    0  502    0 -0.00000000000E+00  0.00000000000E+00  0.78002638142E+03  0.78002638142E+03  0.00000000000E+00 0. -1.
         21   -1    0    0  501  502  0.00000000000E+00 -0.00000000000E+00 -0.35489165603E+02  0.35489165603E+02  0.00000000000E+00 0. -1.
         24    2    1    2    0    0 -0.19738107534E+02  0.15827444329E+02  0.19591240124E+03  0.21574166423E+03  0.86733475901E+02 0.  0.
         23    2    1    2    0    0  0.46283385179E+01  0.64479708809E+02  0.13039743515E+03  0.17363812406E+03  0.94697690938E+02 0.  0.
        -13    1    3    3    0    0 -0.43692593882E+02  0.17075048999E+02  0.18213596871E+03  0.18808006581E+03  0.00000000000E+00 0.  1.
         14    1    3    3    0    0  0.23954486347E+02 -0.12476046694E+01  0.13776432525E+02  0.27661598412E+02  0.00000000000E+00 0. -1.
        -13    1    4    4    0    0  0.46471109972E+02  0.24452395891E+02  0.38873840262E+02  0.65334976724E+02  0.00000000000E+00 0.  1.
         13    1    4    4    0    0 -0.41842771454E+02  0.40027312918E+02  0.91523594883E+02  0.10830314734E+03  0.00000000000E+00 0. -1.
          1    1    1    2  501    0  0.15109769016E+02 -0.80307153138E+02  0.41822737944E+03  0.42613575874E+03  0.00000000000E+00 0. -1.
<scales pt_clust_5="13000.00000" pt_clust_6="13000.00000" pt_clust_7="13000.00000" pt_clust_8="13000.00000" pt_clust_9="81.71628"></scales>
<clustering>
<clus scale="   81.716">  2  9  1 -1</clus>
<clus scale="   86.733">  5  6 -1 -1</clus>
<clus scale="   88.522">  1  5  2 -1</clus>
<clus scale="   94.698">  7  8 -1 -1</clus>
<clus scale="   81.716">  2  5  1 -1</clus>
</clustering>
</event>
<event>
 9    2  0.5615294E-005  0.1231959E+03  0.7546771E-02  0.1251032E+00
         21   -1    0    0  501  502  0.00000000000E+00  0.00000000000E+00  0.36666129312E+02  0.36666129312E+02  0.00000000000E+00 0. -1.
          2   -1    0    0  502    0 -0.00000000000E+00 -0.00000000000E+00 -0.63055894671E+03  0.63055894671E+03  0.00000000000E+00 0. -1.
         24    2    1    2    0    0  0.44231798651E+02 -0.11823605747E+02 -0.14696379180E+03  0.17476288611E+03  0.82749384268E+02 0.  0.
         23    2    1    2    0    0  0.36207773370E+02 -0.40877043959E+02 -0.25772068620E+03  0.28021780500E+03  0.95499374719E+02 0.  0.
        -13    1    3    3    0    0  0.17056958681E+01  0.20093484273E+02 -0.18923654896E+01  0.20254346589E+02  0.00000000000E+00 0.  1.
         14    1    3    3    0    0  0.42526102783E+02 -0.31917090020E+02 -0.14507142631E+03  0.15450853952E+03  0.00000000000E+00 0. -1.
        -11    1    4    4    0    0  0.65402457925E+02 -0.11727523234E+02 -0.18553963381E+03  0.19707859350E+03  0.00000000000E+00 0. -1.
         11    1    4    4    0    0 -0.29194684555E+02 -0.29149520725E+02 -0.72181052391E+02  0.83139211501E+02  0.00000000000E+00 0.  1.
          1    1    1    2  501    0 -0.80439572021E+02  0.52700649706E+02 -0.18920833940E+03  0.21224438491E+03  0.00000000000E+00 0. -1.
<scales pt_clust_5="13000.00000" pt_clust_6="13000.00000" pt_clust_7="13000.00000" pt_clust_8="13000.00000" pt_clust_9="77.82744"></scales>
<clustering>
<clus scale="   82.749">  5  6 -1 -1</clus>
<clus scale="   94.571">  2  5  1 -1</clus>
<clus scale="   77.827">  1  9  2 -1</clus>
<clus scale="   95.499">  7  8 -1 -1</clus>
<clus scale="   77.827">  1  5  2 -1</clus>
</clustering>
</event>
<event>
 9    2  0.5615294E-005  0.9901963E+02  0.7546771E-02  0.1288150E+00
          4   -1    0    0  502    0 -0.00000000000E+00  0.00000000000E+00  0.15768189442E+04  0.15768189442E+04  0.00000000000E+00 0. -1.
         21   -1    0    0  501  502  0.00000000000E+00 -0.00000000000E+00 -0.24147734567E+02  0.24147734567E+02  0.00000000000E+00 0.  1.
         24    2    1    2    0    0  0.22459665989E+02  0.27273606848E+02  0.13381731611E+04  0.13410507120E+04  0.80382316198E+02 0.  0.
         23    2    1    2    0    0 -0.50984103036E+02 -0.39365776055E+02  0.18954972754E+03  0.22013804848E+03  0.91556638705E+02 0.  0.
        -13    1    3    3    0    0  0.11463215433E+02  0.29842608309E+02  0.17963045992E+03  0.18245297671E+03  0.00000000000E+00 0.  1.
         14    1    3    3    0    0  0.10996450556E+02 -0.25690014610E+01  0.11585427012E+04  0.11585977353E+04  0.00000000000E+00 0. -1.
        -13    1    4    4    0    0 -0.13715637233E+02 -0.48310563517E+02  0.35776036193E+02  0.61659987170E+02  0.00000000000E+00 0.  1.
         13    1    4    4    0    0 -0.37268465802E+02  0.89447874620E+01  0.15377369135E+03  0.15847806131E+03  0.00000000000E+00 0. -1.
          3    1    1    2  501    0  0.28524437047E+02  0.12092169207E+02  0.24948320979E+02  0.39777918305E+02  0.00000000000E+00 0. -1.
<scales pt_clust_5="13000.00000" pt_clust_6="13000.00000" pt_clust_7="13000.00000" pt_clust_8="13000.00000" pt_clust_9="30.98167"></scales>
<clustering>
<clus scale="   30.982">  2  9  1 -1</clus>
<clus scale="   80.382">  5  6 -1 -1</clus>
<clus scale="   88.790">  1  5  2 -1</clus>
<clus scale="   91.557">  7  8 -1 -1</clus>
<clus scale="   30.982">  2  5  1 -1</clus>
</clustering>
</event>
<event>
 9    2  0.5615294E-005  0.1028873E+03  0.7546771E-02  0.1281519E+00
         21   -1    0    0  501  502  0.00000000000E+00  0.00000000000E+00  0.85512335434E+02  0.85512335434E+02  0.00000000000E+00 0. -1.
         -1   -1    0    0    0  501 -0.00000000000E+00 -0.00000000000E+00 -0.50929260700E+03  0.50929260700E+03  0.00000000000E+00 0.  1.
         24    2    1    2    0    0  0.41091693296E+02  0.26361978869E+02 -0.42116057534E+02  0.10112932643E+03  0.77909544817E+02 0.  0.
         23    2    1    2    0    0  0.20310235442E+02 -0.64829352367E+02 -0.10464595185E+02  0.11547052256E+03  0.92782451121E+02 0.  0.
        -11    1    3    3    0    0  0.22588938317E+02  0.51825923527E+02 -0.12478336325E+02  0.57895555625E+02  0.00000000000E+00 0.  1.
         12    1    3    3    0    0  0.18502754979E+02 -0.25463944658E+02 -0.29637721210E+02  0.43233770803E+02  0.00000000000E+00 0. -1.
        -13    1    4    4    0    0  0.50065498584E+02 -0.58299483689E+02  0.11787912091E+02  0.77745345959E+02  0.00000000000E+00 0.  1.
         13    1    4    4    0    0 -0.29755263141E+02 -0.65298686781E+01 -0.22252507276E+02  0.37725176602E+02  0.00000000000E+00 0. -1.
         -2    1    1    2    0  502 -0.61401928738E+02  0.38467373498E+02 -0.37119961885E+03  0.37820509345E+03  0.00000000000E+00 0.  1.
<scales pt_clust_5="13000.00000" pt_clust_6="13000.00000" pt_clust_7="13000.00000" pt_clust_8="13000.00000" pt_clust_9="72.45648"></scales>
<clustering>
<clus scale="   72.456">  1  9  2 -1</clus>
<clus scale="   77.910">  5  6 -1 -1</clus>
<clus scale="   89.706">  2  5  1 -1</clus>
<clus scale="   92.782">  7  8 -1 -1</clus>
<clus scale="   72.456">  1  5  2 -1</clus>
</clustering>
</event>
<event>
 9    2  0.5615294E-005  0.9442369E+02  0.7546771E-02  0.1298798E+00
         21   -1    0    0  501  502  0.00000000000E+00  0.00000000000E+00  0.62039613149E+02  0.62039613149E+02  0.00000000000E+00 0.  1.
          2   -1    0    0  502    0 -0.00000000000E+00 -0.00000000000E+00 -0.25597991729E+03  0.25597991729E+03  0.00000000000E+00 0. -1.
         24    2    1    2    0    0  0.46409277807E+02  0.85113342659E+01 -0.96025324512E+02  0.13417233091E+03  0.80963495206E+02 0.  0.
         23    2    1    2    0    0  0.11200674514E+02  0.14387050168E+02 -0.56434171136E+02  0.10925564445E+03  0.91758039704E+02 0.  0.
        -11    1    3    3    0    0  0.11655385963E+02  0.40584704229E+02 -0.25721867217E+02  0.49442701103E+02  0.00000000000E+00 0.  1.
         12    1    3    3    0    0  0.34753891844E+02 -0.32073369963E+02 -0.70303457295E+02  0.84729629804E+02  0.00000000000E+00 0. -1.
        -13    1    4    4    0    0  0.39872186668E+02  0.30968425420E+01 -0.65842968994E+02  0.77036863055E+02  0.00000000000E+00 0.  1.
         13    1    4    4    0    0 -0.28671512154E+02  0.11290207626E+02  0.94087978584E+01  0.32218781395E+02  0.00000000000E+00 0. -1.
          1    1    1    2  501    0 -0.57609952321E+02 -0.22898384434E+02 -0.41480808491E+02  0.74591555080E+02  0.00000000000E+00 0. -1.
<scales pt_clust_5="13000.00000" pt_clust_6="13000.00000" pt_clust_7="13000.00000" pt_clust_8="13000.00000" pt_clust_9="61.99389"></scales>
<clustering>
<clus scale="   61.994">  1  9  2 -1</clus>
<clus scale="   80.963">  5  6 -1 -1</clus>
<clus scale="   83.973">  2  5  1 -1</clus>
<clus scale="   91.758">  7  8 -1 -1</clus>
<clus scale="   61.994">  1  5  2 -1</clus>
</clustering>
</event>
<event>
 9    2  0.5615294E-005  0.1407178E+03  0.7546771E-02  0.1214489E+00
          2   -1    0    0  502    0 -0.00000000000E+00  0.00000000000E+00  0.31808079478E+03  0.31808079478E+03  0.00000000000E+00 0. -1.
         21   -1    0    0  501  502  0.00000000000E+00 -0.00000000000E+00 -0.87710684913E+02  0.87710684913E+02  0.00000000000E+00 0. -1.
         23    2    1    2    0    0 -0.54302110130E+02 -0.89400600915E+02  0.15431585897E+03  0.20689465151E+03  0.89726394576E+02 0.  0.
         24    2    1    2    0    0  0.41018382077E+02  0.11091366347E+03  0.29027690457E+02  0.14550425681E+03  0.79652580143E+02 0.  0.
        -11    1    4    4    0    0  0.20097123114E+02 -0.73953813506E+01  0.10803103145E+02  0.23985267569E+02  0.00000000000E+00 0.  1.
         12    1    4    4    0    0  0.20921258964E+02  0.11830904482E+03  0.18224587312E+02  0.12151898924E+03  0.00000000000E+00 0. -1.
        -11    1    3    3    0    0 -0.13058808475E+02 -0.95081436096E+02  0.11271806607E+03  0.14804179946E+03  0.00000000000E+00 0. -1.
         11    1    3    3    0    0 -0.41243301655E+02  0.56808351811E+01  0.41597792903E+02  0.58852852048E+02  0.00000000000E+00 0.  1.
          1    1    1    2  501    0  0.13283728053E+02 -0.21513062556E+02  0.47026560441E+02  0.53392571379E+02  0.00000000000E+00 0. -1.
<scales pt_clust_5="13000.00000" pt_clust_6="13000.00000" pt_clust_7="13000.00000" pt_clust_8="13000.00000" pt_clust_9="25.28379"></scales>
<clustering>
<clus scale="   25.284">  2  9  1 -1</clus>
<clus scale="   79.653">  5  6 -1 -1</clus>
<clus scale="   89.726">  7  8 -1 -1</clus>
<clus scale="  134.518">  2  5  1 -1</clus>
<clus scale="   25.284">  2  5  1 -1</clus>
</clustering>
</event>
<event>
 9    2  0.5615294E-005  0.1544633E+03  0.7546771E-02  0.1209131E+00
         21   -1    0    0  501  502  0.00000000000E+00  0.00000000000E+00  0.40735948479E+02  0.40735948479E+02  0.00000000000E+00 0. -1.
         -1   -1    0    0    0  501 -0.00000000000E+00 -0.00000000000E+00 -0.10080271196E+04  0.10080271196E+04  0.00000000000E+00 0.  1.
         24    2    1    2    0    0  0.70410496408E+02 -0.38493112373E+02 -0.27175477895E+03  0.29469550721E+03  0.80965575302E+02 0.  0.
         23    2    1    2    0    0  0.30152348924E+02  0.12501038399E+03 -0.35111999793E+03  0.38498657142E+03  0.91611391099E+02 0.  0.
        -13    1    3    3    0    0  0.72049172310E+02 -0.21227330829E+02 -0.26603239002E+03  0.27643247882E+03  0.00000000000E+00 0.  1.
         14    1    3    3    0    0 -0.16386759012E+01 -0.17265781544E+02 -0.57223889262E+01  0.18263028392E+02  0.00000000000E+00 0. -1.
        -11    1    4    4    0    0  0.15131664305E+01  0.68464353471E+02 -0.28610579252E+03  0.29418732447E+03  0.00000000000E+00 0.  1.
         11    1    4    4    0    0  0.28639182493E+02  0.56546030517E+02 -0.65014205412E+02  0.90799246948E+02  0.00000000000E+00 0. -1.
         -2    1    1    2    0  502 -0.10056284533E+03 -0.86517271614E+02 -0.34441639429E+03  0.36908098949E+03  0.00000000000E+00 0.  1.
<scales pt_clust_5="13000.00000" pt_clust_6="13000.00000" pt_clust_7="13000.00000" pt_clust_8="13000.00000" pt_clust_9="124.36353"></scales>
<clustering>
<clus scale="   80.966">  5  6 -1 -1</clus>
<clus scale="   91.611">  7  8 -1 -1</clus>
<clus scale="  113.995">  2  5  1 -1</clus>
<clus scale="  124.364">  1  9  2 -1</clus>
<clus scale="  124.364">  1  5  2 -1</clus>
</clustering>
</event>
<event>
 9    2  0.5615294E-005  0.1195829E+03  0.7546771E-02  0.1254152E+00
         21   -1    0    0  501  502  0.00000000000E+00  0.00000000000E+00  0.10718806248E+03  0.10718806248E+03  0.00000000000E+00 0. -1.
          2   -1    0    0  502    0 -0.00000000000E+00 -0.00000000000E+00 -0.37769117898E+03  0.37769117898E+03  0.00000000000E+00 0. -1.
         23    2    1    2    0    0  0.14304525515E+02 -0.58334103191E+02 -0.17046358562E+03  0.20994067772E+03  0.10681651135E+03 0.  0.
         24    2    1    2    0    0  0.77655169521E+02  0.30621670263E+02 -0.12991435946E+03  0.17435491780E+03  0.80956065397E+02 0.  0.
        -11    1    4    4    0    0  0.18053075876E+02 -0.21861000332E+02 -0.90997871920E+01  0.29776215526E+02  0.00000000000E+00 0.  1.
         12    1    4    4    0    0  0.59602093645E+02  0.52482670595E+02 -0.12081457226E+03  0.14457870227E+03  0.00000000000E+00 0. -1.
        -13    1    3    3    0    0  0.28359528965E+02  0.20239681856E+02 -0.21505058393E+02  0.40943560437E+02  0.00000000000E+00 0.  1.
         13    1    3    3    0    0 -0.14055003450E+02 -0.78573785046E+02 -0.14895852722E+03  0.16899711729E+03  0.00000000000E+00 0. -1.
          1    1    1    2  501    0 -0.91959695036E+02  0.27712432927E+02  0.29874828572E+02  0.10058364595E+03  0.00000000000E+00 0. -1.
<scales pt_clust_5="13000.00000" pt_clust_6="13000.00000" pt_clust_7="13000.00000" pt_clust_8="13000.00000" pt_clust_9="96.04460"></scales>
<clustering>
<clus scale="   80.956">  5  6 -1 -1</clus>
<clus scale="   96.045">  1  9  2 -1</clus>
<clus scale="   97.181">  1  5  2 -1</clus>
<clus scale="  106.817">  7  8 -1 -1</clus>
<clus scale="   96.045">  1  5  2 -1</clus>
</clustering>
</event>
<event>
 9    2  0.5615294E-005  0.9196147E+02  0.7546771E-02  0.1301446E+00
          2   -1    0    0  502    0 -0.00000000000E+00  0.00000000000E+00  0.15863391678E+03  0.15863391678E+03  0.00000000000E+00 0. -1.
         21   -1    0    0  501  502  0.00000000000E+00 -0.00000000000E+00 -0.89722280369E+02  0.89722280369E+02  0.00000000000E+00 0. -1.
         24    2    1    2    0    0  0.22541282360E+02  0.25804214919E+02  0.89955899890E+02  0.12674036864E+03  0.82444467368E+02 0.  0.
         23    2    1    2    0    0  0.16359736505E+01 -0.91221855778E+01 -0.64307173229E+01  0.88807513376E+02  0.88088192326E+02 0.  0.
        -13    1    3    3    0    0 -0.30458199083E+02  0.17486687709E+02  0.29071093524E+02  0.45591826209E+02  0.00000000000E+00 0.  1.
         14    1    3    3    0    0  0.52999481444E+02  0.83175272106E+01  0.60884806366E+02  0.81148542429E+02  0.00000000000E+00 0. -1.
        -13    1    4    4    0    0 -0.42897102581E+02 -0.49184432376E+01 -0.85902633326E+01  0.44024369591E+02  0.00000000000E+00 0. -1.
         13    1    4    4    0    0  0.44533076232E+02 -0.42037423403E+01  0.21595460098E+01  0.44783143785E+02  0.00000000000E+00 0.  1.
          1    1    1    2  501    0 -0.24177256011E+02 -0.16682029341E+02 -0.14613546152E+02  0.32808315139E+02  0.00000000000E+00 0. -1.
<scales pt_clust_5="13000.00000" pt_clust_6="13000.00000" pt_clust_7="13000.00000" pt_clust_8="13000.00000" pt_clust_9="29.37396"></scales>
<clustering>
<clus scale="   29.374">  2  9  1 -1</clus>
<clus scale="   82.444">  5  6 -1 -1</clus>
<clus scale="   86.571">  1  5  2 -1</clus>
<clus scale="   88.088">  7  8 -1 -1</clus>
<clus scale="   29.374">  2  5  1 -1</clus>
</clustering>
</event>
<event>
 9    2  0.5615294E-005  0.9219267E+02  0.7546771E-02  0.1304070E+00
          2   -1    0    0  502    0 -0.00000000000E+00  0.00000000000E+00  0.34813078500E+03  0.34813078500E+03  0.00000000000E+00 0. -1.
         21   -1    0    0  501  502  0.00000000000E+00 -0.00000000000E+00 -0.15045895455E+03  0.15045895455E+03  0.00000000000E+00 0. -1.
         24    2    1    2    0    0  0.22438971068E+02 -0.83476219165E+01  0.16606821466E+03  0.18639647520E+03  0.81189924461E+02 0.  0.
         23    2    1    2    0    0  0.55328156189E+02  0.10339085491E+02  0.14140681173E+03  0.17762568339E+03  0.91579994755E+02 0.  0.
        -11    1    3    3    0    0  0.16121423136E+02 -0.44480754779E+02  0.81920347189E+02  0.94601168667E+02  0.00000000000E+00 0.  1.
         12    1    3    3    0    0  0.63175479317E+01  0.36133132862E+02  0.84147867469E+02  0.91795306535E+02  0.00000000000E+00 0. -1.
        -13    1    4    4    0    0 -0.17375828886E+02 -0.13336760982E+02  0.68725339979E+02  0.72131553277E+02  0.00000000000E+00 0.  1.
         13    1    4    4    0    0  0.72703985074E+02  0.23675846473E+02  0.72681471749E+02  0.10549413011E+03  0.00000000000E+00 0. -1.
          1    1    1    2  501    0 -0.77767127256E+02 -0.19914635749E+01 -0.10980319594E+03  0.13456758097E+03  0.00000000000E+00 0. -1.
<scales pt_clust_5="13000.00000" pt_clust_6="13000.00000" pt_clust_7="13000.00000" pt_clust_8="13000.00000" pt_clust_9="77.79262"></scales>
<clustering>
<clus scale="   77.793">  2  9  1 -1</clus>
<clus scale="   81.190">  5  6 -1 -1</clus>
<clus scale="   81.880">  1  5  2 -1</clus>
<clus scale="   91.580">  7  8 -1 -1</clus>
<clus scale="   77.793">  2  5  1 -1</clus>
</clustering>
</event>
<event>
 9    2  0.5615294E-005  0.9558655E+02  0.7546771E-02  0.1296213E+00
          2   -1    0    0  502    0 -0.00000000000E+00  0.00000000000E+00  0.69000993130E+03  0.69000993130E+03  0.00000000000E+00 0. -1.
         21   -1    0    0  501  502  0.00000000000E+00 -0.00000000000E+00 -0.38939790966E+02  0.38939790966E+02  0.00000000000E+00 0. -1.
         23    2    1    2    0    0  0.11796552225E+02 -0.52558761310E+02  0.13262104390E+03  0.16918777310E+03  0.90191902319E+02 0.  0.
         24    2    1    2    0    0  0.39022728503E+02  0.48899269427E+01  0.90855449046E+02  0.12652847361E+03  0.78791225953E+02 0.  0.
        -11    1    4    4    0    0 -0.16991491691E+02 -0.14252831387E+02  0.58383806920E+01  0.22933396642E+02  0.00000000000E+00 0.  1.
         12    1    4    4    0    0  0.56014220194E+02  0.19142758329E+02  0.85017068354E+02  0.10359507697E+03  0.00000000000E+00 0. -1.
        -11    1    3    3    0    0 -0.38338677443E+02 -0.34508280283E+02  0.60209348052E+02  0.79283297037E+02  0.00000000000E+00 0. -1.
         11    1    3    3    0    0  0.50135229668E+02 -0.18050481027E+02  0.72411695852E+02  0.89904476059E+02  0.00000000000E+00 0.  1.
          1    1    1    2  501    0 -0.50819280728E+02  0.47668834368E+02  0.42759364738E+03  0.43323347556E+03  0.00000000000E+00 0. -1.
<scales pt_clust_5="13000.00000" pt_clust_6="13000.00000" pt_clust_7="13000.00000" pt_clust_8="13000.00000" pt_clust_9="69.67727"></scales>
<clustering>
<clus scale="   69.677">  2  9  1 -1</clus>
<clus scale="   78.791">  5  6 -1 -1</clus>
<clus scale="   84.913">  2  5  1 -1</clus>
<clus scale="   90.192">  7  8 -1 -1</clus>
<clus scale="   69.677">  2  5  1 -1</clus>
</clustering>
</event>
<event>
 9    2  0.5615294E-005  0.9405483E+02  0.7546771E-02  0.1298763E+00
         21   -1    0    0  501  502  0.00000000000E+00  0.00000000000E+00  0.31093639943E+03  0.31093639943E+03  0.00000000000E+00 0. -1.
          4   -1    0    0  502    0 -0.00000000000E+00 -0.00000000000E+00 -0.28053349566E+03  0.28053349566E+03  0.00000000000E+00 0. -1.
         24    2    1    2    0    0  0.19223951502E+02 -0.19218458563E+02 -0.25978629979E+03  0.27340842707E+03  0.80773367988E+02 0.  0.
         23    2    1    2    0    0  0.11307246107E+02  0.23442295975E+02  0.17254724429E+03  0.19644886419E+03  0.90234193500E+02 0.  0.
        -13    1    3    3    0    0  0.11654385907E+02  0.31410786144E+02 -0.88216528418E+02  0.94364283938E+02  0.00000000000E+00 0.  1.
         14    1    3    3    0    0  0.75695655949E+01 -0.50629244707E+02 -0.17156977137E+03  0.17904414313E+03  0.00000000000E+00 0. -1.
        -11    1    4    4    0    0 -0.28832111983E+02 -0.24034971293E+01  0.12773743942E+03  0.13097297778E+03  0.00000000000E+00 0.  1.
         11    1    4    4    0    0  0.40139358089E+02  0.25845793105E+02  0.44809804869E+02  0.65475886412E+02  0.00000000000E+00 0. -1.
          3    1    1    2  501    0 -0.30531197609E+02 -0.42238374128E+01  0.11764195927E+03  0.12161260383E+03  0.00000000000E+00 0. -1.
<scales pt_clust_5="13000.00000" pt_clust_6="13000.00000" pt_clust_7="13000.00000" pt_clust_8="13000.00000" pt_clust_9="30.82199"></scales>
<clustering>
<clus scale="   30.822">  1  9  2 -1</clus>
<clus scale="   80.773">  5  6 -1 -1</clus>
<clus scale="   85.020">  2  5  1 -1</clus>
<clus scale="   90.234">  7  8 -1 -1</clus>
<clus scale="   30.822">  1  5  2 -1</clus>
</clustering>
</event>
<event>
 9    2  0.5615294E-005  0.9790153E+02  0.7546771E-02  0.1291955E+00
         21   -1    0    0  501  502  0.00000000000E+00  0.00000000000E+00  0.45267604483E+02  0.45267604483E+02  0.00000000000E+00 0.  1.
         -3   -1    0    0    0  501 -0.00000000000E+00 -0.00000000000E+00 -0.10050477942E+04  0.10050477942E+04  0.00000000000E+00 0.  1.
         23    2    1    2    0    0  0.19806226175E+02 -0.38963467351E+02 -0.53621968921E+03  0.54605950466E+03  0.93482560659E+02 0.  0.
         24    2    1    2    0    0 -0.32511857986E+02 -0.12000398010E+02 -0.44045522887E+03  0.44908180141E+03  0.80452627435E+02 0.  0.
        -11    1    4    4    0    0 -0.30373172626E+02  0.31655960555E+02 -0.21582554106E+03  0.22023917369E+03  0.00000000000E+00 0.  1.
         12    1    4    4    0    0 -0.21386853600E+01 -0.43656358566E+02 -0.22462968781E+03  0.22884262772E+03  0.00000000000E+00 0. -1.
        -11    1    3    3    0    0  0.29088232516E+02  0.25117095889E+02 -0.19523357089E+03  0.19898025274E+03  0.00000000000E+00 0. -1.
         11    1    3    3    0    0 -0.92820063407E+01 -0.64080563240E+02 -0.34098611832E+03  0.34707925192E+03  0.00000000000E+00 0.  1.
         -4    1    1    2    0  502  0.12705631811E+02  0.50963865362E+02  0.16894728340E+02  0.55174092634E+02  0.00000000000E+00 0.  1.
<scales pt_clust_5="13000.00000" pt_clust_6="13000.00000" pt_clust_7="13000.00000" pt_clust_8="13000.00000" pt_clust_9="52.52379"></scales>
<clustering>
<clus scale="   52.524">  1  9  2 -1</clus>
<clus scale="   80.453">  5  6 -1 -1</clus>
<clus scale="   85.547">  1  5  2 -1</clus>
<clus scale="   93.483">  7  8 -1 -1</clus>
<clus scale="   52.524">  1  5  2 -1</clus>
</clustering>
</event>
<event>
 9    2  0.5615294E-005  0.9183619E+02  0.7546771E-02  0.1303037E+00
          2   -1    0    0  502    0 -0.00000000000E+00  0.00000000000E+00  0.15954134241E+03  0.15954134241E+03  0.00000000000E+00 0. -1.
         21   -1    0    0  501  502  0.00000000000E+00 -0.00000000000E+00 -0.20954159347E+03  0.20954159347E+03  0.00000000000E+00 0. -1.
         24    2    1    2    0    0 -0.26592419491E+00 -0.17249553868E+02  0.11303804719E+03  0.14123317918E+03  0.82895072013E+02 0.  0.
         23    2    1    2    0    0  0.50091488668E+02 -0.47141693003E+01 -0.11987002355E+03  0.15836240568E+03  0.90434774064E+02 0.  0.
        -11    1    3    3    0    0  0.10879970146E+02  0.26925777461E+02  0.14044120941E+02  0.32258465172E+02  0.00000000000E+00 0.  1.
         12    1    3    3    0    0 -0.11145894341E+02 -0.44175331329E+02  0.98993926245E+02  0.10897471400E+03  0.00000000000E+00 0. -1.
        -13    1    4    4    0    0  0.74339372205E+02 -0.17059198677E+02 -0.89166373452E+02  0.11733712402E+03  0.00000000000E+00 0. -1.
         13    1    4    4    0    0 -0.24247883537E+02  0.12345029377E+02 -0.30703650093E+02  0.41025281661E+02  0.00000000000E+00 0.  1.
          1    1    1    2  501    0 -0.49825564473E+02  0.21963723168E+02 -0.43168274709E+02  0.69487351021E+02  0.00000000000E+00 0. -1.
<scales pt_clust_5="13000.00000" pt_clust_6="13000.00000" pt_clust_7="13000.00000" pt_clust_8="13000.00000" pt_clust_9="54.45174"></scales>
<clustering>
<clus scale="   54.452">  2  9  1 -1</clus>
<clus scale="   82.895">  5  6 -1 -1</clus>
<clus scale="   84.422">  1  5  2 -1</clus>
<clus scale="   90.435">  7  8 -1 -1</clus>
<clus scale="   54.452">  2  5  1 -1</clus>
</clustering>
</event>
<event>
 9    2  0.5615294E-005  0.9157138E+02  0.7546771E-02  0.1305812E+00
          2   -1    0    0  502    0 -0.00000000000E+00  0.00000000000E+00  0.21432570994E+03  0.21432570994E+03  0.00000000000E+00 0. -1.
         21   -1    0    0  501  502  0.00000000000E+00 -0.00000000000E+00 -0.69076225113E+03  0.69076225113E+03  0.00000000000E+00 0. -1.
         24    2    1    2    0    0  0.47984609307E+01  0.18052784477E+01  0.18329048269E+03  0.20042011818E+03  0.80910682044E+02 0.  0.
         23    2    1    2    0    0  0.64389041499E+02 -0.95423910486E-03 -0.13484799282E+03  0.17524536196E+03  0.91547840248E+02 0.  0.
        -11    1    3    3    0    0 -0.76393423804E+01  0.29772129336E+02  0.26237012319E+02  0.40411880093E+02  0.00000000000E+00 0.  1.
         12    1    3    3    0    0  0.12437803311E+02 -0.27966850889E+02  0.15705347037E+03  0.16000823809E+03  0.00000000000E+00 0. -1.
        -13    1    4    4    0    0  0.46022684600E+02 -0.39085024760E+02 -0.44175816862E+02  0.74814633954E+02  0.00000000000E+00 0. -1.
         13    1    4    4    0    0  0.18366356899E+02  0.39084070521E+02 -0.90672175961E+02  0.10043072801E+03  0.00000000000E+00 0.  1.
          1    1    1    2  501    0 -0.69187502430E+02 -0.18043242086E+01 -0.52487903105E+03  0.52942248093E+03  0.00000000000E+00 0. -1.
<scales pt_clust_5="13000.00000" pt_clust_6="13000.00000" pt_clust_7="13000.00000" pt_clust_8="13000.00000" pt_clust_9="69.21103"></scales>
<clustering>
<clus scale="   69.211">  2  9  1 -1</clus>
<clus scale="   80.911">  5  6 -1 -1</clus>
<clus scale="   80.937">  1  5  2 -1</clus>
<clus scale="   91.548">  7  8 -1 -1</clus>
<clus scale="   69.211">  2  5  1 -1</clus>
</clustering>
</event>
<event>
 9    2  0.5615294E-005  0.1551534E+03  0.7546771E-02  0.1196098E+00
         21   -1    0    0  501  502  0.00000000000E+00  0.00000000000E+00  0.84657327326E+02  0.84657327326E+02  0.00000000000E+00 0. -1.
          2   -1    0    0  502    0 -0.00000000000E+00 -0.00000000000E+00 -0.69655074094E+03  0.69655074094E+03  0.00000000000E+00 0. -1.
         23    2    1    2    0    0  0.16212658313E+02  0.13227721596E+03 -0.54297632818E+03  0.56662754955E+03  0.92105237627E+02 0.  0.
         24    2    1    2    0    0  0.14227993328E+02 -0.10285067318E+03 -0.96977798278E+02  0.16378722884E+03  0.81491510006E+02 0.  0.
        -11    1    4    4    0    0  0.27834668998E+02 -0.10728178814E+03 -0.64352530369E+02  0.12816161293E+03  0.00000000000E+00 0.  1.
         12    1    4    4    0    0 -0.13606675669E+02  0.44311149554E+01 -0.32625267909E+02  0.35625615906E+02  0.00000000000E+00 0. -1.
        -11    1    3    3    0    0 -0.21645819539E+02  0.11682245097E+03 -0.44189138987E+03  0.45758499429E+03  0.00000000000E+00 0. -1.
         11    1    3    3    0    0  0.37858477852E+02  0.15454764982E+02 -0.10108493831E+03  0.10904255526E+03  0.00000000000E+00 0.  1.
          1    1    1    2  501    0 -0.30440651641E+02 -0.29426542773E+02  0.28060712838E+02  0.50793289880E+02  0.00000000000E+00 0. -1.
<scales pt_clust_5="13000.00000" pt_clust_6="13000.00000" pt_clust_7="13000.00000" pt_clust_8="13000.00000" pt_clust_9="42.33857"></scales>
<clustering>
<clus scale="   42.339">  1  9  2 -1</clus>
<clus scale="   81.492">  5  6 -1 -1</clus>
<clus scale="   92.105">  7  8 -1 -1</clus>
<clus scale="  149.097">  1  5  2 -1</clus>
<clus scale="   42.339">  1  5  2 -1</clus>
</clustering>
</event>
<event>
 9    2  0.5615294E-005  0.1112454E+03  0.7546771E-02  0.1261849E+00
         -1   -1    0    0    0  501 -0.00000000000E+00  0.00000000000E+00  0.10096458297E+03  0.10096458297E+03  0.00000000000E+00 0.  1.
         21   -1    0    0  501  502  0.00000000000E+00 -0.00000000000E+00 -0.17245304264E+03  0.17245304264E+03  0.00000000000E+00 0. -1.
         23    2    1    2    0    0  0.75067860170E+02  0.45773637594E+01  0.15068420137E+02  0.11931848392E+03  0.91398618322E+02 0.  0.
         24    2    1    2    0    0 -0.44563598445E+02 -0.11333214605E+02 -0.51885098061E+02  0.10742705203E+03  0.82061879377E+02 0.  0.
        -11    1    4    4    0    0  0.90564174856E+01 -0.34328869931E+02 -0.16095773821E+02  0.38981584669E+02  0.00000000000E+00 0.  1.
         12    1    4    4    0    0 -0.53620015930E+02  0.22995655326E+02 -0.35789324240E+02  0.68445467358E+02  0.00000000000E+00 0. -1.
        -13    1    3    3    0    0  0.47705005824E+02 -0.73332545763E+01  0.52586851444E+02  0.71378716353E+02  0.00000000000E+00 0.  1.
         13    1    3    3    0    0  0.27362854345E+02  0.11910618336E+02 -0.37518431307E+02  0.47939767572E+02  0.00000000000E+00 0. -1.
         -2    1    1    2    0  502 -0.30504261725E+02  0.67558508454E+01 -0.34671781749E+02  0.46672089664E+02  0.00000000000E+00 0.  1.
<scales pt_clust_5="13000.00000" pt_clust_6="13000.00000" pt_clust_7="13000.00000" pt_clust_8="13000.00000" pt_clust_9="31.24342"></scales>
<clustering>
<clus scale="   31.243">  2  9  1 -1</clus>
<clus scale="   82.062">  5  6 -1 -1</clus>
<clus scale="   91.399">  7  8 -1 -1</clus>
<clus scale="  103.711">  2  5  1 -1</clus>
<clus scale="   31.243">  2  5  1 -1</clus>
</clustering>
</event>
<event>
 9    2  0.5615294E-005  0.8428019E+02  0.7546771E-02  0.1319277E+00
         21   -1    0    0  501  502  0.00000000000E+00  0.00000000000E+00  0.46313454064E+02  0.46313454064E+02  0.00000000000E+00 0. -1.
          2   -1    0    0  502    0 -0.00000000000E+00 -0.00000000000E+00 -0.30475393037E+03  0.30475393037E+03  0.00000000000E+00 0. -1.
         23    2    1    2    0    0  0.62427069408E+01  0.30988898352E+02 -0.87966226552E+02  0.12485885966E+03  0.82779191896E+02 0.  0.
         24    2    1    2    0    0 -0.21508000157E+02  0.17983689373E+02 -0.57976409729E+02  0.10256748169E+03  0.79829925842E+02 0.  0.
        -11    1    4    4    0    0 -0.15733696535E+01 -0.31344141320E+02 -0.20368845422E+02  0.37414175803E+02  0.00000000000E+00 0.  1.
         12    1    4    4    0    0 -0.19934630504E+02  0.49327830694E+02 -0.37607564307E+02  0.65153305882E+02  0.00000000000E+00 0. -1.
        -11    1    3    3    0    0 -0.29010918658E+02  0.17614674346E+02 -0.79174172857E+02  0.86142090764E+02  0.00000000000E+00 0. -1.
         11    1    3    3    0    0  0.35253625599E+02  0.13374224006E+02 -0.87920536958E+01  0.38716768897E+02  0.00000000000E+00 0.  1.
          1    1    1    2  501    0  0.15265293217E+02 -0.48972587725E+02 -0.11249784002E+03  0.12364104309E+03  0.00000000000E+00 0. -1.
<scales pt_clust_5="13000.00000" pt_clust_6="13000.00000" pt_clust_7="13000.00000" pt_clust_8="13000.00000" pt_clust_9="51.29665"></scales>
<clustering>
<clus scale="   51.297">  1  9  2 -1</clus>
<clus scale="   79.830">  5  6 -1 -1</clus>
<clus scale="   81.385">  1  5  2 -1</clus>
<clus scale="   82.779">  7  8 -1 -1</clus>
<clus scale="   51.297">  1  5  2 -1</clus>
</clustering>
</event>
<event>
 9    2  0.5615294E-005  0.1043536E+03  0.7546771E-02  0.1278388E+00
         21   -1    0    0  501  502  0.00000000000E+00  0.00000000000E+00  0.14299805522E+02  0.14299805522E+02  0.00000000000E+00 0.  1.
          2   -1    0    0  502    0 -0.00000000000E+00 -0.00000000000E+00 -0.10745604927E+04  0.10745604927E+04  0.00000000000E+00 0. -1.
         24    2    1    2    0    0  0.12508875624E+02 -0.29355900943E+02 -0.35581275570E+03  0.36614570199E+03  0.80260308202E+02 0.  0.
         23    2    1    2    0    0  0.36272540040E+01  0.63905011147E+02 -0.40548180221E+03  0.42132653717E+03  0.94887046457E+02 0.  0.
        -13    1    3    3    0    0 -0.30055976854E+02  0.62821598993E+00 -0.80006095430E+02  0.85467723182E+02  0.00000000000E+00 0.  1.
         14    1    3    3    0    0  0.42564852478E+02 -0.29984116933E+02 -0.27580666027E+03  0.28067797880E+03  0.00000000000E+00 0. -1.
        -13    1    4    4    0    0  0.30177190392E+02 -0.11406253554E+02 -0.81599977504E+02  0.87745779207E+02  0.00000000000E+00 0.  1.
         13    1    4    4    0    0 -0.26549936388E+02  0.75311264701E+02 -0.32388182470E+03  0.33358075797E+03  0.00000000000E+00 0. -1.
          1    1    1    2  501    0 -0.16136129628E+02 -0.34549110204E+02 -0.29896612925E+03  0.30138805905E+03  0.00000000000E+00 0. -1.
<scales pt_clust_5="13000.00000" pt_clust_6="13000.00000" pt_clust_7="13000.00000" pt_clust_8="13000.00000" pt_clust_9="38.13158"></scales>
<clustering>
<clus scale="   38.132">  1  9  2 -1</clus>
<clus scale="   80.260">  5  6 -1 -1</clus>
<clus scale="   91.257">  2  5  1 -1</clus>
<clus scale="   94.887">  7  8 -1 -1</clus>
<clus scale="   38.132">  1  5  2 -1</clus>
</clustering>
</event>
<event>
 9    2  0.5615294E-005  0.2410381E+03  0.7546771E-02  0.1119758E+00
          2   -1    0    0  502    0 -0.00000000000E+00  0.00000000000E+00  0.17110206869E+04  0.17110206869E+04  0.00000000000E+00 0. -1.
         21   -1    0    0  501  502  0.00000000000E+00 -0.00000000000E+00 -0.52214435008E+02  0.52214435008E+02  0.00000000000E+00 0. -1.
         24    2    1    2    0    0  0.16704314010E+03  0.15969770324E+03  0.10108247210E+04  0.10400469787E+04  0.80773350789E+02 0.  0.
         23    2    1    2    0    0 -0.13878084423E+03 -0.16084113634E+03  0.65447652161E+03  0.69416660445E+03  0.91639312127E+02 0.  0.
        -11    1    3    3    0    0  0.11822118723E+03  0.77914245954E+02  0.46870491898E+03  0.48962350833E+03  0.00000000000E+00 0.  1.
         12    1    3    3    0    0  0.48821952868E+02  0.81783457283E+02  0.54211980204E+03  0.55042347037E+03  0.00000000000E+00 0. -1.
        -13    1    4    4    0    0 -0.68820771111E+02 -0.20743897639E+02  0.15804303077E+03  0.17362087259E+03  0.00000000000E+00 0.  1.
         13    1    4    4    0    0 -0.69960073121E+02 -0.14009723870E+03  0.49643349085E+03  0.52054573186E+03  0.00000000000E+00 0. -1.
          1    1    1    2  501    0 -0.28262295867E+02  0.11434331022E+01 -0.64949907456E+01  0.29021538755E+02  0.00000000000E+00 0. -1.
<scales pt_clust_5="13000.00000" pt_clust_6="13000.00000" pt_clust_7="13000.00000" pt_clust_8="13000.00000" pt_clust_9="28.28542"></scales>
<clustering>
<clus scale="   28.285">  2  9  1 -1</clus>
<clus scale="   80.773">  5  6 -1 -1</clus>
<clus scale="   91.639">  7  8 -1 -1</clus>
<clus scale="  237.120">  1  5  2 -1</clus>
<clus scale="   28.285">  2  5  1 -1</clus>
</clustering>
</event>
<event>
 9    2  0.5615294E-005  0.9375312E+02  0.7546771E-02  0.1300481E+00
         21   -1    0    0  501  502  0.00000000000E+00  0.00000000000E+00  0.40545381419E+02  0.40545381419E+02  0.00000000000E+00 0.  1.
          2   -1    0    0  502    0 -0.00000000000E+00 -0.00000000000E+00 -0.53792915977E+03  0.53792915977E+03  0.00000000000E+00 0. -1.
         24    2    1    2    0    0  0.21970428793E+02  0.13166572037E+02 -0.37052327915E+03  0.37988504421E+03  0.79806566527E+02 0.  0.
         23    2    1    2    0    0  0.13557522722E+02 -0.32749136411E+02 -0.45250621431E+02  0.10745287253E+03  0.90786500744E+02 0.  0.
        -13    1    3    3    0    0 -0.82743035883E+00 -0.27639518057E+02 -0.62614546499E+02  0.68448586783E+02  0.00000000000E+00 0.  1.
         14    1    3    3    0    0  0.22797859152E+02  0.40806090094E+02 -0.30790873265E+03  0.31143645742E+03  0.00000000000E+00 0. -1.
        -13    1    4    4    0    0 -0.24545936320E+02  0.81328582171E+01  0.11053959621E+02  0.28121813524E+02  0.00000000000E+00 0. -1.
         13    1    4    4    0    0  0.38103459041E+02 -0.40881994628E+02 -0.56304581052E+02  0.79331059007E+02  0.00000000000E+00 0.  1.
          1    1    1    2  501    0 -0.35527951515E+02  0.19582564374E+02 -0.81609877775E+02  0.91136624454E+02  0.00000000000E+00 0. -1.
<scales pt_clust_5="13000.00000" pt_clust_6="13000.00000" pt_clust_7="13000.00000" pt_clust_8="13000.00000" pt_clust_9="40.56740"></scales>
<clustering>
<clus scale="   40.567">  1  9  2 -1</clus>
<clus scale="   79.807">  5  6 -1 -1</clus>
<clus scale="   83.166">  2  5  1 -1</clus>
<clus scale="   90.787">  7  8 -1 -1</clus>
<clus scale="   40.567">  1  5  2 -1</clus>
</clustering>
</event>
<event>
 9    2  0.5615294E-005  0.9161910E+02  0.7546771E-02  0.1302794E+00
          2   -1    0    0  502    0 -0.00000000000E+00  0.00000000000E+00  0.57623857484E+03  0.57623857484E+03  0.00000000000E+00 0. -1.
         21   -1    0    0  501  502  0.00000000000E+00 -0.00000000000E+00 -0.30130740791E+02  0.30130740791E+02  0.00000000000E+00 0.  1.
         23    2    1    2    0    0  0.11155528052E+02 -0.49534525770E+02  0.30529243904E+03  0.32153037272E+03  0.87179081195E+02 0.  0.
         24    2    1    2    0    0  0.10578186414E+02 -0.11791443717E+02  0.97891634263E+02  0.12780254502E+03  0.80621227236E+02 0.  0.
        -11    1    4    4    0    0 -0.22737742712E+01 -0.44849982293E+02  0.67610993799E+02  0.81166110191E+02  0.00000000000E+00 0.  1.
         12    1    4    4    0    0  0.12851960685E+02  0.33058538575E+02  0.30280640464E+02  0.46636434824E+02  0.00000000000E+00 0. -1.
        -13    1    3    3    0    0  0.24701707137E+02  0.18912152046E+02  0.95322107761E+02  0.10027037478E+03  0.00000000000E+00 0.  1.
         13    1    3    3    0    0 -0.13546179085E+02 -0.68446677815E+02  0.20997033127E+03  0.22125999794E+03  0.00000000000E+00 0. -1.
          1    1    1    2  501    0 -0.21733714466E+02  0.61325969487E+02  0.14292376075E+03  0.15703639790E+03  0.00000000000E+00 0. -1.
<scales pt_clust_5="13000.00000" pt_clust_6="13000.00000" pt_clust_7="13000.00000" pt_clust_8="13000.00000" pt_clust_9="65.06330"></scales>
<clustering>
<clus scale="   65.063">  2  9  1 -1</clus>
<clus scale="   80.621">  5  6 -1 -1</clus>
<clus scale="   85.403">  2  5  1 -1</clus>
<clus scale="   87.179">  7  8 -1 -1</clus>
<clus scale="   65.063">  2  5  1 -1</clus>
</clustering>
</event>
<event>
 9    2  0.5615294E-005  0.1018330E+03  0.7546771E-02  0.1280352E+00
          2   -1    0    0  502    0 -0.00000000000E+00  0.00000000000E+00  0.40729146606E+03  0.40729146606E+03  0.00000000000E+00 0. -1.
         21   -1    0    0  501  502  0.00000000000E+00 -0.00000000000E+00 -0.50581097449E+02  0.50581097449E+02  0.00000000000E+00 0. -1.
         24    2    1    2    0    0 -0.37403306701E+00  0.57387291122E+02  0.22938907771E+03  0.24965395922E+03  0.80089383158E+02 0.  0.
         23    2    1    2    0    0  0.21718917039E+02 -0.23643667193E+02  0.23595935004E+02  0.97073718299E+02  0.88520078400E+02 0.  0.
        -13    1    3    3    0    0 -0.14505856072E+02 -0.16215189942E+02  0.33796635379E+02  0.40194089220E+02  0.00000000000E+00 0.  1.
         14    1    3    3    0    0  0.14131823005E+02  0.73602481065E+02  0.19559244233E+03  0.20945987000E+03  0.00000000000E+00 0. -1.
        -11    1    4    4    0    0  0.40783721333E+02 -0.46901140341E+02  0.65285122496E+01  0.62495202722E+02  0.00000000000E+00 0. -1.
         11    1    4    4    0    0 -0.19064804294E+02  0.23257473149E+02  0.17067422754E+02  0.34578515577E+02  0.00000000000E+00 0.  1.
          1    1    1    2  501    0 -0.21344883972E+02 -0.33743623929E+02  0.10372535590E+03  0.11114488600E+03  0.00000000000E+00 0. -1.
<scales pt_clust_5="13000.00000" pt_clust_6="13000.00000" pt_clust_7="13000.00000" pt_clust_8="13000.00000" pt_clust_9="39.92791"></scales>
<clustering>
<clus scale="   39.928">  2  9  1 -1</clus>
<clus scale="   80.089">  5  6 -1 -1</clus>
<clus scale="   88.520">  7  8 -1 -1</clus>
<clus scale="   94.596">  1  5  2 -1</clus>
<clus scale="   39.928">  2  5  1 -1</clus>
</clustering>
</event>
<event>
 9    2  0.5615294E-005  0.1044098E+03  0.7546771E-02  0.1276048E+00
         21   -1    0    0  501  502  0.00000000000E+00  0.00000000000E+00  0.17022021884E+03  0.17022021884E+03  0.00000000000E+00 0. -1.
         -1   -1    0    0    0  501 -0.00000000000E+00 -0.00000000000E+00 -0.25258185895E+03  0.25258185895E+03  0.00000000000E+00 0.  1.
         24    2    1    2    0    0 -0.52885662392E+02  0.73163538539E+01 -0.21082252976E+03  0.23123736131E+03  0.78575797110E+02 0.  0.
         23    2    1    2    0    0  0.56274365680E+02 -0.33833129882E+02  0.12021984368E+03  0.16359084367E+03  0.89429684153E+02 0.  0.
        -11    1    3    3    0    0 -0.67747689053E+02  0.22401997639E+02 -0.18186680693E+03  0.19536410708E+03  0.00000000000E+00 0.  1.
         12    1    3    3    0    0  0.14862026661E+02 -0.15085643785E+02 -0.28955722831E+02  0.35873254237E+02  0.00000000000E+00 0. -1.
        -13    1    4    4    0    0  0.59415352798E+02  0.26047116220E+01  0.30786764439E+02  0.66968601116E+02  0.00000000000E+00 0.  1.
         13    1    4    4    0    0 -0.31409871179E+01 -0.36437841504E+02  0.89433079242E+02  0.96622242555E+02  0.00000000000E+00 0. -1.
         -2    1    1    2    0  502 -0.33887032886E+01  0.26516776028E+02  0.82410459734E+01  0.27973872804E+02  0.00000000000E+00 0.  1.
<scales pt_clust_5="13000.00000" pt_clust_6="13000.00000" pt_clust_7="13000.00000" pt_clust_8="13000.00000" pt_clust_9="26.73243"></scales>
<clustering>
<clus scale="   26.732">  1  9  2 -1</clus>
<clus scale="   78.576">  5  6 -1 -1</clus>
<clus scale="   89.430">  7  8 -1 -1</clus>
<clus scale="   95.278">  2  5  1 -1</clus>
<clus scale="   26.732">  1  5  2 -1</clus>
</clustering>
</event>
<event>
 9    2  0.5615294E-005  0.9912686E+02  0.7546771E-02  0.1289414E+00
         21   -1    0    0  501  502  0.00000000000E+00  0.00000000000E+00  0.54749761848E+02  0.54749761848E+02  0.00000000000E+00 0. -1.
          2   -1    0    0  502    0 -0.00000000000E+00 -0.00000000000E+00 -0.34058799034E+03  0.34058799034E+03  0.00000000000E+00 0. -1.
         23    2    1    2    0    0 -0.67160146452E+02  0.11080697215E+02 -0.17995767294E+03  0.21341410576E+03  0.92344731121E+02 0.  0.
         24    2    1    2    0    0  0.43149449246E+01  0.90172957430E+01 -0.75024510950E+02  0.10908448001E+03  0.78554542604E+02 0.  0.
        -13    1    4    4    0    0 -0.18319813777E+02 -0.29341128188E+02 -0.30722400338E+02  0.46264276312E+02  0.00000000000E+00 0.  1.
         14    1    4    4    0    0  0.22634758702E+02  0.38358423931E+02 -0.44302110612E+02  0.62820203698E+02  0.00000000000E+00 0. -1.
        -13    1    3    3    0    0  0.71339555358E+01  0.32798132327E+02 -0.31705960310E+02  0.46172272251E+02  0.00000000000E+00 0.  1.
         13    1    3    3    0    0 -0.74294101988E+02 -0.21717435112E+02 -0.14825171263E+03  0.16724183351E+03  0.00000000000E+00 0. -1.
          1    1    1    2  501    0  0.62845201528E+02 -0.20097992958E+02 -0.30856044604E+02  0.72839166419E+02  0.00000000000E+00 0. -1.
<scales pt_clust_5="13000.00000" pt_clust_6="13000.00000" pt_clust_7="13000.00000" pt_clust_8="13000.00000" pt_clust_9="65.98067"></scales>
<clustering>
<clus scale="   65.981">  1  9  2 -1</clus>
<clus scale="   78.555">  5  6 -1 -1</clus>
<clus scale="   86.426">  1  5  2 -1</clus>
<clus scale="   92.345">  7  8 -1 -1</clus>
<clus scale="   65.981">  1  5  2 -1</clus>
</clustering>
</event>
<event>
 9    2  0.5615294E-005  0.1863430E+03  0.7546771E-02  0.1180661E+00
          2   -1    0    0  502    0 -0.00000000000E+00  0.00000000000E+00  0.14565647980E+04  0.14565647980E+04  0.00000000000E+00 0. -1.
         21   -1    0    0  501  502  0.00000000000E+00 -0.00000000000E+00 -0.51141229463E+02  0.51141229463E+02  0.00000000000E+00 0. -1.
         24    2    1    2    0    0  0.51969531080E+02 -0.71016355211E+02  0.75009709820E+03  0.75981916079E+03  0.83278721824E+02 0.  0.
         23    2    1    2    0    0 -0.11903572323E+03 -0.96628081619E+02  0.36355897897E+03  0.40476764491E+03  0.90306287771E+02 0.  0.
        -11    1    3    3    0    0  0.15390986941E+02  0.18240343222E+02  0.11629434326E+03  0.11871801411E+03  0.00000000000E+00 0.  1.
         12    1    3    3    0    0  0.36578544139E+02 -0.89256698433E+02  0.63380275494E+03  0.64110114668E+03  0.00000000000E+00 0. -1.
        -11    1    4    4    0    0 -0.90147933695E+02 -0.91834635166E+02  0.19467422165E+03  0.23336302779E+03  0.00000000000E+00 0. -1.
         11    1    4    4    0    0 -0.28887789540E+02 -0.47934464528E+01  0.16888475732E+03  0.17140461711E+03  0.00000000000E+00 0.  1.
          1    1    1    2  501    0  0.67066192155E+02  0.16764443683E+03  0.29176749141E+03  0.34311922181E+03  0.00000000000E+00 0. -1.
<scales pt_clust_5="13000.00000" pt_clust_6="13000.00000" pt_clust_7="13000.00000" pt_clust_8="13000.00000" pt_clust_9="162.99840"></scales>
<clustering>
<clus scale="   83.279">  5  6 -1 -1</clus>
<clus scale="   90.306">  7  8 -1 -1</clus>
<clus scale="  121.159">  1  5  2 -1</clus>
<clus scale="  162.998">  2  9  1 -1</clus>
<clus scale="  162.998">  2  5  1 -1</clus>
</clustering>
</event>
<event>
 9    2  0.5615294E-005  0.2014204E+03  0.7546771E-02  0.1175547E+00
         21   -1    0    0  501  502  0.00000000000E+00  0.00000000000E+00  0.22698382799E+03  0.22698382799E+03  0.00000000000E+00 0.  1.
         -1   -1    0    0    0  501 -0.00000000000E+00 -0.00000000000E+00 -0.35275288390E+03  0.35275288390E+03  0.00000000000E+00 0.  1.
         24    2    1    2    0    0  0.10997587903E+02 -0.57102317645E+02 -0.14983087810E+03  0.18450298519E+03  0.90611466669E+02 0.  0.
         23    2    1    2    0    0 -0.95185120779E+02 -0.11859906047E+03 -0.52418841522E+02  0.18593058080E+03  0.93255035081E+02 0.  0.
        -11    1    3    3    0    0  0.10717345275E+02 -0.65955594798E+02 -0.15856131895E+03  0.17206595783E+03  0.00000000000E+00 0.  1.
         12    1    3    3    0    0  0.28024262851E+00  0.88532771536E+01  0.87304408493E+01  0.12437027366E+02  0.00000000000E+00 0. -1.
        -11    1    4    4    0    0 -0.10478916968E+03 -0.69414996256E+02 -0.22882012303E+02  0.12776070708E+03  0.00000000000E+00 0.  1.
         11    1    4    4    0    0  0.96040488998E+01 -0.49184064218E+02 -0.29536829219E+02  0.58169873719E+02  0.00000000000E+00 0. -1.
         -2    1    1    2    0  502  0.84187532876E+02  0.17570137812E+03  0.76480663712E+02  0.20930314591E+03  0.00000000000E+00 0.  1.
<scales pt_clust_5="13000.00000" pt_clust_6="13000.00000" pt_clust_7="13000.00000" pt_clust_8="13000.00000" pt_clust_9="178.53197"></scales>
<clustering>
<clus scale="   90.611">  5  6 -1 -1</clus>
<clus scale="   93.255">  7  8 -1 -1</clus>
<clus scale="  107.666">  2  5  1 -1</clus>
<clus scale="  178.532">  1  9  2 -1</clus>
<clus scale="  178.532">  1  5  2 -1</clus>
</clustering>
</event>
<event>
 9    2  0.5615294E-005  0.1453595E+03  0.7546771E-02  0.1207772E+00
         21   -1    0    0  501  502  0.00000000000E+00  0.00000000000E+00  0.60924894955E+03  0.60924894955E+03  0.00000000000E+00 0. -1.
          2   -1    0    0  502    0 -0.00000000000E+00 -0.00000000000E+00 -0.73237703612E+02  0.73237703612E+02  0.00000000000E+00 0. -1.
         24    2    1    2    0    0  0.10139580717E+03  0.80096218509E+00  0.66692697875E+02  0.14707103217E+03  0.83067570687E+02 0.  0.
         23    2    1    2    0    0 -0.13839555027E+03 -0.16776560829E+02  0.18688046435E+03  0.25011670429E+03  0.90549856344E+02 0.  0.
        -11    1    3    3    0    0  0.83925007921E+02  0.33696593625E+02  0.61726105621E+02  0.10949419844E+03  0.00000000000E+00 0.  1.
         12    1    3    3    0    0  0.17470799252E+02 -0.32895631440E+02  0.49665922535E+01  0.37576833727E+02  0.00000000000E+00 0. -1.
        -11    1    4    4    0    0 -0.57934298173E+02 -0.20053953186E+02  0.19435061812E+02  0.64313805445E+02  0.00000000000E+00 0. -1.
         11    1    4    4    0    0 -0.80461252093E+02  0.32773923578E+01  0.16744540254E+03  0.18580289885E+03  0.00000000000E+00 0.  1.
          1    1    1    2  501    0  0.36999743093E+02  0.15975598644E+02  0.28243808372E+03  0.28529891671E+03  0.00000000000E+00 0. -1.
<scales pt_clust_5="13000.00000" pt_clust_6="13000.00000" pt_clust_7="13000.00000" pt_clust_8="13000.00000" pt_clust_9="40.30137"></scales>
<clustering>
<clus scale="   40.301">  1  9  2 -1</clus>
<clus scale="   83.068">  5  6 -1 -1</clus>
<clus scale="   90.550">  7  8 -1 -1</clus>
<clus scale="  140.820">  2  5  1 -1</clus>
<clus scale="   40.301">  1  5  2 -1</clus>
</clustering>
</event>
<event>
 9    2  0.5615294E-005  0.1448363E+03  0.7546771E-02  0.1218298E+00
         21   -1    0    0  501  502  0.00000000000E+00  0.00000000000E+00  0.89464372581E+03  0.89464372581E+03  0.00000000000E+00 0.  1.
          4   -1    0    0  502    0 -0.00000000000E+00 -0.00000000000E+00 -0.58835028135E+02  0.58835028135E+02  0.00000000000E+00 0. -1.
         23    2    1    2    0    0 -0.54870987358E+01 -0.69992101094E+02  0.66787527253E+02  0.13197413121E+03  0.89596847290E+02 0.  0.
         24    2    1    2    0    0  0.10992930550E+03 -0.27173021056E+02  0.47217654074E+03  0.49216290098E+03  0.80316935905E+02 0.  0.
        -13    1    4    4    0    0  0.83971073059E+02 -0.29269439514E+02  0.20166965008E+03  0.22040528343E+03  0.00000000000E+00 0.  1.
         14    1    4    4    0    0  0.25958232446E+02  0.20964184573E+01  0.27050689066E+03  0.27175761755E+03  0.00000000000E+00 0. -1.
        -13    1    3    3    0    0  0.48426680742E+00  0.21783064748E+02  0.11003561361E+02  0.24409317622E+02  0.00000000000E+00 0.  1.
         13    1    3    3    0    0 -0.59713655432E+01 -0.91775165842E+02  0.55783965892E+02  0.10756481359E+03  0.00000000000E+00 0. -1.
          3    1    1    2  501    0 -0.10444220677E+03  0.97165122151E+02  0.29684462968E+03  0.32934172176E+03  0.00000000000E+00 0. -1.
<scales pt_clust_5="13000.00000" pt_clust_6="13000.00000" pt_clust_7="13000.00000" pt_clust_8="13000.00000" pt_clust_9="120.52701"></scales>
<clustering>
<clus scale="   80.317">  5  6 -1 -1</clus>
<clus scale="   89.597">  7  8 -1 -1</clus>
<clus scale="  113.827">  2  7  1 -1</clus>
<clus scale="  120.527">  1  9  2 -1</clus>
<clus scale="  120.527">  1  5  2 -1</clus>
</clustering>
</event>
<event>
 9    2  0.5615294E-005  0.1616296E+03  0.7546771E-02  0.1188442E+00
          2   -1    0    0  502    0 -0.00000000000E+00  0.00000000000E+00  0.52066203551E+03  0.52066203551E+03  0.00000000000E+00 0. -1.
         21   -1    0    0  501  502  0.00000000000E+00 -0.00000000000E+00 -0.18294782402E+03  0.18294782402E+03  0.00000000000E+00 0. -1.
         23    2    1    2    0    0  0.56662546130E+00  0.12732046213E+03  0.36045844011E+03  0.39283956332E+03  0.90453382066E+02 0.  0.
         24    2    1    2    0    0  0.85801449334E+02 -0.16839893072E+03  0.19517543037E+02  0.20620958528E+03  0.80133451171E+02 0.  0.
        -11    1    4    4    0    0  0.49063419683E+02 -0.65058446240E+02 -0.28714066650E+02  0.86396285810E+02  0.00000000000E+00 0.  1.
         12    1    4    4    0    0  0.36738029652E+02 -0.10334048448E+03  0.48231609687E+02  0.11981329947E+03  0.00000000000E+00 0. -1.
        -13    1    3    3    0    0 -0.32584119387E+02  0.97605607630E+01  0.81279127844E+02  0.88109534136E+02  0.00000000000E+00 0.  1.
         13    1    3    3    0    0  0.33150744849E+02  0.11755990137E+03  0.27917931226E+03  0.30473002919E+03  0.00000000000E+00 0. -1.
          1    1    1    2  501    0 -0.86368074796E+02  0.41078468595E+02 -0.42261771655E+02  0.10456071093E+03  0.00000000000E+00 0. -1.
<scales pt_clust_5="13000.00000" pt_clust_6="13000.00000" pt_clust_7="13000.00000" pt_clust_8="13000.00000" pt_clust_9="95.63935"></scales>
<clustering>
<clus scale="   80.133">  5  6 -1 -1</clus>
<clus scale="   90.453">  7  8 -1 -1</clus>
<clus scale="   95.639">  2  9  1 -1</clus>
<clus scale="  156.089">  2  5  1 -1</clus>
<clus scale="   95.639">  2  5  1 -1</clus>
</clustering>
</event>
<event>
 9    2  0.5615294E-005  0.2339918E+03  0.7546771E-02  0.1124501E+00
          2   -1    0    0  502    0 -0.00000000000E+00  0.00000000000E+00  0.13997044347E+04  0.13997044347E+04  0.00000000000E+00 0. -1.
         21   -1    0    0  501  502  0.00000000000E+00 -0.00000000000E+00 -0.92754868349E+02  0.92754868349E+02  0.00000000000E+00 0. -1.
         24    2    1    2    0    0 -0.21751430713E+03 -0.17153680081E+02  0.81750155390E+03  0.85015132436E+03  0.82714939039E+02 0.  0.
         23    2    1    2    0    0  0.19494466478E+03  0.61324961677E+02  0.93098712983E+02  0.24286679645E+03  0.92481010006E+02 0.  0.
        -13    1    3    3    0    0 -0.23555453457E+02  0.23411831756E+02  0.83218577745E+02  0.89600808789E+02  0.00000000000E+00 0.  1.
         14    1    3    3    0    0 -0.19395885368E+03 -0.40565511836E+02  0.73428297616E+03  0.76055051557E+03  0.00000000000E+00 0. -1.
        -13    1    4    4    0    0  0.14315108982E+02 -0.14272989427E+02  0.31806561338E+02  0.37686840097E+02  0.00000000000E+00 0.  1.
         13    1    4    4    0    0  0.18062955579E+03  0.75597951105E+02  0.61292151645E+02  0.20517995636E+03  0.00000000000E+00 0. -1.
          1    1    1    2  501    0  0.22569642356E+02 -0.44171281597E+02  0.39634929943E+03  0.39944118220E+03  0.00000000000E+00 0. -1.
<scales pt_clust_5="13000.00000" pt_clust_6="13000.00000" pt_clust_7="13000.00000" pt_clust_8="13000.00000" pt_clust_9="49.60336"></scales>
<clustering>
<clus scale="   49.603">  2  9  1 -1</clus>
<clus scale="   82.715">  5  6 -1 -1</clus>
<clus scale="   92.481">  7  8 -1 -1</clus>
<clus scale="  230.307">  1  5  2 -1</clus>
<clus scale="   49.603">  2  5  1 -1</clus>
</clustering>
</event>
<event>
 9    2  0.5615294E-005  0.1421184E+03  0.7546771E-02  0.1213675E+00
         21   -1    0    0  501  502  0.00000000000E+00  0.00000000000E+00  0.66372996588E+02  0.66372996588E+02  0.00000000000E+00 0. -1.
          2   -1    0    0  502    0 -0.00000000000E+00 -0.00000000000E+00 -0.58991970489E+03  0.58991970489E+03  0.00000000000E+00 0. -1.
         23    2    1    2    0    0  0.53053960431E+01 -0.11668241984E+03 -0.31960725527E+03  0.35270337006E+03  0.92778959387E+02 0.  0.
         24    2    1    2    0    0 -0.56905981798E+02  0.88553122793E+02 -0.20679191541E+03  0.24475044679E+03  0.77845607480E+02 0.  0.
        -11    1    4    4    0    0 -0.86570187725E+01  0.46828258939E+02 -0.28751690177E+02  0.55628135843E+02  0.00000000000E+00 0.  1.
         12    1    4    4    0    0 -0.48248963026E+02  0.41724863854E+02 -0.17804022524E+03  0.18912231095E+03  0.00000000000E+00 0. -1.
        -13    1    3    3    0    0 -0.32550330255E+02 -0.87682446949E+02 -0.26035459228E+03  0.27664462623E+03  0.00000000000E+00 0.  1.
         13    1    3    3    0    0  0.37855726298E+02 -0.28999972896E+02 -0.59252662987E+02  0.76058743827E+02  0.00000000000E+00 0. -1.
          1    1    1    2  501    0  0.51600585755E+02  0.28129297052E+02  0.28524623741E+01  0.58838884630E+02  0.00000000000E+00 0. -1.
<scales pt_clust_5="13000.00000" pt_clust_6="13000.00000" pt_clust_7="13000.00000" pt_clust_8="13000.00000" pt_clust_9="58.76970"></scales>
<clustering>
<clus scale="   58.770">  1  9  2 -1</clus>
<clus scale="   77.846">  5  6 -1 -1</clus>
<clus scale="   92.779">  7  8 -1 -1</clus>
<clus scale="  132.852">  1  5  2 -1</clus>
<clus scale="   58.770">  1  5  2 -1</clus>
</clustering>
</event>
<event>
 9    2  0.5615294E-005  0.9460769E+02  0.7546771E-02  0.1299970E+00
         21   -1    0    0  501  502  0.00000000000E+00  0.00000000000E+00  0.29157879542E+03  0.29157879542E+03  0.00000000000E+00 0.  1.
          2   -1    0    0  502    0 -0.00000000000E+00 -0.00000000000E+00 -0.45743964033E+02  0.45743964033E+02  0.00000000000E+00 0. -1.
         23    2    1    2    0    0  0.20289218102E+01  0.30155677911E+02  0.56707837848E+02  0.10853928866E+03  0.87472949390E+02 0.  0.
         24    2    1    2    0    0 -0.39161943998E+02 -0.36987252642E+02  0.13355108606E+03  0.16159557574E+03  0.73317956838E+02 0.  0.
        -13    1    4    4    0    0 -0.21345166064E+02  0.21221150352E+02  0.43303919534E+02  0.52736920498E+02  0.00000000000E+00 0.  1.
         14    1    4    4    0    0 -0.17816777933E+02 -0.58208402993E+02  0.90247166524E+02  0.10885865524E+03  0.00000000000E+00 0. -1.
        -13    1    3    3    0    0 -0.19306962647E+02  0.85851500823E+01  0.71663481883E+02  0.74713574698E+02  0.00000000000E+00 0.  1.
         13    1    3    3    0    0  0.21335884457E+02  0.21570527828E+02 -0.14955644035E+02  0.33825713959E+02  0.00000000000E+00 0. -1.
          1    1    1    2  501    0  0.37133022188E+02  0.68315747308E+01  0.55575907486E+02  0.67187895063E+02  0.00000000000E+00 0. -1.
<scales pt_clust_5="13000.00000" pt_clust_6="13000.00000" pt_clust_7="13000.00000" pt_clust_8="13000.00000" pt_clust_9="37.75621"></scales>
<clustering>
<clus scale="   37.756">  1  9  2 -1</clus>
<clus scale="   73.318">  5  6 -1 -1</clus>
<clus scale="   81.698">  1  5  2 -1</clus>
<clus scale="   87.473">  7  8 -1 -1</clus>
<clus scale="   37.756">  1  5  2 -1</clus>
</clustering>
</event>
<event>
 9    2  0.5615294E-005  0.1213404E+03  0.7546771E-02  0.1244232E+00
         21   -1    0    0  501  502  0.00000000000E+00  0.00000000000E+00  0.39063697315E+02  0.39063697315E+02  0.00000000000E+00 0.  1.
          2   -1    0    0  502    0 -0.00000000000E+00 -0.00000000000E+00 -0.52967207924E+03  0.52967207924E+03  0.00000000000E+00 0. -1.
         24    2    1    2    0    0  0.70877581385E+02 -0.13972841472E+02 -0.27123707335E+03  0.29215497196E+03  0.81031511398E+02 0.  0.
         23    2    1    2    0    0 -0.86197520791E+02  0.34600002230E+02 -0.21344144092E+03  0.25021143534E+03  0.91767864361E+02 0.  0.
        -13    1    3    3    0    0  0.18368890753E+02  0.31110740387E+02 -0.12916704535E+03  0.13412464322E+03  0.00000000000E+00 0.  1.
         14    1    3    3    0    0  0.52508690632E+02 -0.45083581859E+02 -0.14207002800E+03  0.15803032874E+03  0.00000000000E+00 0. -1.
        -11    1    4    4    0    0 -0.59517376157E+02  0.45871382632E+02 -0.20744310003E+03  0.22063350054E+03  0.00000000000E+00 0. -1.
         11    1    4    4    0    0 -0.26680144634E+02 -0.11271380402E+02 -0.59983408883E+01  0.29577934804E+02  0.00000000000E+00 0.  1.
          1    1    1    2  501    0  0.15319939406E+02 -0.20627160758E+02 -0.59298676531E+01  0.26369369252E+02  0.00000000000E+00 0. -1.
<scales pt_clust_5="13000.00000" pt_clust_6="13000.00000" pt_clust_7="13000.00000" pt_clust_8="13000.00000" pt_clust_9="25.69397"></scales>
<clustering>
<clus scale="   25.694">  1  9  2 -1</clus>
<clus scale="   81.032">  5  6 -1 -1</clus>
<clus scale="   91.768">  7  8 -1 -1</clus>
<clus scale="  113.438">  2  5  1 -1</clus>
<clus scale="   25.694">  1  5  2 -1</clus>
</clustering>
</event>
<event>
 9    2  0.5615294E-005  0.1217019E+03  0.7546771E-02  0.1241208E+00
         21   -1    0    0  501  502  0.00000000000E+00  0.00000000000E+00  0.17268173815E+03  0.17268173815E+03  0.00000000000E+00 0. -1.
         -3   -1    0    0    0  501 -0.00000000000E+00 -0.00000000000E+00 -0.26315308019E+03  0.26315308019E+03  0.00000000000E+00 0.  1.
         23    2    1    2    0    0  0.70837392090E+02  0.19241398108E+02 -0.62833025976E+02  0.13967511012E+03  0.10086119033E+03 0.  0.
         24    2    1    2    0    0  0.21216250115E+02 -0.10053052870E+03 -0.90264780922E+02  0.15830518383E+03  0.79726307342E+02 0.  0.
        -13    1    4    4    0    0 -0.26210578262E+02 -0.21489697143E+02 -0.81584200730E+01  0.34862032560E+02  0.00000000000E+00 0.  1.
         14    1    4    4    0    0  0.47426828377E+02 -0.79040831556E+02 -0.82106360849E+02  0.12344315127E+03  0.00000000000E+00 0. -1.
        -13    1    3    3    0    0  0.50206984435E+01  0.50564562407E+02 -0.34764006296E+02  0.61567187024E+02  0.00000000000E+00 0.  1.
         13    1    3    3    0    0  0.65816693647E+02 -0.31323164299E+02 -0.28069019680E+02  0.78107923094E+02  0.00000000000E+00 0. -1.
         -4    1    1    2    0  502 -0.92053642205E+02  0.81289130591E+02  0.62626464857E+02  0.13785452439E+03  0.00000000000E+00 0.  1.
<scales pt_clust_5="13000.00000" pt_clust_6="13000.00000" pt_clust_7="13000.00000" pt_clust_8="13000.00000" pt_clust_9="122.80796"></scales>
<clustering>
<clus scale="   79.726">  5  6 -1 -1</clus>
<clus scale="  100.861">  7  8 -1 -1</clus>
<clus scale="  122.808">  1  9  2 -1</clus>
<clus scale="  122.808">  1  5  2 -1</clus>
<clus scale="  121.702">  1  5  2 -1</clus>
</clustering>
</event>
<event>
 9    2  0.5615294E-005  0.1259243E+03  0.7546771E-02  0.1236046E+00
          2   -1    0    0  502    0 -0.00000000000E+00  0.00000000000E+00  0.85736709253E+03  0.85736709253E+03  0.00000000000E+00 0. -1.
         21   -1    0    0  501  502  0.00000000000E+00 -0.00000000000E+00 -0.26054994528E+02  0.26054994528E+02  0.00000000000E+00 0. -1.
         23    2    1    2    0    0  0.37102021835E+02 -0.72805853925E+02  0.44159421980E+03  0.45773885681E+03  0.88555935344E+02 0.  0.
         24    2    1    2    0    0 -0.72532982459E+02  0.78212599044E+02  0.27571751533E+03  0.30618147880E+03  0.79678764468E+02 0.  0.
        -11    1    4    4    0    0 -0.72346871067E+02  0.22144458886E+02  0.17993946439E+03  0.19519902063E+03  0.00000000000E+00 0.  1.
         12    1    4    4    0    0 -0.18611139149E+00  0.56068140159E+02  0.95778050946E+02  0.11098245817E+03  0.00000000000E+00 0. -1.
        -13    1    3    3    0    0  0.63121809755E+02 -0.29243258475E+02  0.24261607079E+03  0.25239272738E+03  0.00000000000E+00 0.  1.
         13    1    3    3    0    0 -0.26019787920E+02 -0.43562595450E+02  0.19897814901E+03  0.20534612943E+03  0.00000000000E+00 0. -1.
          1    1    1    2  501    0  0.35430960624E+02 -0.54067451199E+01  0.11400036287E+03  0.11950175144E+03  0.00000000000E+00 0. -1.
<scales pt_clust_5="13000.00000" pt_clust_6="13000.00000" pt_clust_7="13000.00000" pt_clust_8="13000.00000" pt_clust_9="35.84114"></scales>
<clustering>
<clus scale="   35.841">  2  9  1 -1</clus>
<clus scale="   79.679">  5  6 -1 -1</clus>
<clus scale="   88.556">  7  8 -1 -1</clus>
<clus scale="  119.848">  2  5  1 -1</clus>
<clus scale="   35.841">  2  5  1 -1</clus>
</clustering>
</event>
<event>
 9    2  0.5615294E-005  0.9486785E+02  0.7546771E-02  0.1297216E+00
         21   -1    0    0  501  502  0.00000000000E+00  0.00000000000E+00  0.88537029980E+02  0.88537029980E+02  0.00000000000E+00 0. -1.
          2   -1    0    0  502    0 -0.00000000000E+00 -0.00000000000E+00 -0.21724653706E+03  0.21724653706E+03  0.00000000000E+00 0. -1.
         23    2    1    2    0    0 -0.22499299628E+01  0.77841150250E+01 -0.98112433915E+02  0.13443798342E+03  0.91552537194E+02 0.  0.
         24    2    1    2    0    0  0.37749417948E+02 -0.32077868845E+02 -0.65677895738E+02  0.11583824866E+03  0.81553084795E+02 0.  0.
        -13    1    4    4    0    0  0.38794611156E+02  0.18216563327E+01  0.32959217995E+01  0.38976959695E+02  0.00000000000E+00 0.  1.
         14    1    4    4    0    0 -0.10451932075E+01 -0.33899525178E+02 -0.68973817537E+02  0.76861288968E+02  0.00000000000E+00 0. -1.
        -11    1    3    3    0    0  0.20629214969E+02  0.32638678951E+02 -0.97287068751E+01  0.39818282376E+02  0.00000000000E+00 0.  1.
         11    1    3    3    0    0 -0.22879144932E+02 -0.24854563926E+02 -0.88383727040E+02  0.94619701047E+02  0.00000000000E+00 0. -1.
          1    1    1    2  501    0 -0.35499487985E+02  0.24293753820E+02  0.35080822570E+02  0.55507334958E+02  0.00000000000E+00 0. -1.
<scales pt_clust_5="13000.00000" pt_clust_6="13000.00000" pt_clust_7="13000.00000" pt_clust_8="13000.00000" pt_clust_9="43.01628"></scales>
<clustering>
<clus scale="   43.016">  1  9  2 -1</clus>
<clus scale="   81.553">  5  6 -1 -1</clus>
<clus scale="   85.258">  1  5  2 -1</clus>
<clus scale="   91.553">  7  8 -1 -1</clus>
<clus scale="   43.016">  1  5  2 -1</clus>
</clustering>
</event>
<event>
 9    2  0.5615294E-005  0.1502147E+03  0.7546771E-02  0.1202600E+00
          2   -1    0    0  502    0 -0.00000000000E+00  0.00000000000E+00  0.67008012189E+03  0.67008012189E+03  0.00000000000E+00 0. -1.
         21   -1    0    0  501  502  0.00000000000E+00 -0.00000000000E+00 -0.11684092340E+03  0.11684092340E+03  0.00000000000E+00 0.  1.
         24    2    1    2    0    0 -0.12139487303E+03  0.54596855001E+02  0.52412689440E+03  0.54668466940E+03  0.80234621865E+02 0.  0.
         23    2    1    2    0    0  0.81136981888E+02  0.19717344374E+01  0.86006059590E+02  0.15047222645E+03  0.93047036927E+02 0.  0.
        -13    1    3    3    0    0 -0.50690723904E+02  0.34844646124E+02  0.10937026357E+03  0.12548128708E+03  0.00000000000E+00 0.  1.
         14    1    3    3    0    0 -0.70704149122E+02  0.19752208877E+02  0.41475663083E+03  0.42120338232E+03  0.00000000000E+00 0. -1.
        -13    1    4    4    0    0  0.41687816528E+02 -0.42999778515E+02  0.24606118893E+02  0.64748097163E+02  0.00000000000E+00 0. -1.
         13    1    4    4    0    0  0.39449165360E+02  0.44971512953E+02  0.61399940698E+02  0.85724129290E+02  0.00000000000E+00 0.  1.
          1    1    1    2  501    0  0.40257891138E+02 -0.56568589438E+02 -0.56893755498E+02  0.89764149439E+02  0.00000000000E+00 0. -1.
<scales pt_clust_5="13000.00000" pt_clust_6="13000.00000" pt_clust_7="13000.00000" pt_clust_8="13000.00000" pt_clust_9="69.43128"></scales>
<clustering>
<clus scale="   69.431">  2  9  1 -1</clus>
<clus scale="   80.235">  5  6 -1 -1</clus>
<clus scale="   93.047">  7  8 -1 -1</clus>
<clus scale="  142.633">  1  5  2 -1</clus>
<clus scale="   69.431">  2  5  1 -1</clus>
</clustering>
</event>
<event>
 9    2  0.5615294E-005  0.1062051E+03  0.7546771E-02  0.1282181E+00
         21   -1    0    0  501  502  0.00000000000E+00  0.00000000000E+00  0.16778912514E+03  0.16778912514E+03  0.00000000000E+00 0.  1.
          2   -1    0    0  502    0 -0.00000000000E+00 -0.00000000000E+00 -0.94299450137E+02  0.94299450137E+02  0.00000000000E+00 0. -1.
         24    2    1    2    0    0  0.28884749860E+00 -0.30337055423E+01  0.15332098159E+02  0.79977081953E+02  0.78434517922E+02 0.  0.
         23    2    1    2    0    0  0.55854082014E+01 -0.47921434254E+02  0.17220392887E+02  0.11648538433E+03  0.10461664392E+03 0.  0.
        -13    1    3    3    0    0 -0.30520195614E+02  0.14718991127E+02  0.26159756884E+02  0.42807288168E+02  0.00000000000E+00 0.  1.
         14    1    3    3    0    0  0.30809043112E+02 -0.17752696669E+02 -0.10827658726E+02  0.37169793785E+02  0.00000000000E+00 0. -1.
        -11    1    4    4    0    0  0.42289188315E+02 -0.61554587981E+02  0.19752626188E+02  0.77249653664E+02  0.00000000000E+00 0.  1.
         11    1    4    4    0    0 -0.36703780114E+02  0.13633153727E+02 -0.25322333013E+01  0.39235730663E+02  0.00000000000E+00 0. -1.
          1    1    1    2  501    0 -0.58742557000E+01  0.50955139796E+02  0.40937183958E+02  0.65626108997E+02  0.00000000000E+00 0. -1.
<scales pt_clust_5="13000.00000" pt_clust_6="13000.00000" pt_clust_7="13000.00000" pt_clust_8="13000.00000" pt_clust_9="51.29262"></scales>
<clustering>
<clus scale="   51.293">  1  9  2 -1</clus>
<clus scale="   78.435">  5  6 -1 -1</clus>
<clus scale="   80.541">  2  5  1 -1</clus>
<clus scale="  104.617">  7  8 -1 -1</clus>
<clus scale="   51.293">  1  5  2 -1</clus>
</clustering>
</event>
<event>
 9    2  0.5615294E-005  0.3684646E+03  0.7546771E-02  0.1110560E+00
          2   -1    0    0  502    0 -0.00000000000E+00  0.00000000000E+00  0.19132447783E+04  0.19132447783E+04  0.00000000000E+00 0. -1.
         21   -1    0    0  501  502  0.00000000000E+00 -0.00000000000E+00 -0.10611358307E+03  0.10611358307E+03  0.00000000000E+00 0. -1.
         24    2    1    2    0    0 -0.16177551668E+02 -0.18764640410E+02  0.56009259507E+03  0.56631504297E+03  0.79969918968E+02 0.  0.
         23    2    1    2    0    0 -0.34728709875E+03  0.36016620254E+02  0.79605632080E+03  0.87357011003E+03  0.86680709262E+02 0.  0.
        -11    1    3    3    0    0  0.29527659249E+02 -0.28970992040E+01  0.12185846005E+03  0.12541834049E+03  0.00000000000E+00 0.  1.
         12    1    3    3    0    0 -0.45705210916E+02 -0.15867541206E+02  0.43823413502E+03  0.44089670248E+03  0.00000000000E+00 0. -1.
        -13    1    4    4    0    0 -0.10163670499E+03  0.46590384056E+02  0.20718325353E+03  0.23542638813E+03  0.00000000000E+00 0.  1.
         13    1    4    4    0    0 -0.24565039377E+03 -0.10573763802E+02  0.58887306727E+03  0.63814372190E+03  0.00000000000E+00 0. -1.
          1    1    1    2  501    0  0.36346465042E+03 -0.17251979844E+02  0.45098227933E+03  0.57947320834E+03  0.00000000000E+00 0. -1.
<scales pt_clust_5="13000.00000" pt_clust_6="13000.00000" pt_clust_7="13000.00000" pt_clust_8="13000.00000" pt_clust_9="358.12377"></scales>
<clustering>
<clus scale="   79.970">  5  6 -1 -1</clus>
<clus scale="   83.720">  1  5  2 -1</clus>
<clus scale="   86.681">  7  8 -1 -1</clus>
<clus scale="  358.124">  2  9  1 -1</clus>
<clus scale="  358.124">  2  5  1 -1</clus>
</clustering>
</event>
<event>
 9    2  0.5615294E-005  0.2111628E+03  0.7546771E-02  0.1153237E+00
         21   -1    0    0  501  502  0.00000000000E+00  0.00000000000E+00  0.16027669527E+03  0.16027669527E+03  0.00000000000E+00 0. -1.
          2   -1    0    0  502    0 -0.00000000000E+00 -0.00000000000E+00 -0.23365401218E+04  0.23365401218E+04  0.00000000000E+00 0. -1.
         24    2    1    2    0    0 -0.13483954491E+03 -0.71356420129E+01 -0.45775337774E+03  0.48374933535E+03  0.79010406663E+02 0.  0.
         23    2    1    2    0    0  0.43586321621E+01  0.19084847549E+03  0.60406317260E+02  0.21993639026E+03  0.90999749034E+02 0.  0.
        -11    1    3    3    0    0 -0.32570058448E+02 -0.33077123473E+02 -0.19835364362E+03  0.20371321199E+03  0.00000000000E+00 0.  1.
         12    1    3    3    0    0 -0.10226948646E+03  0.25941481460E+02 -0.25939973413E+03  0.28003612336E+03  0.00000000000E+00 0. -1.
        -13    1    4    4    0    0 -0.35809657607E+02  0.66616892973E+02 -0.10335002262E+01  0.75638681440E+02  0.00000000000E+00 0.  1.
         13    1    4    4    0    0  0.40168289770E+02  0.12423158252E+03  0.61439817487E+02  0.14429770882E+03  0.00000000000E+00 0. -1.
          1    1    1    2  501    0  0.13048091275E+03 -0.18371283348E+03 -0.17789163661E+04  0.17931310915E+04  0.00000000000E+00 0. -1.
<scales pt_clust_5="13000.00000" pt_clust_6="13000.00000" pt_clust_7="13000.00000" pt_clust_8="13000.00000" pt_clust_9="190.54870"></scales>
<clustering>
<clus scale="   79.010">  5  6 -1 -1</clus>
<clus scale="   91.000">  7  8 -1 -1</clus>
<clus scale="  156.446">  2  5  1 -1</clus>
<clus scale="  190.549">  1  9  2 -1</clus>
<clus scale="  190.549">  1  5  2 -1</clus>
</clustering>
</event>
<event>
 9    2  0.5615294E-005  0.1944235E+03  0.7546771E-02  0.1188044E+00
          2   -1    0    0  502    0 -0.00000000000E+00  0.00000000000E+00  0.10397491810E+04  0.10397491810E+04  0.00000000000E+00 0. -1.
         21   -1    0    0  501  502  0.00000000000E+00 -0.00000000000E+00 -0.52036918058E+02  0.52036918058E+02  0.00000000000E+00 0. -1.
         23    2    1    2    0    0 -0.15320135874E+01 -0.49784084834E+01  0.18593046076E+03  0.20677401403E+03  0.90322893141E+02 0.  0.
         24    2    1    2    0    0 -0.10792369356E+03  0.14539770689E+03  0.44635676072E+03  0.48748838599E+03  0.74983677121E+02 0.  0.
        -11    1    4    4    0    0 -0.20142857606E+02  0.12140846754E+02  0.15853333274E+02  0.28363057810E+02  0.00000000000E+00 0.  1.
         12    1    4    4    0    0 -0.87780835956E+02  0.13325686014E+03  0.43050342744E+03  0.45912532818E+03  0.00000000000E+00 0. -1.
        -13    1    3    3    0    0  0.14924603453E+02  0.26432190466E+02  0.15997498418E+03  0.16282935867E+03  0.00000000000E+00 0.  1.
         13    1    3    3    0    0 -0.16456617040E+02 -0.31410598950E+02  0.25955476577E+02  0.43944655365E+02  0.00000000000E+00 0. -1.
          1    1    1    2  501    0  0.10945570715E+03 -0.14041929841E+03  0.35542504149E+03  0.39752369905E+03  0.00000000000E+00 0. -1.
<scales pt_clust_5="13000.00000" pt_clust_6="13000.00000" pt_clust_7="13000.00000" pt_clust_8="13000.00000" pt_clust_9="179.38207"></scales>
<clustering>
<clus scale="   74.984">  5  6 -1 -1</clus>
<clus scale="   90.323">  7  8 -1 -1</clus>
<clus scale="   90.473">  1  7  2 -1</clus>
<clus scale="  179.382">  2  9  1 -1</clus>
<clus scale="  179.382">  2  5  1 -1</clus>
</clustering>
</event>
<event>
 9    2  0.5615294E-005  0.1066636E+03  0.7546771E-02  0.1273222E+00
         21   -1    0    0  501  502  0.00000000000E+00  0.00000000000E+00  0.10486757498E+03  0.10486757498E+03  0.00000000000E+00 0.  1.
          2   -1    0    0  502    0 -0.00000000000E+00 -0.00000000000E+00 -0.18800351159E+03  0.18800351159E+03  0.00000000000E+00 0. -1.
         24    2    1    2    0    0  0.24248573503E+02 -0.35603552371E+02 -0.57929662521E+02  0.10837345796E+03  0.80829167579E+02 0.  0.
         23    2    1    2    0    0 -0.54313086923E+02  0.24999975432E+02 -0.67965812022E+02  0.13116200361E+03  0.94916855215E+02 0.  0.
        -11    1    3    3    0    0  0.10185154314E+02  0.19364707072E+02  0.62054525223E+01  0.22742842597E+02  0.00000000000E+00 0.  1.
         12    1    3    3    0    0  0.14063419189E+02 -0.54968259443E+02 -0.64135115043E+02  0.85630615360E+02  0.00000000000E+00 0. -1.
        -13    1    4    4    0    0 -0.12450903506E+02  0.32928281545E+02 -0.79564916179E+02  0.87005014857E+02  0.00000000000E+00 0. -1.
         13    1    4    4    0    0 -0.41862183417E+02 -0.79283061126E+01  0.11599104158E+02  0.44156988751E+02  0.00000000000E+00 0.  1.
          1    1    1    2  501    0  0.30064513420E+02  0.10603576939E+02  0.42759537927E+02  0.53335625006E+02  0.00000000000E+00 0. -1.
<scales pt_clust_5="13000.00000" pt_clust_6="13000.00000" pt_clust_7="13000.00000" pt_clust_8="13000.00000" pt_clust_9="31.87963"></scales>
<clustering>
<clus scale="   31.880">  1  9  2 -1</clus>
<clus scale="   80.829">  5  6 -1 -1</clus>
<clus scale="   94.347">  2  5  1 -1</clus>
<clus scale="   94.917">  7  8 -1 -1</clus>
<clus scale="   31.880">  1  5  2 -1</clus>
</clustering>
</event>
<event>
 9    2  0.5615294E-005  0.1422563E+03  0.7546771E-02  0.1213239E+00
         -1   -1    0    0    0  501 -0.00000000000E+00  0.00000000000E+00  0.11074863138E+04  0.11074863138E+04  0.00000000000E+00 0.  1.
         21   -1    0    0  501  502  0.00000000000E+00 -0.00000000000E+00 -0.26316659415E+02  0.26316659415E+02  0.00000000000E+00 0.  1.
         23    2    1    2    0    0 -0.99891093791E+02  0.46426756728E+02  0.58753525293E+03  0.60493181088E+03  0.92796271579E+02 0.  0.
         24    2    1    2    0    0  0.11053827875E+03  0.44283765181E+00  0.29974489694E+03  0.32911315527E+03  0.79054149544E+02 0.  0.
        -11    1    4    4    0    0  0.11810620709E+03  0.45197295538E+01  0.29766100181E+03  0.32026797546E+03  0.00000000000E+00 0.  1.
         12    1    4    4    0    0 -0.75679283459E+01 -0.40768919020E+01  0.20838951336E+01  0.88451798148E+01  0.00000000000E+00 0. -1.
        -11    1    3    3    0    0 -0.62081031357E+01 -0.25293556974E+02  0.10747511634E+03  0.11058573688E+03  0.00000000000E+00 0. -1.
         11    1    3    3    0    0 -0.93682990655E+02  0.71720313702E+02  0.48006013660E+03  0.49434607401E+03  0.00000000000E+00 0.  1.
         -2    1    1    2    0  502 -0.10647184955E+02 -0.46869594379E+02  0.19388950456E+03  0.19975800711E+03  0.00000000000E+00 0.  1.
<scales pt_clust_5="13000.00000" pt_clust_6="13000.00000" pt_clust_7="13000.00000" pt_clust_8="13000.00000" pt_clust_9="48.06375"></scales>
<clustering>
<clus scale="   48.064">  2  9  1 -1</clus>
<clus scale="   79.054">  5  6 -1 -1</clus>
<clus scale="   92.796">  7  8 -1 -1</clus>
<clus scale="  133.698">  2  5  1 -1</clus>
<clus scale="   48.064">  2  5  1 -1</clus>
</clustering>
</event>
<event>
 9    2  0.5615294E-005  0.1429685E+03  0.7546771E-02  0.1213154E+00
          2   -1    0    0  502    0 -0.00000000000E+00  0.00000000000E+00  0.67482912975E+03  0.67482912975E+03  0.00000000000E+00 0. -1.
         21   -1    0    0  501  502  0.00000000000E+00 -0.00000000000E+00 -0.53032004293E+02  0.53032004293E+02  0.00000000000E+00 0.  1.
         24    2    1    2    0    0 -0.12729252450E+03  0.17484453575E+02  0.46072437166E+03  0.48350000155E+03  0.70683887423E+02 0.  0.
         23    2    1    2    0    0  0.73887340249E+02  0.20890135168E+02  0.10456815133E+03  0.15765765583E+03  0.89586278932E+02 0.  0.
        -13    1    3    3    0    0 -0.10608317806E+03  0.14362274157E+02  0.44279837079E+03  0.45555495032E+03  0.00000000000E+00 0.  1.
         14    1    3    3    0    0 -0.21209346441E+02  0.31221794178E+01  0.17926000870E+02  0.27945051225E+02  0.00000000000E+00 0. -1.
        -11    1    4    4    0    0  0.41532587411E+02 -0.34301352891E+02  0.43887740792E+02  0.69481453777E+02  0.00000000000E+00 0.  1.
         11    1    4    4    0    0  0.32354752838E+02  0.55191488059E+02  0.60680410543E+02  0.88176202056E+02  0.00000000000E+00 0. -1.
          1    1    1    2  501    0  0.53405184255E+02 -0.38374588743E+02  0.56504602466E+02  0.86703476669E+02  0.00000000000E+00 0. -1.
<scales pt_clust_5="13000.00000" pt_clust_6="13000.00000" pt_clust_7="13000.00000" pt_clust_8="13000.00000" pt_clust_9="65.76262"></scales>
<clustering>
<clus scale="   65.763">  2  9  1 -1</clus>
<clus scale="   70.684">  5  6 -1 -1</clus>
<clus scale="   89.586">  7  8 -1 -1</clus>
<clus scale="  131.949">  1  5  2 -1</clus>
<clus scale="   65.763">  2  5  1 -1</clus>
</clustering>
</event>
<event>
 9    2  0.5615294E-005  0.1478239E+03  0.7546771E-02  0.1205096E+00
         21   -1    0    0  501  502  0.00000000000E+00  0.00000000000E+00  0.34699300398E+03  0.34699300398E+03  0.00000000000E+00 0. -1.
          2   -1    0    0  502    0 -0.00000000000E+00 -0.00000000000E+00 -0.18594855346E+03  0.18594855346E+03  0.00000000000E+00 0. -1.
         24    2    1    2    0    0  0.87898952857E+02  0.90909578600E+02 -0.58185273070E+02  0.16100890486E+03  0.80917019507E+02 0.  0.
         23    2    1    2    0    0 -0.13842533813E+02 -0.11551611328E+03  0.93561297655E+01  0.14802025869E+03  0.91032256093E+02 0.  0.
        -13    1    3    3    0    0  0.16791224351E+02 -0.14722177967E+02 -0.43024539750E+01  0.22742006277E+02  0.00000000000E+00 0.  1.
         14    1    3    3    0    0  0.71107728506E+02  0.10563175657E+03 -0.53882819095E+02  0.13826689858E+03  0.00000000000E+00 0. -1.
        -11    1    4    4    0    0  0.49057226014E+01 -0.45146571447E+02 -0.39614053796E+02  0.60262362099E+02  0.00000000000E+00 0.  1.
         11    1    4    4    0    0 -0.18748256414E+02 -0.70369541834E+02  0.48970183561E+02  0.87757896593E+02  0.00000000000E+00 0. -1.
          1    1    1    2  501    0 -0.74056419045E+02  0.24606534681E+02  0.20987359382E+03  0.22391239388E+03  0.00000000000E+00 0. -1.
<scales pt_clust_5="13000.00000" pt_clust_6="13000.00000" pt_clust_7="13000.00000" pt_clust_8="13000.00000" pt_clust_9="78.03739"></scales>
<clustering>
<clus scale="   78.037">  1  9  2 -1</clus>
<clus scale="   80.917">  5  6 -1 -1</clus>
<clus scale="   91.032">  7  8 -1 -1</clus>
<clus scale="  141.819">  2  5  1 -1</clus>
<clus scale="   78.037">  1  5  2 -1</clus>
</clustering>
</event>
<event>
 9    2  0.5615294E-005  0.2714611E+03  0.7546771E-02  0.1100991E+00
          2   -1    0    0  502    0 -0.00000000000E+00  0.00000000000E+00  0.89982226031E+03  0.89982226031E+03  0.00000000000E+00 0. -1.
         21   -1    0    0  501  502  0.00000000000E+00 -0.00000000000E+00 -0.15747609338E+03  0.15747609338E+03  0.00000000000E+00 0.  1.
         24    2    1    2    0    0  0.97612595168E+02  0.30993118155E+03  0.44708465068E+03  0.55863663214E+03  0.81268972346E+02 0.  0.
         23    2    1    2    0    0 -0.14510517466E+03 -0.13391849994E+03  0.14110432063E+03  0.25991405108E+03  0.93033371998E+02 0.  0.
        -13    1    3    3    0    0  0.79006236506E+02  0.26070749136E+03  0.41677977654E+03  0.49791140135E+03  0.00000000000E+00 0.  1.
         14    1    3    3    0    0  0.18606358662E+02  0.49223690193E+02  0.30304874140E+02  0.60725230798E+02  0.00000000000E+00 0. -1.
        -13    1    4    4    0    0 -0.97558436570E+02 -0.48987763541E+02  0.32123870409E+02  0.11379539785E+03  0.00000000000E+00 0.  1.
         13    1    4    4    0    0 -0.47546738095E+02 -0.84930736399E+02  0.10898045022E+03  0.14611865322E+03  0.00000000000E+00 0. -1.
          1    1    1    2  501    0  0.47492579496E+02 -0.17601268161E+03  0.15415719562E+03  0.23874767047E+03  0.00000000000E+00 0. -1.
<scales pt_clust_5="13000.00000" pt_clust_6="13000.00000" pt_clust_7="13000.00000" pt_clust_8="13000.00000" pt_clust_9="182.30746"></scales>
<clustering>
<clus scale="   81.269">  5  6 -1 -1</clus>
<clus scale="   93.033">  7  8 -1 -1</clus>
<clus scale="  182.307">  2  9  1 -1</clus>
<clus scale="  267.658">  1  5  2 -1</clus>
<clus scale="  182.307">  2  5  1 -1</clus>
</clustering>
</event>
<event>
 9    2  0.5615294E-005  0.2705876E+03  0.7546771E-02  0.1102454E+00
          2   -1    0    0  502    0 -0.00000000000E+00  0.00000000000E+00  0.46984575209E+03  0.46984575209E+03  0.00000000000E+00 0. -1.
         21   -1    0    0  501  502  0.00000000000E+00 -0.00000000000E+00 -0.24951132509E+03  0.24951132509E+03  0.00000000000E+00 0. -1.
         23    2    1    2    0    0 -0.25331302587E+03 -0.57910744500E+02  0.27907928189E+03  0.39686035970E+03  0.10996252141E+03 0.  0.
         24    2    1    2    0    0  0.20990157710E+03  0.19771655235E+02 -0.10438037718E+03  0.24886421847E+03  0.81169856949E+02 0.  0.
        -13    1    4    4    0    0  0.72839298232E+02  0.96297728273E+01  0.43739655524E+01  0.73603175653E+02  0.00000000000E+00 0.  1.
         14    1    4    4    0    0  0.13706227886E+03  0.10141882408E+02 -0.10875434274E+03  0.17526104282E+03  0.00000000000E+00 0. -1.
        -11    1    3    3    0    0 -0.57093078005E+02 -0.62999439261E+02  0.70529906131E+02  0.11046726466E+03  0.00000000000E+00 0.  1.
         11    1    3    3    0    0 -0.19621994787E+03  0.50886947611E+01  0.20854937576E+03  0.28639309504E+03  0.00000000000E+00 0. -1.
          1    1    1    2  501    0  0.43411448776E+02  0.38139089265E+02  0.45635522299E+02  0.73632499009E+02  0.00000000000E+00 0. -1.
<scales pt_clust_5="13000.00000" pt_clust_6="13000.00000" pt_clust_7="13000.00000" pt_clust_8="13000.00000" pt_clust_9="57.78536"></scales>
<clustering>
<clus scale="   57.785">  2  9  1 -1</clus>
<clus scale="   81.170">  5  6 -1 -1</clus>
<clus scale="  109.963">  7  8 -1 -1</clus>
<clus scale="  260.220">  2  5  1 -1</clus>
<clus scale="   57.785">  2  5  1 -1</clus>
</clustering>
</event>
<event>
 9    2  0.5615294E-005  0.1010363E+03  0.7546771E-02  0.1282787E+00
         21   -1    0    0  501  502  0.00000000000E+00  0.00000000000E+00  0.88292330550E+02  0.88292330550E+02  0.00000000000E+00 0.  1.
          2   -1    0    0  502    0 -0.00000000000E+00 -0.00000000000E+00 -0.26214222533E+03  0.26214222533E+03  0.00000000000E+00 0. -1.
         24    2    1    2    0    0  0.16310224080E+02 -0.34455894896E+02 -0.14115058129E+03  0.16731062734E+03  0.81339580277E+02 0.  0.
         23    2    1    2    0    0  0.27356472065E+01  0.78847969892E+02  0.69863803344E+01  0.12060708417E+03  0.90954786135E+02 0.  0.
        -13    1    3    3    0    0  0.28862176898E+02 -0.56942003824E+02 -0.94902878579E+02  0.11437645482E+03  0.00000000000E+00 0.  1.
         14    1    3    3    0    0 -0.12551952818E+02  0.22486108928E+02 -0.46247702709E+02  0.52934172518E+02  0.00000000000E+00 0. -1.
        -11    1    4    4    0    0  0.38170044306E+02  0.15748890525E+02  0.21868676756E+02  0.46724927588E+02  0.00000000000E+00 0. -1.
         11    1    4    4    0    0 -0.35434397100E+02  0.63099079367E+02 -0.14882296422E+02  0.73882156585E+02  0.00000000000E+00 0.  1.
          1    1    1    2  501    0 -0.19045871287E+02 -0.44392074996E+02 -0.39685693831E+02  0.62516844373E+02  0.00000000000E+00 0. -1.
<scales pt_clust_5="13000.00000" pt_clust_6="13000.00000" pt_clust_7="13000.00000" pt_clust_8="13000.00000" pt_clust_9="48.30532"></scales>
<clustering>
<clus scale="   48.305">  1  9  2 -1</clus>
<clus scale="   81.340">  5  6 -1 -1</clus>
<clus scale="   90.955">  7  8 -1 -1</clus>
<clus scale="   92.475">  2  5  1 -1</clus>
<clus scale="   48.305">  1  5  2 -1</clus>
</clustering>
</event>
<event>
 9    2  0.5615294E-005  0.1013455E+03  0.7546771E-02  0.1286778E+00
         -1   -1    0    0    0  501 -0.00000000000E+00  0.00000000000E+00  0.10609046692E+02  0.10609046692E+02  0.00000000000E+00 0.  1.
         21   -1    0    0  501  502  0.00000000000E+00 -0.00000000000E+00 -0.13336498141E+04  0.13336498141E+04  0.00000000000E+00 0. -1.
         23    2    1    2    0    0  0.23284214044E+02  0.52126458993E+01 -0.39533483148E+03  0.40777340290E+03  0.97057677879E+02 0.  0.
         24    2    1    2    0    0 -0.28071666072E+02 -0.35203039401E+02 -0.79932694361E+03  0.80456309788E+03  0.79818188887E+02 0.  0.
        -13    1    4    4    0    0 -0.14419337392E+02  0.16443236299E+02 -0.71296358112E+02  0.74575250524E+02  0.00000000000E+00 0.  1.
         14    1    4    4    0    0 -0.13652328681E+02 -0.51646275700E+02 -0.72803058549E+03  0.72998784736E+03  0.00000000000E+00 0. -1.
        -13    1    3    3    0    0 -0.29886961339E+02 -0.24533649764E+02 -0.17052334683E+03  0.17485234411E+03  0.00000000000E+00 0. -1.
         13    1    3    3    0    0  0.53171175383E+02  0.29746295663E+02 -0.22481148465E+03  0.23292105879E+03  0.00000000000E+00 0.  1.
         -2    1    1    2    0  502  0.47874520284E+01  0.29990393502E+02 -0.12837899229E+03  0.13192235997E+03  0.00000000000E+00 0.  1.
<scales pt_clust_5="13000.00000" pt_clust_6="13000.00000" pt_clust_7="13000.00000" pt_clust_8="13000.00000" pt_clust_9="30.37012"></scales>
<clustering>
<clus scale="   30.370">  2  9  1 -1</clus>
<clus scale="   79.818">  5  6 -1 -1</clus>
<clus scale="   84.980">  2  5  1 -1</clus>
<clus scale="   97.058">  7  8 -1 -1</clus>
<clus scale="   30.370">  2  5  1 -1</clus>
</clustering>
</event>
<event>
 9    2  0.5615294E-005  0.9092961E+02  0.7546771E-02  0.1306053E+00
         21   -1    0    0  501  502  0.00000000000E+00  0.00000000000E+00  0.13959763810E+03  0.13959763810E+03  0.00000000000E+00 0. -1.
          4   -1    0    0  502    0 -0.00000000000E+00 -0.00000000000E+00 -0.13235811353E+03  0.13235811353E+03  0.00000000000E+00 0. -1.
         23    2    1    2    0    0 -0.17834612879E+01  0.64337978986E+01 -0.66213080332E+02  0.11192720986E+03  0.89994187653E+02 0.  0.
         24    2    1    2    0    0  0.36060917190E+02  0.12485520994E+01  0.12653712547E+02  0.89811251894E+02  0.81264973356E+02 0.  0.
        -11    1    4    4    0    0 -0.26007888976E+02  0.59039269709E+01  0.41133885677E+01  0.26984932984E+02  0.00000000000E+00 0.  1.
         12    1    4    4    0    0  0.62068806166E+02 -0.46553748715E+01  0.85403239797E+01  0.62826318909E+02  0.00000000000E+00 0. -1.
        -11    1    3    3    0    0  0.27970753116E+02  0.36768520148E+02 -0.24117812006E+02  0.52114834354E+02  0.00000000000E+00 0. -1.
         11    1    3    3    0    0 -0.29754214404E+02 -0.30334722249E+02 -0.42095268326E+02  0.59812375510E+02  0.00000000000E+00 0.  1.
          3    1    1    2  501    0 -0.34277455902E+02 -0.76823499980E+01  0.60798892353E+02  0.70217289864E+02  0.00000000000E+00 0. -1.
<scales pt_clust_5="13000.00000" pt_clust_6="13000.00000" pt_clust_7="13000.00000" pt_clust_8="13000.00000" pt_clust_9="35.12780"></scales>
<clustering>
<clus scale="   35.128">  1  9  2 -1</clus>
<clus scale="   81.265">  5  6 -1 -1</clus>
<clus scale="   82.300">  1  5  2 -1</clus>
<clus scale="   89.994">  7  8 -1 -1</clus>
<clus scale="   35.128">  1  5  2 -1</clus>
</clustering>
</event>
<event>
 9    2  0.5615294E-005  0.1039185E+03  0.7546771E-02  0.1279063E+00
          2   -1    0    0  502    0 -0.00000000000E+00  0.00000000000E+00  0.39162646594E+03  0.39162646594E+03  0.00000000000E+00 0. -1.
         21   -1    0    0  501  502  0.00000000000E+00 -0.00000000000E+00 -0.10479404727E+03  0.10479404727E+03  0.00000000000E+00 0. -1.
         24    2    1    2    0    0  0.43962316739E+02  0.83716686045E+01  0.29420265384E+03  0.30740243418E+03  0.77060267872E+02 0.  0.
         23    2    1    2    0    0 -0.69120159514E+02 -0.42036953705E+02  0.37117250407E+02  0.12781836624E+03  0.91734086040E+02 0.  0.
        -11    1    3    3    0    0 -0.20374515016E+02  0.13146975590E+02  0.93049578398E+02  0.96157099942E+02  0.00000000000E+00 0.  1.
         12    1    3    3    0    0  0.64336831755E+02 -0.47753069857E+01  0.20115307544E+03  0.21124533424E+03  0.00000000000E+00 0. -1.
        -11    1    4    4    0    0 -0.51008421910E+02 -0.63587837300E+02  0.35959868689E+00  0.81519331876E+02  0.00000000000E+00 0. -1.
         11    1    4    4    0    0 -0.18111737604E+02  0.21550883595E+02  0.36757651720E+02  0.46299034361E+02  0.00000000000E+00 0.  1.
          1    1    1    2  501    0  0.25157842775E+02  0.33665285100E+02 -0.44487485578E+02  0.61199712801E+02  0.00000000000E+00 0. -1.
<scales pt_clust_5="13000.00000" pt_clust_6="13000.00000" pt_clust_7="13000.00000" pt_clust_8="13000.00000" pt_clust_9="42.02700"></scales>
<clustering>
<clus scale="   42.027">  2  9  1 -1</clus>
<clus scale="   77.060">  5  6 -1 -1</clus>
<clus scale="   91.226">  1  5  2 -1</clus>
<clus scale="   91.734">  7  8 -1 -1</clus>
<clus scale="   42.027">  2  5  1 -1</clus>
</clustering>
</event>
<event>
 9    2  0.5615294E-005  0.1182881E+03  0.7546771E-02  0.1247879E+00
         -1   -1    0    0    0  501 -0.00000000000E+00  0.00000000000E+00  0.81970571074E+03  0.81970571074E+03  0.00000000000E+00 0.  1.
         21   -1    0    0  501  502  0.00000000000E+00 -0.00000000000E+00 -0.35365920054E+02  0.35365920054E+02  0.00000000000E+00 0.  1.
         23    2    1    2    0    0  0.24250058913E+02  0.63096872072E+02  0.51062442689E+03  0.52303290604E+03  0.90867127355E+02 0.  0.
         24    2    1    2    0    0 -0.45402873791E+01 -0.99723153599E+02  0.25440396239E+03  0.28618144816E+03  0.84930110212E+02 0.  0.
        -13    1    4    4    0    0  0.36190783573E+02 -0.51436637499E+02  0.16609733888E+03  0.17760581769E+03  0.00000000000E+00 0.  1.
         14    1    4    4    0    0 -0.40731070953E+02 -0.48286516099E+02  0.88306623507E+02  0.10857563048E+03  0.00000000000E+00 0. -1.
        -13    1    3    3    0    0 -0.20333842423E+02  0.65420800104E+02  0.31980326152E+03  0.32705882088E+03  0.00000000000E+00 0. -1.
         13    1    3    3    0    0  0.44583901336E+02 -0.23239280322E+01  0.19082116537E+03  0.19597408516E+03  0.00000000000E+00 0.  1.
         -2    1    1    2    0  502 -0.19709771534E+02  0.36626281527E+02  0.19311401400E+02  0.45857276592E+02  0.00000000000E+00 0.  1.
<scales pt_clust_5="13000.00000" pt_clust_6="13000.00000" pt_clust_7="13000.00000" pt_clust_8="13000.00000" pt_clust_9="41.59278"></scales>
<clustering>
<clus scale="   41.593">  2  9  1 -1</clus>
<clus scale="   84.930">  5  6 -1 -1</clus>
<clus scale="   90.867">  7  8 -1 -1</clus>
<clus scale="  113.791">  2  5  1 -1</clus>
<clus scale="   41.593">  2  5  1 -1</clus>
</clustering>
</event>
<event>
 9    2  0.6678538E-005  0.1078182E+03  0.7546771E-02  0.1267505E+00
         21   -1    0    0  501  502  0.00000000000E+00  0.00000000000E+00  0.24348284927E+03  0.24348284927E+03  0.00000000000E+00 0. -1.
          4   -1    0    0  502    0 -0.00000000000E+00 -0.00000000000E+00 -0.22197327778E+03  0.22197327778E+03  0.00000000000E+00 0. -1.
         23    2    1    2    0    0  0.34272791152E+02  0.50354011393E+02 -0.17673940558E+03  0.20909288778E+03  0.93663587146E+02 0.  0.
         24    2    1    2    0    0 -0.27015110396E+02  0.15838147926E+02  0.88183234475E+02  0.12772209664E+03  0.86925186265E+02 0.  0.
        -13    1    4    4    0    0 -0.58821344200E+02  0.12268929945E+02  0.62354761439E+02  0.86594419275E+02  0.00000000000E+00 0.  1.
         14    1    4    4    0    0  0.31806233804E+02  0.35692179809E+01  0.25828473036E+02  0.41127677362E+02  0.00000000000E+00 0. -1.
        -11    1    3    3    0    0 -0.29911570690E+02  0.29692219556E+02 -0.48864210894E+02  0.64529381444E+02  0.00000000000E+00 0.  1.
         11    1    3    3    0    0  0.64184361842E+02  0.20661791837E+02 -0.12787519469E+03  0.14456350633E+03  0.00000000000E+00 0. -1.
          3    1    1    2  501    0 -0.72576807562E+01 -0.66192159319E+02  0.11006574260E+03  0.12864114264E+03  0.00000000000E+00 0. -1.
<scales pt_clust_5="13000.00000" pt_clust_6="13000.00000" pt_clust_7="13000.00000" pt_clust_8="13000.00000" pt_clust_9="66.58886"></scales>
<clustering>
<clus scale="   66.589">  1  9  2 -1</clus>
<clus scale="   86.925">  5  6 -1 -1</clus>
<clus scale="   93.664">  7  8 -1 -1</clus>
<clus scale="  102.019">  1  5  2 -1</clus>
<clus scale="   66.589">  1  5  2 -1</clus>
</clustering>
</event>
<event>
 9    2  0.5615294E-005  0.1256005E+03  0.7546771E-02  0.1245979E+00
          2   -1    0    0  502    0 -0.00000000000E+00  0.00000000000E+00  0.41015518827E+03  0.41015518827E+03  0.00000000000E+00 0. -1.
         21   -1    0    0  501  502  0.00000000000E+00 -0.00000000000E+00 -0.78974545643E+02  0.78974545643E+02  0.00000000000E+00 0. -1.
         24    2    1    2    0    0  0.79030051633E+02  0.16694395644E+02  0.15370337565E+03  0.19085980058E+03  0.79235622570E+02 0.  0.
         23    2    1    2    0    0  0.13773206428E+02 -0.69112083534E+02  0.80094784816E+02  0.15389747563E+03  0.11091923704E+03 0.  0.
        -13    1    3    3    0    0  0.43168363088E+02  0.31864224929E+02  0.30648615162E+02  0.61791374910E+02  0.00000000000E+00 0.  1.
         14    1    3    3    0    0  0.35861688545E+02 -0.15169829285E+02  0.12305476049E+03  0.12906842567E+03  0.00000000000E+00 0. -1.
        -13    1    4    4    0    0  0.42383132829E+02 -0.72040706019E+02  0.90612286683E+02  0.12327521961E+03  0.00000000000E+00 0.  1.
         13    1    4    4    0    0 -0.28609926401E+02  0.29286224841E+01 -0.10517501867E+02  0.30622256022E+02  0.00000000000E+00 0. -1.
          1    1    1    2  501    0 -0.92803258061E+02  0.52417687891E+02  0.97382482155E+02  0.14437245770E+03  0.00000000000E+00 0. -1.
<scales pt_clust_5="13000.00000" pt_clust_6="13000.00000" pt_clust_7="13000.00000" pt_clust_8="13000.00000" pt_clust_9="106.58358"></scales>
<clustering>
<clus scale="   79.236">  5  6 -1 -1</clus>
<clus scale="  106.584">  2  9  1 -1</clus>
<clus scale="   98.746">  1  5  2 -1</clus>
<clus scale="  110.919">  7  8 -1 -1</clus>
<clus scale="  106.584">  2  5  1 -1</clus>
</clustering>
</event>
<event>
 9    2  0.5615294E-005  0.9527138E+02  0.7546771E-02  0.1297969E+00
          2   -1    0    0  502    0 -0.00000000000E+00  0.00000000000E+00  0.87484650552E+03  0.87484650552E+03  0.00000000000E+00 0. -1.
         21   -1    0    0  501  502  0.00000000000E+00 -0.00000000000E+00 -0.21064949269E+02  0.21064949269E+02  0.00000000000E+00 0. -1.
         23    2    1    2    0    0 -0.29999675958E+02  0.86312537359E+01  0.37190599195E+03  0.38456516708E+03  0.92746006818E+02 0.  0.
         24    2    1    2    0    0 -0.35828953852E+02 -0.40463643807E+02  0.24221224336E+03  0.26077650309E+03  0.80103641165E+02 0.  0.
        -13    1    4    4    0    0 -0.52329587168E+02 -0.10140558784E+02  0.19584537524E+03  0.20296952389E+03  0.00000000000E+00 0.  1.
         14    1    4    4    0    0  0.16500633317E+02 -0.30323085023E+02  0.46366868113E+02  0.57806979195E+02  0.00000000000E+00 0. -1.
        -13    1    3    3    0    0 -0.42819710147E+02 -0.29247074642E+02  0.27299735887E+03  0.27787852904E+03  0.00000000000E+00 0. -1.
         13    1    3    3    0    0  0.12820034189E+02  0.37878328377E+02  0.98908633084E+02  0.10668663804E+03  0.00000000000E+00 0.  1.
          1    1    1    2  501    0  0.65828629810E+02  0.31832390071E+02  0.23966332094E+03  0.25056978462E+03  0.00000000000E+00 0. -1.
<scales pt_clust_5="13000.00000" pt_clust_6="13000.00000" pt_clust_7="13000.00000" pt_clust_8="13000.00000" pt_clust_9="73.12123"></scales>
<clustering>
<clus scale="   73.121">  2  9  1 -1</clus>
<clus scale="   80.104">  5  6 -1 -1</clus>
<clus scale="   83.015">  2  5  1 -1</clus>
<clus scale="   92.746">  7  8 -1 -1</clus>
<clus scale="   73.121">  2  5  1 -1</clus>
</clustering>
</event>
<event>
 9    2  0.5615294E-005  0.1048541E+03  0.7546771E-02  0.1272630E+00
         -1   -1    0    0    0  501 -0.00000000000E+00  0.00000000000E+00  0.24046088039E+03  0.24046088039E+03  0.00000000000E+00 0.  1.
         21   -1    0    0  501  502  0.00000000000E+00 -0.00000000000E+00 -0.70911917148E+02  0.70911917148E+02  0.00000000000E+00 0. -1.
         24    2    1    2    0    0 -0.61160091381E+02  0.22743405740E+02  0.16066719190E+03  0.19083123997E+03  0.79654229724E+02 0.  0.
         23    2    1    2    0    0  0.50055797972E+02 -0.45135141591E+01  0.70214495193E+01  0.99115053509E+02  0.85138348339E+02 0.  0.
        -13    1    3    3    0    0 -0.18824247317E+02  0.43341410038E+02  0.11870549434E+03  0.12776472321E+03  0.00000000000E+00 0.  1.
         14    1    3    3    0    0 -0.42335844064E+02 -0.20598004298E+02  0.41961697558E+02  0.63066516755E+02  0.00000000000E+00 0. -1.
        -11    1    4    4    0    0  0.28080043543E+02  0.71341449359E+01 -0.37937452258E+02  0.47735051620E+02  0.00000000000E+00 0. -1.
         11    1    4    4    0    0  0.21975754430E+02 -0.11647659095E+02  0.44958901777E+02  0.51380001889E+02  0.00000000000E+00 0.  1.
         -2    1    1    2    0  502  0.11104293408E+02 -0.18229891581E+02  0.18603218285E+01  0.21426504065E+02  0.00000000000E+00 0.  1.
<scales pt_clust_5="13000.00000" pt_clust_6="13000.00000" pt_clust_7="13000.00000" pt_clust_8="13000.00000" pt_clust_9="21.34559"></scales>
<clustering>
<clus scale="   21.346">  2  9  1 -1</clus>
<clus scale="   79.654">  5  6 -1 -1</clus>
<clus scale="   85.138">  7  8 -1 -1</clus>
<clus scale="  100.452">  1  5  2 -1</clus>
<clus scale="   21.346">  2  5  1 -1</clus>
</clustering>
</event>
<event>
 9    2  0.5615294E-005  0.1250131E+03  0.7546771E-02  0.1241045E+00
         -1   -1    0    0    0  501 -0.00000000000E+00  0.00000000000E+00  0.34204681055E+03  0.34204681055E+03  0.00000000000E+00 0.  1.
         21   -1    0    0  501  502  0.00000000000E+00 -0.00000000000E+00 -0.60607907115E+02  0.60607907115E+02  0.00000000000E+00 0.  1.
         24    2    1    2    0    0  0.81494245343E+01  0.56552871489E+02  0.98123527997E+02  0.13903994080E+03  0.80244862738E+02 0.  0.
         23    2    1    2    0    0 -0.10582839420E+02 -0.10212562639E+03  0.15045560049E+03  0.20737811350E+03  0.99132003828E+02 0.  0.
        -11    1    3    3    0    0 -0.15294069237E+02  0.64625768282E+02  0.44442916252E+02  0.79909769646E+02  0.00000000000E+00 0.  1.
         12    1    3    3    0    0  0.23443493771E+02 -0.80728967929E+01  0.53680611746E+02  0.59130171150E+02  0.00000000000E+00 0. -1.
        -11    1    4    4    0    0 -0.30055259748E+02 -0.11271936784E+03  0.14170370289E+03  0.18354540021E+03  0.00000000000E+00 0.  1.
         11    1    4    4    0    0  0.19472420327E+02  0.10593741443E+02  0.87518975945E+01  0.23832713288E+02  0.00000000000E+00 0. -1.
         -2    1    1    2    0  502  0.24334148861E+01  0.45572754904E+02  0.32859774949E+02  0.56236663373E+02  0.00000000000E+00 0.  1.
<scales pt_clust_5="13000.00000" pt_clust_6="13000.00000" pt_clust_7="13000.00000" pt_clust_8="13000.00000" pt_clust_9="45.63768"></scales>
<clustering>
<clus scale="   45.638">  2  9  1 -1</clus>
<clus scale="   80.245">  5  6 -1 -1</clus>
<clus scale="   99.132">  7  8 -1 -1</clus>
<clus scale="  110.636">  1  5  2 -1</clus>
<clus scale="   45.638">  2  5  1 -1</clus>
</clustering>
</event>
<event>
 9    2  0.5615294E-005  0.9923208E+02  0.7546771E-02  0.1285913E+00
         21   -1    0    0  501  502  0.00000000000E+00  0.00000000000E+00  0.34428399341E+03  0.34428399341E+03  0.00000000000E+00 0. -1.
          4   -1    0    0  502    0 -0.00000000000E+00 -0.00000000000E+00 -0.41329294385E+02  0.41329294385E+02  0.00000000000E+00 0. -1.
         24    2    1    2    0    0  0.35901587958E+02 -0.21780819987E+01  0.10451197665E+03  0.13780158619E+03  0.82297362243E+02 0.  0.
         23    2    1    2    0    0 -0.49852055412E+02 -0.14806495572E+02  0.20026998522E+03  0.22575653652E+03  0.90296661410E+02 0.  0.
        -11    1    3    3    0    0  0.39910446406E+02  0.27874410077E+01  0.76535688773E+01  0.40733164329E+02  0.00000000000E+00 0.  1.
         12    1    3    3    0    0 -0.40088584480E+01 -0.49655230064E+01  0.96858407776E+02  0.97068421856E+02  0.00000000000E+00 0. -1.
        -13    1    4    4    0    0 -0.53950766451E+02  0.25253188607E+02  0.14967071565E+03  0.16108920466E+03  0.00000000000E+00 0. -1.
         13    1    4    4    0    0  0.40987110386E+01 -0.40059684179E+02  0.50599269572E+02  0.64667331860E+02  0.00000000000E+00 0.  1.
          3    1    1    2  501    0  0.13950467454E+02  0.16984577570E+02 -0.18272628520E+01  0.22055165086E+02  0.00000000000E+00 0. -1.
<scales pt_clust_5="13000.00000" pt_clust_6="13000.00000" pt_clust_7="13000.00000" pt_clust_8="13000.00000" pt_clust_9="21.97935"></scales>
<clustering>
<clus scale="   21.979">  1  9  2 -1</clus>
<clus scale="   82.297">  5  6 -1 -1</clus>
<clus scale="   90.297">  7  8 -1 -1</clus>
<clus scale="   92.013">  2  5  1 -1</clus>
<clus scale="   21.979">  1  5  2 -1</clus>
</clustering>
</event>
<event>
 9    2  0.5615294E-005  0.1127355E+03  0.7546771E-02  0.1265662E+00
         21   -1    0    0  501  502  0.00000000000E+00  0.00000000000E+00  0.10353606255E+03  0.10353606255E+03  0.00000000000E+00 0.  1.
         -1   -1    0    0    0  501 -0.00000000000E+00 -0.00000000000E+00 -0.16184357671E+03  0.16184357671E+03  0.00000000000E+00 0.  1.
         23    2    1    2    0    0 -0.17824278942E+02 -0.69183644459E+02 -0.85146237375E+02  0.14407681055E+03  0.91674227667E+02 0.  0.
         24    2    1    2    0    0  0.37039679330E+02  0.45237564277E+02  0.20784164744E+02  0.90008994712E+02  0.65201706714E+02 0.  0.
        -13    1    4    4    0    0  0.15429393714E+02  0.35840593545E+02  0.42688926915E+02  0.57835618931E+02  0.00000000000E+00 0.  1.
         14    1    4    4    0    0  0.21610285616E+02  0.93969707321E+01 -0.21904762171E+02  0.32173375780E+02  0.00000000000E+00 0. -1.
        -11    1    3    3    0    0  0.16460944156E+02 -0.71469006623E+02 -0.30293620270E+02  0.79350393945E+02  0.00000000000E+00 0.  1.
         11    1    3    3    0    0 -0.34285223098E+02  0.22853621638E+01 -0.54852617105E+02  0.64726416604E+02  0.00000000000E+00 0. -1.
         -2    1    1    2    0  502 -0.19215400388E+02  0.23946080182E+02  0.60545584637E+01  0.31293833999E+02  0.00000000000E+00 0.  1.
<scales pt_clust_5="13000.00000" pt_clust_6="13000.00000" pt_clust_7="13000.00000" pt_clust_8="13000.00000" pt_clust_9="30.70255"></scales>
<clustering>
<clus scale="   30.703">  1  9  2 -1</clus>
<clus scale="   65.202">  5  6 -1 -1</clus>
<clus scale="   91.674">  7  8 -1 -1</clus>
<clus scale="   92.501">  1  5  2 -1</clus>
<clus scale="   30.703">  1  5  2 -1</clus>
</clustering>
</event>
<event>
 9    2  0.5615294E-005  0.1207642E+03  0.7546771E-02  0.1245837E+00
          2   -1    0    0  502    0 -0.00000000000E+00  0.00000000000E+00  0.83251582699E+03  0.83251582699E+03  0.00000000000E+00 0. -1.
         21   -1    0    0  501  502  0.00000000000E+00 -0.00000000000E+00 -0.24582345705E+02  0.24582345705E+02  0.00000000000E+00 0.  1.
         24    2    1    2    0    0  0.17439836050E+02 -0.83395688049E+02  0.56233319940E+03  0.57416241578E+03  0.78643905528E+02 0.  0.
         23    2    1    2    0    0 -0.45938697901E+01  0.61407134042E+02  0.16516918575E+03  0.19856943317E+03  0.91416738724E+02 0.  0.
        -11    1    3    3    0    0  0.35362926171E+02 -0.33618481752E+02  0.13462190353E+03  0.14319146544E+03  0.00000000000E+00 0.  1.
         12    1    3    3    0    0 -0.17923090121E+02 -0.49777206297E+02  0.42771129587E+03  0.43097095034E+03  0.00000000000E+00 0. -1.
        -11    1    4    4    0    0 -0.39311877672E+02  0.35080040550E+01  0.85315145953E+02  0.94002148633E+02  0.00000000000E+00 0. -1.
         11    1    4    4    0    0  0.34718007882E+02  0.57899129987E+02  0.79854039795E+02  0.10456728454E+03  0.00000000000E+00 0.  1.
          1    1    1    2  501    0 -0.12845966260E+02  0.21988554006E+02  0.80431096132E+02  0.84366323740E+02  0.00000000000E+00 0. -1.
<scales pt_clust_5="13000.00000" pt_clust_6="13000.00000" pt_clust_7="13000.00000" pt_clust_8="13000.00000" pt_clust_9="25.46598"></scales>
<clustering>
<clus scale="   25.466">  2  9  1 -1</clus>
<clus scale="   78.644">  5  6 -1 -1</clus>
<clus scale="   91.417">  7  8 -1 -1</clus>
<clus scale="  111.408">  1  5  2 -1</clus>
<clus scale="   25.466">  2  5  1 -1</clus>
</clustering>
</event>
<event>
 9    2  0.5615294E-005  0.9592948E+02  0.7546771E-02  0.1296451E+00
          2   -1    0    0  502    0 -0.00000000000E+00  0.00000000000E+00  0.56608614055E+03  0.56608614055E+03  0.00000000000E+00 0. -1.
         21   -1    0    0  501  502  0.00000000000E+00 -0.00000000000E+00 -0.26877559694E+02  0.26877559694E+02  0.00000000000E+00 0. -1.
         24    2    1    2    0    0 -0.14578729915E+02 -0.54538708151E+01  0.17029728061E+03  0.18970233394E+03  0.82118984687E+02 0.  0.
         23    2    1    2    0    0 -0.23122028578E+02  0.31529764124E+02  0.16433824288E+03  0.19361539042E+03  0.94610290690E+02 0.  0.
        -11    1    3    3    0    0 -0.20330307086E+02 -0.39793491925E+02  0.65652982821E+02  0.79417614790E+02  0.00000000000E+00 0.  1.
         12    1    3    3    0    0  0.57515771708E+01  0.34339621109E+02  0.10464429779E+03  0.11028471915E+03  0.00000000000E+00 0. -1.
        -11    1    4    4    0    0  0.86817644283E+01  0.57006176338E+02  0.12151277563E+03  0.13450067589E+03  0.00000000000E+00 0.  1.
         11    1    4    4    0    0 -0.31803793006E+02 -0.25476412213E+02  0.42825467249E+02  0.59114714530E+02  0.00000000000E+00 0. -1.
          1    1    1    2  501    0  0.37700758493E+02 -0.26075893309E+02  0.20457305737E+03  0.20964597588E+03  0.00000000000E+00 0. -1.
<scales pt_clust_5="13000.00000" pt_clust_6="13000.00000" pt_clust_7="13000.00000" pt_clust_8="13000.00000" pt_clust_9="45.83996"></scales>
<clustering>
<clus scale="   45.840">  2  9  1 -1</clus>
<clus scale="   82.119">  5  6 -1 -1</clus>
<clus scale="   83.635">  1  5  2 -1</clus>
<clus scale="   94.610">  7  8 -1 -1</clus>
<clus scale="   45.840">  2  5  1 -1</clus>
</clustering>
</event>
<event>
 9    2  0.5615294E-005  0.3014908E+03  0.7546771E-02  0.1137213E+00
         21   -1    0    0  501  502  0.00000000000E+00  0.00000000000E+00  0.18746741878E+03  0.18746741878E+03  0.00000000000E+00 0. -1.
          2   -1    0    0  502    0 -0.00000000000E+00 -0.00000000000E+00 -0.10340652446E+04  0.10340652446E+04  0.00000000000E+00 0. -1.
         24    2    1    2    0    0  0.10469841899E+02  0.25239067891E+01 -0.27729744379E+03  0.28828543651E+03  0.78093744168E+02 0.  0.
         23    2    1    2    0    0  0.13728533257E+03  0.25038718284E+03 -0.80707112278E+01  0.30017981006E+03  0.92205087263E+02 0.  0.
        -13    1    3    3    0    0  0.14353700038E+01 -0.37549940460E+02 -0.12288900920E+03  0.12850590219E+03  0.00000000000E+00 0.  1.
         14    1    3    3    0    0  0.90344718952E+01  0.40073847250E+02 -0.15440843459E+03  0.15977953432E+03  0.00000000000E+00 0. -1.
        -13    1    4    4    0    0  0.37615438950E+02  0.37593411689E+02 -0.34996700631E+02  0.63662821999E+02  0.00000000000E+00 0.  1.
         13    1    4    4    0    0  0.99669893618E+02  0.21279377115E+03  0.26925989403E+02  0.23651698806E+03  0.00000000000E+00 0. -1.
          1    1    1    2  501    0 -0.14775517447E+03 -0.25291108963E+03 -0.56122967081E+03  0.63306741682E+03  0.00000000000E+00 0. -1.
<scales pt_clust_5="13000.00000" pt_clust_6="13000.00000" pt_clust_7="13000.00000" pt_clust_8="13000.00000" pt_clust_9="287.04532"></scales>
<clustering>
<clus scale="   78.094">  5  6 -1 -1</clus>
<clus scale="   78.833">  2  5  1 -1</clus>
<clus scale="   92.205">  7  8 -1 -1</clus>
<clus scale="  287.045">  1  9  2 -1</clus>
<clus scale="  287.045">  1  5  2 -1</clus>
</clustering>
</event>
<event>
 9    2  0.5615294E-005  0.9831496E+02  0.7546771E-02  0.1291641E+00
         21   -1    0    0  501  502  0.00000000000E+00  0.00000000000E+00  0.43906387681E+02  0.43906387681E+02  0.00000000000E+00 0.  1.
          4   -1    0    0  502    0 -0.00000000000E+00 -0.00000000000E+00 -0.58695351443E+03  0.58695351443E+03  0.00000000000E+00 0. -1.
         24    2    1    2    0    0  0.10647597583E+02 -0.38330739289E+02 -0.45854651883E+03  0.46683139347E+03  0.78000147981E+02 0.  0.
         23    2    1    2    0    0  0.72184424142E+01  0.60778847134E+01 -0.86786515302E+02  0.12708710388E+03  0.92359006815E+02 0.  0.
        -13    1    3    3    0    0  0.25690272739E+02 -0.41583534760E+02 -0.14717055389E+03  0.15507531205E+03  0.00000000000E+00 0.  1.
         14    1    3    3    0    0 -0.15042675157E+02  0.32527954713E+01 -0.31137596494E+03  0.31175608141E+03  0.00000000000E+00 0. -1.
        -11    1    4    4    0    0  0.35355316310E+02  0.33962924884E+02 -0.66393469570E+02  0.82532244969E+02  0.00000000000E+00 0.  1.
         11    1    4    4    0    0 -0.28136873896E+02 -0.27885040171E+02 -0.20393045731E+02  0.44554858906E+02  0.00000000000E+00 0. -1.
          3    1    1    2  501    0 -0.17866039997E+02  0.32252854576E+02  0.22859073865E+01  0.36941404765E+02  0.00000000000E+00 0. -1.
<scales pt_clust_5="13000.00000" pt_clust_6="13000.00000" pt_clust_7="13000.00000" pt_clust_8="13000.00000" pt_clust_9="36.87061"></scales>
<clustering>
<clus scale="   36.871">  1  9  2 -1</clus>
<clus scale="   78.000">  5  6 -1 -1</clus>
<clus scale="   84.969">  2  5  1 -1</clus>
<clus scale="   92.359">  7  8 -1 -1</clus>
<clus scale="   36.871">  1  5  2 -1</clus>
</clustering>
</event>
<event>
 9    2  0.5615294E-005  0.1319346E+03  0.7546771E-02  0.1227173E+00
         -3   -1    0    0    0  501 -0.00000000000E+00  0.00000000000E+00  0.61906919130E+02  0.61906919130E+02  0.00000000000E+00 0.  1.
         21   -1    0    0  501  502  0.00000000000E+00 -0.00000000000E+00 -0.63113880524E+03  0.63113880524E+03  0.00000000000E+00 0. -1.
         23    2    1    2    0    0 -0.11192507808E+03  0.23719211269E+02 -0.10168047326E+03  0.17834470224E+03  0.91531907479E+02 0.  0.
         24    2    1    2    0    0  0.44618595516E+02  0.23659732951E+02 -0.39009234485E+03  0.40167521018E+03  0.81365440689E+02 0.  0.
        -13    1    4    4    0    0  0.54005518561E+02  0.98555628703E+01 -0.13089600589E+03  0.14194186314E+03  0.00000000000E+00 0.  1.
         14    1    4    4    0    0 -0.93869230449E+01  0.13804170080E+02 -0.25919633896E+03  0.25973334704E+03  0.00000000000E+00 0. -1.
        -13    1    3    3    0    0 -0.88006477223E+02 -0.24900172103E+02 -0.73101606244E+02  0.11708545358E+03  0.00000000000E+00 0. -1.
         13    1    3    3    0    0 -0.23918600859E+02  0.48619383371E+02 -0.28578867021E+02  0.61259248662E+02  0.00000000000E+00 0.  1.
         -4    1    1    2    0  502  0.67306482566E+02 -0.47378944219E+02 -0.77459067994E+02  0.11302581194E+03  0.00000000000E+00 0.  1.
<scales pt_clust_5="13000.00000" pt_clust_6="13000.00000" pt_clust_7="13000.00000" pt_clust_8="13000.00000" pt_clust_9="82.30999"></scales>
<clustering>
<clus scale="   81.365">  5  6 -1 -1</clus>
<clus scale="   82.310">  2  9  1 -1</clus>
<clus scale="   91.532">  7  8 -1 -1</clus>
<clus scale="  125.096">  2  5  1 -1</clus>
<clus scale="   82.310">  2  5  1 -1</clus>
</clustering>
</event>
<event>
 9    2  0.5615294E-005  0.9304449E+02  0.7546771E-02  0.1302905E+00
          4   -1    0    0  502    0 -0.00000000000E+00  0.00000000000E+00  0.31969355635E+02  0.31969355635E+02  0.00000000000E+00 0. -1.
         21   -1    0    0  501  502  0.00000000000E+00 -0.00000000000E+00 -0.40619259447E+03  0.40619259447E+03  0.00000000000E+00 0. -1.
         24    2    1    2    0    0  0.17392442682E+02 -0.19385921901E+02 -0.13311830185E+03  0.15772040819E+03  0.80479400113E+02 0.  0.
         23    2    1    2    0    0  0.93585234657E+01 -0.53030007057E+01 -0.21891880897E+03  0.23781078581E+03  0.92264950825E+02 0.  0.
        -11    1    3    3    0    0 -0.53157861851E+01  0.25807196826E+02 -0.80644220746E+02  0.84839609443E+02  0.00000000000E+00 0.  1.
         12    1    3    3    0    0  0.22708228867E+02 -0.45193118727E+02 -0.52474081100E+02  0.72880798746E+02  0.00000000000E+00 0. -1.
        -13    1    4    4    0    0 -0.17986442628E+02  0.36081964372E+02 -0.69187093422E+02  0.80076676801E+02  0.00000000000E+00 0.  1.
         13    1    4    4    0    0  0.27344966094E+02 -0.41384965078E+02 -0.14973171554E+03  0.15773410901E+03  0.00000000000E+00 0. -1.
          3    1    1    2  501    0 -0.26750966148E+02  0.24688922606E+02 -0.22186128021E+02  0.42630756103E+02  0.00000000000E+00 0. -1.
<scales pt_clust_5="13000.00000" pt_clust_6="13000.00000" pt_clust_7="13000.00000" pt_clust_8="13000.00000" pt_clust_9="36.40273"></scales>
<clustering>
<clus scale="   36.403">  2  9  1 -1</clus>
<clus scale="   80.479">  5  6 -1 -1</clus>
<clus scale="   81.372">  1  5  2 -1</clus>
<clus scale="   92.265">  7  8 -1 -1</clus>
<clus scale="   36.403">  2  5  1 -1</clus>
</clustering>
</event>
<event>
 9    2  0.5615294E-005  0.1263726E+03  0.7546771E-02  0.1242003E+00
         21   -1    0    0  501  502  0.00000000000E+00  0.00000000000E+00  0.48286794487E+02  0.48286794487E+02  0.00000000000E+00 0.  1.
          2   -1    0    0  502    0 -0.00000000000E+00 -0.00000000000E+00 -0.17070053215E+04  0.17070053215E+04  0.00000000000E+00 0. -1.
         24    2    1    2    0    0  0.54352684977E+02  0.44191440763E+02 -0.15838149988E+04  0.15873642749E+04  0.79676175824E+02 0.  0.
         23    2    1    2    0    0 -0.19694362243E+02 -0.31495641462E+02 -0.48462946530E+02  0.12252423973E+03  0.10622470899E+03 0.  0.
        -13    1    3    3    0    0  0.49374271481E+01  0.19777824387E+02 -0.80556144987E+02  0.83095324895E+02  0.00000000000E+00 0.  1.
         14    1    3    3    0    0  0.49415257828E+02  0.24413616376E+02 -0.15032588539E+04  0.15042689500E+04  0.00000000000E+00 0. -1.
        -13    1    4    4    0    0 -0.40661525855E+02 -0.62719702110E+02 -0.35436052054E+02  0.82721427108E+02  0.00000000000E+00 0.  1.
         13    1    4    4    0    0  0.20967163612E+02  0.31224060648E+02 -0.13026894477E+02  0.39802812627E+02  0.00000000000E+00 0. -1.
          1    1    1    2  501    0 -0.34658322733E+02 -0.12695799300E+02 -0.26440581638E+02  0.45403601310E+02  0.00000000000E+00 0. -1.
<scales pt_clust_5="13000.00000" pt_clust_6="13000.00000" pt_clust_7="13000.00000" pt_clust_8="13000.00000" pt_clust_9="36.91047"></scales>
<clustering>
<clus scale="   36.910">  1  9  2 -1</clus>
<clus scale="   79.676">  5  6 -1 -1</clus>
<clus scale="  105.046">  2  5  1 -1</clus>
<clus scale="  106.225">  7  8 -1 -1</clus>
<clus scale="   36.910">  1  5  2 -1</clus>
</clustering>
</event>
<event>
 9    2  0.5615294E-005  0.9368700E+02  0.7546771E-02  0.1299498E+00
          2   -1    0    0  502    0 -0.00000000000E+00  0.00000000000E+00  0.30903701832E+03  0.30903701832E+03  0.00000000000E+00 0. -1.
         21   -1    0    0  501  502  0.00000000000E+00 -0.00000000000E+00 -0.88408592889E+02  0.88408592889E+02  0.00000000000E+00 0.  1.
         24    2    1    2    0    0  0.63766948703E+01 -0.30824521428E+02  0.12515156533E+03  0.15292694326E+03  0.82054386294E+02 0.  0.
         23    2    1    2    0    0 -0.29749130349E+02 -0.36419263072E+02 -0.24097675564E+02  0.10535665132E+03  0.91147970524E+02 0.  0.
        -11    1    3    3    0    0 -0.17522373457E+02  0.22981274158E+02  0.37652326218E+02  0.47464409857E+02  0.00000000000E+00 0.  1.
         12    1    3    3    0    0  0.23899068327E+02 -0.53805795586E+02  0.87499239114E+02  0.10546253340E+03  0.00000000000E+00 0. -1.
        -13    1    4    4    0    0 -0.14704610208E+02 -0.14353345481E+02 -0.58385060957E+02  0.61895552594E+02  0.00000000000E+00 0.  1.
         13    1    4    4    0    0 -0.15044520140E+02 -0.22065917592E+02  0.34287385393E+02  0.43461098727E+02  0.00000000000E+00 0. -1.
          1    1    1    2  501    0  0.23372435478E+02  0.67243784501E+02  0.11957453567E+03  0.13916201664E+03  0.00000000000E+00 0. -1.
<scales pt_clust_5="13000.00000" pt_clust_6="13000.00000" pt_clust_7="13000.00000" pt_clust_8="13000.00000" pt_clust_9="71.18990"></scales>
<clustering>
<clus scale="   71.190">  2  9  1 -1</clus>
<clus scale="   82.054">  5  6 -1 -1</clus>
<clus scale="   84.866">  1  5  2 -1</clus>
<clus scale="   91.148">  7  8 -1 -1</clus>
<clus scale="   71.190">  2  5  1 -1</clus>
</clustering>
</event>
<event>
 9    2  0.5615294E-005  0.1341423E+03  0.7546771E-02  0.1234943E+00
         21   -1    0    0  501  502  0.00000000000E+00  0.00000000000E+00  0.83196548753E+02  0.83196548753E+02  0.00000000000E+00 0.  1.
          2   -1    0    0  502    0 -0.00000000000E+00 -0.00000000000E+00 -0.41978154749E+03  0.41978154749E+03  0.00000000000E+00 0. -1.
         24    2    1    2    0    0  0.47289229323E+02  0.40049512510E+02 -0.31777291818E+03  0.33329191397E+03  0.79143147065E+02 0.  0.
         23    2    1    2    0    0 -0.71926252402E+02 -0.29907865272E+02 -0.20208765024E+02  0.14300685240E+03  0.11821463301E+03 0.  0.
        -11    1    3    3    0    0  0.31810508879E+02 -0.10882573668E+02 -0.49823071065E+02  0.60105551284E+02  0.00000000000E+00 0.  1.
         12    1    3    3    0    0  0.15478720443E+02  0.50932086178E+02 -0.26794984712E+03  0.27318636269E+03  0.00000000000E+00 0. -1.
        -11    1    4    4    0    0 -0.48088403459E+02 -0.65255977597E+02  0.20973729535E+02  0.83730128926E+02  0.00000000000E+00 0.  1.
         11    1    4    4    0    0 -0.23837848943E+02  0.35348112325E+02 -0.41182494560E+02  0.59276723470E+02  0.00000000000E+00 0. -1.
          1    1    1    2  501    0  0.24637023079E+02 -0.10141647238E+02  0.13966844723E+01  0.26679329872E+02  0.00000000000E+00 0. -1.
<scales pt_clust_5="13000.00000" pt_clust_6="13000.00000" pt_clust_7="13000.00000" pt_clust_8="13000.00000" pt_clust_9="26.64275"></scales>
<clustering>
<clus scale="   26.643">  1  9  2 -1</clus>
<clus scale="   79.143">  5  6 -1 -1</clus>
<clus scale="  101.406">  2  5  1 -1</clus>
<clus scale="  118.215">  7  8 -1 -1</clus>
<clus scale="   26.643">  1  5  2 -1</clus>
</clustering>
</event>
<event>
 9    2  0.5615294E-005  0.9748575E+02  0.7546771E-02  0.1293133E+00
         -3   -1    0    0    0  501 -0.00000000000E+00  0.00000000000E+00  0.72510840208E+02  0.72510840208E+02  0.00000000000E+00 0.  1.
         21   -1    0    0  501  502  0.00000000000E+00 -0.00000000000E+00 -0.19843531294E+03  0.19843531294E+03  0.00000000000E+00 0. -1.
         23    2    1    2    0    0 -0.30882334103E+02  0.65725345083E+01  0.89600170867E+01  0.97309495025E+02  0.91607527782E+02 0.  0.
         24    2    1    2    0    0  0.31832441477E+02 -0.27336183381E+02 -0.11122981693E+03  0.14214736839E+03  0.77930936819E+02 0.  0.
        -13    1    4    4    0    0  0.16189144711E+02  0.19926966144E+02 -0.69583315003E+01  0.26600578254E+02  0.00000000000E+00 0.  1.
         14    1    4    4    0    0  0.15643296766E+02 -0.47263149526E+02 -0.10427148543E+03  0.11554679013E+03  0.00000000000E+00 0. -1.
        -13    1    3    3    0    0 -0.41462633945E+02  0.40797460025E+02  0.16986973014E+02  0.60598184876E+02  0.00000000000E+00 0.  1.
         13    1    3    3    0    0  0.10580299842E+02 -0.34224925516E+02 -0.80269559270E+01  0.36711310148E+02  0.00000000000E+00 0. -1.
         -4    1    1    2    0  502 -0.95010737400E+00  0.20763648873E+02 -0.23654672894E+02  0.31489289739E+02  0.00000000000E+00 0.  1.
<scales pt_clust_5="13000.00000" pt_clust_6="13000.00000" pt_clust_7="13000.00000" pt_clust_8="13000.00000" pt_clust_9="20.78538"></scales>
<clustering>
<clus scale="   20.785">  2  9  1 -1</clus>
<clus scale="   77.931">  5  6 -1 -1</clus>
<clus scale="   84.763">  2  5  1 -1</clus>
<clus scale="   91.608">  7  8 -1 -1</clus>
<clus scale="   20.785">  2  5  1 -1</clus>
</clustering>
</event>
<event>
 9    2  0.5615294E-005  0.1148278E+03  0.7546771E-02  0.1258089E+00
         21   -1    0    0  501  502  0.00000000000E+00  0.00000000000E+00  0.25239123389E+03  0.25239123389E+03  0.00000000000E+00 0. -1.
          2   -1    0    0  502    0 -0.00000000000E+00 -0.00000000000E+00 -0.71986994963E+02  0.71986994963E+02  0.00000000000E+00 0. -1.
         23    2    1    2    0    0  0.46813629134E+02 -0.31715926673E+02  0.16006815936E+02  0.11286865679E+03  0.96362335239E+02 0.  0.
         24    2    1    2    0    0 -0.62426696264E+02  0.45906103168E+02  0.14485758523E+03  0.18275310785E+03  0.80065696239E+02 0.  0.
        -13    1    4    4    0    0  0.23565839065E+01  0.43232218167E+02  0.80456500660E+02  0.91366441727E+02  0.00000000000E+00 0.  1.
         14    1    4    4    0    0 -0.64783280170E+02  0.26738850003E+01  0.64401084573E+02  0.91386666121E+02  0.00000000000E+00 0. -1.
        -13    1    3    3    0    0  0.76757259167E+02 -0.26659791081E+02  0.13823605313E+02  0.82422772091E+02  0.00000000000E+00 0. -1.
         13    1    3    3    0    0 -0.29943630034E+02 -0.50561355924E+01  0.21832106227E+01  0.30445884703E+02  0.00000000000E+00 0.  1.
          1    1    1    2  501    0  0.15613067130E+02 -0.14190176494E+02  0.19539837754E+02  0.28756464205E+02  0.00000000000E+00 0. -1.
<scales pt_clust_5="13000.00000" pt_clust_6="13000.00000" pt_clust_7="13000.00000" pt_clust_8="13000.00000" pt_clust_9="21.09808"></scales>
<clustering>
<clus scale="   21.098">  1  9  2 -1</clus>
<clus scale="   80.066">  5  6 -1 -1</clus>
<clus scale="   96.362">  7  8 -1 -1</clus>
<clus scale="  101.539">  1  5  2 -1</clus>
<clus scale="   21.098">  1  5  2 -1</clus>
</clustering>
</event>
<event>
 9    2  0.5615294E-005  0.1090601E+03  0.7546771E-02  0.1267387E+00
          2   -1    0    0  502    0 -0.00000000000E+00  0.00000000000E+00  0.52574143907E+03  0.52574143907E+03  0.00000000000E+00 0. -1.
         21   -1    0    0  501  502  0.00000000000E+00 -0.00000000000E+00 -0.42424814922E+02  0.42424814922E+02  0.00000000000E+00 0.  1.
         24    2    1    2    0    0 -0.80322990835E+01  0.48985990963E+02  0.32078503825E+03  0.33439567190E+03  0.80332306562E+02 0.  0.
         23    2    1    2    0    0  0.16085591244E+02 -0.80789510453E+02  0.15771273362E+03  0.20061125906E+03  0.92660021976E+02 0.  0.
        -11    1    3    3    0    0  0.14468478640E+02  0.63432001715E+02  0.18784194404E+03  0.19879022022E+03  0.00000000000E+00 0.  1.
         12    1    3    3    0    0 -0.22500777723E+02 -0.14446010753E+02  0.13294309421E+03  0.13560545167E+03  0.00000000000E+00 0. -1.
        -11    1    4    4    0    0  0.18774922380E+02  0.15249642283E+02  0.54365899361E+02  0.59503784026E+02  0.00000000000E+00 0.  1.
         11    1    4    4    0    0 -0.26893311360E+01 -0.96039152736E+02  0.10334683426E+03  0.14110747504E+03  0.00000000000E+00 0. -1.
          1    1    1    2  501    0 -0.80532921604E+01  0.31803519490E+02  0.48188522741E+01  0.33159323030E+02  0.00000000000E+00 0. -1.
<scales pt_clust_5="13000.00000" pt_clust_6="13000.00000" pt_clust_7="13000.00000" pt_clust_8="13000.00000" pt_clust_9="32.80731"></scales>
<clustering>
<clus scale="   32.807">  2  9  1 -1</clus>
<clus scale="   80.332">  5  6 -1 -1</clus>
<clus scale="   92.660">  7  8 -1 -1</clus>
<clus scale="   98.800">  1  5  2 -1</clus>
<clus scale="   32.807">  2  5  1 -1</clus>
</clustering>
</event>
<event>
 9    2  0.5615294E-005  0.9426425E+02  0.7546771E-02  0.1298710E+00
          2   -1    0    0  502    0 -0.00000000000E+00  0.00000000000E+00  0.25619974417E+03  0.25619974417E+03  0.00000000000E+00 0. -1.
         21   -1    0    0  501  502  0.00000000000E+00 -0.00000000000E+00 -0.67217135318E+02  0.67217135318E+02  0.00000000000E+00 0. -1.
         24    2    1    2    0    0 -0.36908996894E+02  0.15647510387E+02  0.10046466917E+03  0.13504736581E+03  0.80854948073E+02 0.  0.
         23    2    1    2    0    0  0.72908281297E+01  0.34246121941E+02  0.86477590855E+02  0.13031115088E+03  0.90976201726E+02 0.  0.
        -13    1    3    3    0    0 -0.37478292412E+02 -0.27883322766E+02  0.51884731748E+02  0.69814951688E+02  0.00000000000E+00 0.  1.
         14    1    3    3    0    0  0.56929551786E+00  0.43530833153E+02  0.48579937418E+02  0.65232414120E+02  0.00000000000E+00 0. -1.
        -13    1    4    4    0    0  0.33398570591E+02  0.33987654258E+02  0.89225846564E+01  0.48479249957E+02  0.00000000000E+00 0.  1.
         13    1    4    4    0    0 -0.26107742461E+02  0.25846768273E+00  0.77555006199E+02  0.81831900921E+02  0.00000000000E+00 0. -1.
          1    1    1    2  501    0  0.29618168764E+02 -0.49893632328E+02  0.20403488305E+01  0.58058362801E+02  0.00000000000E+00 0. -1.
<scales pt_clust_5="13000.00000" pt_clust_6="13000.00000" pt_clust_7="13000.00000" pt_clust_8="13000.00000" pt_clust_9="58.02250"></scales>
<clustering>
<clus scale="   58.022">  2  9  1 -1</clus>
<clus scale="   80.855">  5  6 -1 -1</clus>
<clus scale="   84.538">  1  5  2 -1</clus>
<clus scale="   90.976">  7  8 -1 -1</clus>
<clus scale="   58.022">  2  5  1 -1</clus>
</clustering>
</event>
<event>
 9    2  0.5615294E-005  0.1062234E+03  0.7546771E-02  0.1272118E+00
          2   -1    0    0  502    0 -0.00000000000E+00  0.00000000000E+00  0.30787631712E+03  0.30787631712E+03  0.00000000000E+00 0. -1.
         21   -1    0    0  501  502  0.00000000000E+00 -0.00000000000E+00 -0.27909483418E+03  0.27909483418E+03  0.00000000000E+00 0. -1.
         24    2    1    2    0    0 -0.54484363027E+02 -0.16853820172E+02  0.26736547451E+03  0.28531837808E+03  0.81668126204E+02 0.  0.
         23    2    1    2    0    0 -0.16624060885E+02  0.47421969070E+02 -0.11217183955E+03  0.15342709443E+03  0.91826734486E+02 0.  0.
        -13    1    3    3    0    0 -0.34929185406E+02  0.19705975691E+02  0.50311003693E+02  0.64339494587E+02  0.00000000000E+00 0.  1.
         14    1    3    3    0    0 -0.19555177620E+02 -0.36559795864E+02  0.21705447082E+03  0.22097888349E+03  0.00000000000E+00 0. -1.
        -11    1    4    4    0    0  0.27791641785E+02  0.15686989581E+02 -0.88221026876E+02  0.93815811985E+02  0.00000000000E+00 0.  1.
         11    1    4    4    0    0 -0.44415702670E+02  0.31734979490E+02 -0.23950812671E+02  0.59611282443E+02  0.00000000000E+00 0. -1.
          1    1    1    2  501    0  0.71108423912E+02 -0.30568148898E+02 -0.12641215202E+03  0.14822567881E+03  0.00000000000E+00 0. -1.
<scales pt_clust_5="13000.00000" pt_clust_6="13000.00000" pt_clust_7="13000.00000" pt_clust_8="13000.00000" pt_clust_9="77.40039"></scales>
<clustering>
<clus scale="   77.400">  2  9  1 -1</clus>
<clus scale="   81.668">  5  6 -1 -1</clus>
<clus scale="   91.827">  7  8 -1 -1</clus>
<clus scale="   97.575">  1  5  2 -1</clus>
<clus scale="   77.400">  2  5  1 -1</clus>
</clustering>
</event>
<event>
 9    2  0.9112423E-005  0.5951276E+03  0.7546771E-02  0.9915567E-01
         21   -1    0    0  501  502  0.00000000000E+00  0.00000000000E+00  0.33907819340E+03  0.33907819340E+03  0.00000000000E+00 0. -1.
          2   -1    0    0  502    0 -0.00000000000E+00 -0.00000000000E+00 -0.12091582740E+04  0.12091582740E+04  0.00000000000E+00 0. -1.
         24    2    1    2    0    0  0.11449651887E+03 -0.21186648192E+02 -0.10898060479E+03  0.17870582989E+03  0.80626760583E+02 0.  0.
         23    2    1    2    0    0  0.38992159316E+03  0.17477181577E+03 -0.71846141739E+03  0.84052776468E+03  0.87841211956E+02 0.  0.
        -11    1    3    3    0    0  0.85261676455E+02 -0.49680409854E+02 -0.90495000737E+02  0.13389190324E+03  0.00000000000E+00 0.  1.
         12    1    3    3    0    0  0.29234842416E+02  0.28493761662E+02 -0.18485604056E+02  0.44813926653E+02  0.00000000000E+00 0. -1.
        -11    1    4    4    0    0  0.49563051741E+02  0.15399678559E+02 -0.42359933747E+02  0.66992612911E+02  0.00000000000E+00 0.  1.
         11    1    4    4    0    0  0.34035854142E+03  0.15937213722E+03 -0.67610148364E+03  0.77353515177E+03  0.00000000000E+00 0. -1.
          1    1    1    2  501    0 -0.50441811203E+03 -0.15358516758E+03 -0.42638058434E+02  0.52900287284E+03  0.00000000000E+00 0. -1.
<scales pt_clust_5="13000.00000" pt_clust_6="13000.00000" pt_clust_7="13000.00000" pt_clust_8="13000.00000" pt_clust_9="527.28174"></scales>
<clustering>
<clus scale="   80.627">  5  6 -1 -1</clus>
<clus scale="   87.841">  7  8 -1 -1</clus>
<clus scale="  129.995">  5  7 -1 -1</clus>
<clus scale="  527.282">  1  9  2 -1</clus>
<clus scale="  527.282">  1  5  2 -1</clus>
</clustering>
</event>
<event>
 9    2  0.5615294E-005  0.9273125E+02  0.7546771E-02  0.1303375E+00
         -3   -1    0    0    0  501 -0.00000000000E+00  0.00000000000E+00  0.14426966679E+03  0.14426966679E+03  0.00000000000E+00 0.  1.
         21   -1    0    0  501  502  0.00000000000E+00 -0.00000000000E+00 -0.14610370805E+03  0.14610370805E+03  0.00000000000E+00 0.  1.
         23    2    1    2    0    0 -0.15140184796E+02 -0.26041125084E+02  0.48351866968E+02  0.10769132577E+03  0.91390115525E+02 0.  0.
         24    2    1    2    0    0  0.11203063610E+02 -0.46758654483E+02 -0.57192952442E+02  0.10943993348E+03  0.79963646909E+02 0.  0.
        -11    1    4    4    0    0 -0.29446467155E+02 -0.43185588265E+02 -0.35916957354E+02  0.63420164674E+02  0.00000000000E+00 0.  1.
         12    1    4    4    0    0  0.40649530766E+02 -0.35730662188E+01 -0.21275995088E+02  0.46019768803E+02  0.00000000000E+00 0. -1.
        -11    1    3    3    0    0  0.60530497023E+01  0.23520519963E+02 -0.11732066933E+02  0.26972127550E+02  0.00000000000E+00 0. -1.
         11    1    3    3    0    0 -0.21193234498E+02 -0.49561645047E+02  0.60083933902E+02  0.80719198221E+02  0.00000000000E+00 0.  1.
         -4    1    1    2    0  502  0.39371211855E+01  0.72799779567E+02  0.70070442124E+01  0.73242115595E+02  0.00000000000E+00 0.  1.
<scales pt_clust_5="13000.00000" pt_clust_6="13000.00000" pt_clust_7="13000.00000" pt_clust_8="13000.00000" pt_clust_9="72.90620"></scales>
<clustering>
<clus scale="   72.906">  2  9  1 -1</clus>
<clus scale="   79.964">  5  6 -1 -1</clus>
<clus scale="   81.493">  2  5  1 -1</clus>
<clus scale="   91.390">  7  8 -1 -1</clus>
<clus scale="   72.906">  2  5  1 -1</clus>
</clustering>
</event>
<event>
 9    2  0.5615294E-005  0.9163150E+02  0.7546771E-02  0.1306489E+00
         21   -1    0    0  501  502  0.00000000000E+00  0.00000000000E+00  0.47976589559E+02  0.47976589559E+02  0.00000000000E+00 0. -1.
          2   -1    0    0  502    0 -0.00000000000E+00 -0.00000000000E+00 -0.32286677916E+03  0.32286677916E+03  0.00000000000E+00 0. -1.
         23    2    1    2    0    0 -0.64874820581E+01 -0.29686628036E+02 -0.79577815100E+02  0.12496064215E+03  0.91428387944E+02 0.  0.
         24    2    1    2    0    0 -0.88203527804E+01 -0.16224893938E+02 -0.57662728698E+02  0.99973087935E+02  0.79552386664E+02 0.  0.
        -11    1    4    4    0    0  0.24093379726E+02  0.16884983480E+02 -0.54312798262E+01  0.29918095098E+02  0.00000000000E+00 0.  1.
         12    1    4    4    0    0 -0.32913732507E+02 -0.33109877418E+02 -0.52231448872E+02  0.70054992837E+02  0.00000000000E+00 0. -1.
        -13    1    3    3    0    0 -0.43897165100E+02  0.64022372415E+01 -0.37252367221E+02  0.57928305767E+02  0.00000000000E+00 0.  1.
         13    1    3    3    0    0  0.37409683042E+02 -0.36088865278E+02 -0.42325447879E+02  0.67032336380E+02  0.00000000000E+00 0. -1.
          1    1    1    2  501    0  0.15307834838E+02  0.45911521974E+02 -0.13764964580E+03  0.14590963864E+03  0.00000000000E+00 0. -1.
<scales pt_clust_5="13000.00000" pt_clust_6="13000.00000" pt_clust_7="13000.00000" pt_clust_8="13000.00000" pt_clust_9="48.39628"></scales>
<clustering>
<clus scale="   48.396">  1  9  2 -1</clus>
<clus scale="   79.552">  5  6 -1 -1</clus>
<clus scale="   79.786">  1  5  2 -1</clus>
<clus scale="   91.428">  7  8 -1 -1</clus>
<clus scale="   48.396">  1  5  2 -1</clus>
</clustering>
</event>
<event>
 9    2  0.5615294E-005  0.2536231E+03  0.7546771E-02  0.1132145E+00
         -1   -1    0    0    0  501 -0.00000000000E+00  0.00000000000E+00  0.65526174674E+03  0.65526174674E+03  0.00000000000E+00 0.  1.
         21   -1    0    0  501  502  0.00000000000E+00 -0.00000000000E+00 -0.59870524863E+03  0.59870524863E+03  0.00000000000E+00 0.  1.
         24    2    1    2    0    0 -0.89055306678E+02  0.90905189488E+02 -0.15619754633E+02  0.15062851610E+03  0.79059294233E+02 0.  0.
         23    2    1    2    0    0  0.13206869004E+03  0.14524485862E+03  0.53761953602E+03  0.57964539518E+03  0.91737728277E+02 0.  0.
        -13    1    3    3    0    0 -0.77002652893E+02  0.79465447421E+02 -0.42905927970E+02  0.11868059884E+03  0.00000000000E+00 0.  1.
         14    1    3    3    0    0 -0.12052653785E+02  0.11439742067E+02  0.27286173337E+02  0.31947917259E+02  0.00000000000E+00 0. -1.
        -11    1    4    4    0    0  0.91274143692E+02  0.14993138767E+03  0.44234463000E+03  0.47589826855E+03  0.00000000000E+00 0.  1.
         11    1    4    4    0    0  0.40794546351E+02 -0.46865290448E+01  0.95274906022E+02  0.10374712663E+03  0.00000000000E+00 0. -1.
         -2    1    1    2    0  502 -0.43013383365E+02 -0.23615004811E+03 -0.46544328328E+03  0.52369308409E+03  0.00000000000E+00 0.  1.
<scales pt_clust_5="13000.00000" pt_clust_6="13000.00000" pt_clust_7="13000.00000" pt_clust_8="13000.00000" pt_clust_9="236.45057"></scales>
<clustering>
<clus scale="   79.059">  5  6 -1 -1</clus>
<clus scale="   91.738">  7  8 -1 -1</clus>
<clus scale="  149.817">  1  5  2 -1</clus>
<clus scale="  236.451">  2  9  1 -1</clus>
<clus scale="  236.451">  2  5  1 -1</clus>
</clustering>
</event>
<event>
 9    2  0.5615294E-005  0.1067805E+03  0.7546771E-02  0.1270116E+00
         21   -1    0    0  501  502  0.00000000000E+00  0.00000000000E+00  0.29575656623E+03  0.29575656623E+03  0.00000000000E+00 0.  1.
          2   -1    0    0  502    0 -0.00000000000E+00 -0.00000000000E+00 -0.39347552578E+03  0.39347552578E+03  0.00000000000E+00 0. -1.
         24    2    1    2    0    0 -0.38007645917E+02 -0.33793939955E+02 -0.36448795021E+03  0.37796854183E+03  0.86151849869E+02 0.  0.
         23    2    1    2    0    0  0.11783761024E+02  0.49725395661E+02  0.11793145327E+03  0.15929606696E+03  0.94105989622E+02 0.  0.
        -13    1    3    3    0    0 -0.12323394272E+02 -0.26183444508E+02 -0.27511337299E+02  0.39928842867E+02  0.00000000000E+00 0.  1.
         14    1    3    3    0    0 -0.25684251645E+02 -0.76104954469E+01 -0.33697661291E+03  0.33803969896E+03  0.00000000000E+00 0. -1.
        -11    1    4    4    0    0  0.37092210313E+02  0.66903099319E+02  0.83915241998E+02  0.11355009733E+03  0.00000000000E+00 0.  1.
         11    1    4    4    0    0 -0.25308449289E+02 -0.17177703659E+02  0.34016211270E+02  0.45745969632E+02  0.00000000000E+00 0. -1.
          1    1    1    2  501    0  0.26223884892E+02 -0.15931455706E+02  0.14883753739E+03  0.15196748322E+03  0.00000000000E+00 0. -1.
<scales pt_clust_5="13000.00000" pt_clust_6="13000.00000" pt_clust_7="13000.00000" pt_clust_8="13000.00000" pt_clust_9="30.68393"></scales>
<clustering>
<clus scale="   30.684">  1  9  2 -1</clus>
<clus scale="   86.152">  5  6 -1 -1</clus>
<clus scale="   94.106">  7  8 -1 -1</clus>
<clus scale="   99.841">  2  5  1 -1</clus>
<clus scale="   30.684">  1  5  2 -1</clus>
</clustering>
</event>
<event>
 9    2  0.5615294E-005  0.1894145E+03  0.7546771E-02  0.1159797E+00
         21   -1    0    0  501  502  0.00000000000E+00  0.00000000000E+00  0.13984620024E+03  0.13984620024E+03  0.00000000000E+00 0. -1.
          2   -1    0    0  502    0 -0.00000000000E+00 -0.00000000000E+00 -0.51255487119E+03  0.51255487119E+03  0.00000000000E+00 0. -1.
         23    2    1    2    0    0 -0.17868625919E+03  0.14238140736E+02 -0.37869452630E+03  0.42798191629E+03  0.87335402630E+02 0.  0.
         24    2    1    2    0    0  0.12156564637E+03 -0.41500699282E+02  0.34653911851E+02  0.15493628696E+03  0.79396756809E+02 0.  0.
        -11    1    4    4    0    0  0.17821211098E+02 -0.41600121695E+02 -0.90872090596E+00  0.45265786900E+02  0.00000000000E+00 0.  1.
         12    1    4    4    0    0  0.10374443527E+03  0.99422412537E-01  0.35562632757E+02  0.10967050006E+03  0.00000000000E+00 0. -1.
        -13    1    3    3    0    0 -0.31006191262E+02  0.24423173905E+02 -0.31337927531E+02  0.50397827554E+02  0.00000000000E+00 0.  1.
         13    1    3    3    0    0 -0.14768006792E+03 -0.10185033168E+02 -0.34735659877E+03  0.37758408874E+03  0.00000000000E+00 0. -1.
          1    1    1    2  501    0  0.57120612819E+02  0.27262558546E+02 -0.28668056508E+02  0.69482868185E+02  0.00000000000E+00 0. -1.
<scales pt_clust_5="13000.00000" pt_clust_6="13000.00000" pt_clust_7="13000.00000" pt_clust_8="13000.00000" pt_clust_9="63.29306"></scales>
<clustering>
<clus scale="   63.293">  1  9  2 -1</clus>
<clus scale="   79.397">  5  6 -1 -1</clus>
<clus scale="   87.335">  7  8 -1 -1</clus>
<clus scale="  185.888">  1  5  2 -1</clus>
<clus scale="   63.293">  1  5  2 -1</clus>
</clustering>
</event>
<event>
 9    2  0.5615294E-005  0.1093896E+03  0.7546771E-02  0.1267775E+00
          2   -1    0    0  502    0 -0.00000000000E+00  0.00000000000E+00  0.45081738583E+03  0.45081738583E+03  0.00000000000E+00 0. -1.
         21   -1    0    0  501  502  0.00000000000E+00 -0.00000000000E+00 -0.41705012003E+02  0.41705012003E+02  0.00000000000E+00 0. -1.
         23    2    1    2    0    0  0.50333965166E+02  0.60664521436E+01  0.18935399918E+03  0.21588361983E+03  0.90446063565E+02 0.  0.
         24    2    1    2    0    0 -0.65421039084E+02 -0.55915676346E+02  0.13217425538E+03  0.17473910724E+03  0.75214670108E+02 0.  0.
        -13    1    4    4    0    0 -0.21874538183E+02  0.58302923373E+01  0.79431062027E+02  0.82594075721E+02  0.00000000000E+00 0.  1.
         14    1    4    4    0    0 -0.43546500902E+02 -0.61745968684E+02  0.52743193351E+02  0.92145031523E+02  0.00000000000E+00 0. -1.
        -11    1    3    3    0    0  0.59274911036E+02  0.28575324339E+02  0.78582278534E+02  0.10249506690E+03  0.00000000000E+00 0. -1.
         11    1    3    3    0    0 -0.89409458699E+01 -0.22508872195E+02  0.11077172064E+03  0.11338855293E+03  0.00000000000E+00 0.  1.
          1    1    1    2  501    0  0.15087073919E+02  0.49849224203E+02  0.87584119274E+02  0.10189967076E+03  0.00000000000E+00 0. -1.
<scales pt_clust_5="13000.00000" pt_clust_6="13000.00000" pt_clust_7="13000.00000" pt_clust_8="13000.00000" pt_clust_9="52.08232"></scales>
<clustering>
<clus scale="   52.082">  2  9  1 -1</clus>
<clus scale="   75.215">  5  6 -1 -1</clus>
<clus scale="   90.446">  7  8 -1 -1</clus>
<clus scale="   97.174">  2  5  1 -1</clus>
<clus scale="   52.082">  2  5  1 -1</clus>
</clustering>
</event>
<event>
 9    2  0.5615294E-005  0.1025992E+03  0.7546771E-02  0.1278035E+00
          2   -1    0    0  502    0 -0.00000000000E+00  0.00000000000E+00  0.70994015188E+03  0.70994015188E+03  0.00000000000E+00 0. -1.
         21   -1    0    0  501  502  0.00000000000E+00 -0.00000000000E+00 -0.27676895463E+02  0.27676895463E+02  0.00000000000E+00 0. -1.
         24    2    1    2    0    0 -0.52677657372E+02 -0.21504711742E+01  0.54612979887E+03  0.55507568446E+03  0.84093389436E+02 0.  0.
         23    2    1    2    0    0  0.28960149674E+02  0.39451251626E+01  0.12192974605E+03  0.15483781845E+03  0.90849506149E+02 0.  0.
        -11    1    3    3    0    0 -0.44263994014E+02 -0.14421658391E+01  0.10619419700E+03  0.11505906520E+03  0.00000000000E+00 0.  1.
         12    1    3    3    0    0 -0.84136633580E+01 -0.70830533511E+00  0.43993560187E+03  0.44001661925E+03  0.00000000000E+00 0. -1.
        -11    1    4    4    0    0  0.14997476343E+02  0.34946664549E+02  0.12164329410E+02  0.39926990492E+02  0.00000000000E+00 0. -1.
         11    1    4    4    0    0  0.13962673330E+02 -0.31001539386E+02  0.10976541664E+03  0.11491082796E+03  0.00000000000E+00 0.  1.
          1    1    1    2  501    0  0.23717507698E+02 -0.17946539884E+01  0.14203711494E+02  0.27703544440E+02  0.00000000000E+00 0. -1.
<scales pt_clust_5="13000.00000" pt_clust_6="13000.00000" pt_clust_7="13000.00000" pt_clust_8="13000.00000" pt_clust_9="23.78531"></scales>
<clustering>
<clus scale="   23.785">  2  9  1 -1</clus>
<clus scale="   84.093">  5  6 -1 -1</clus>
<clus scale="   90.850">  7  8 -1 -1</clus>
<clus scale="   96.668">  1  5  2 -1</clus>
<clus scale="   23.785">  2  5  1 -1</clus>
</clustering>
</event>
<event>
 9    2  0.5615294E-005  0.9483431E+02  0.7546771E-02  0.1296358E+00
         -3   -1    0    0    0  501 -0.00000000000E+00  0.00000000000E+00  0.19223498521E+02  0.19223498521E+02  0.00000000000E+00 0.  1.
         21   -1    0    0  501  502  0.00000000000E+00 -0.00000000000E+00 -0.68039658077E+03  0.68039658077E+03  0.00000000000E+00 0. -1.
         23    2    1    2    0    0  0.19284455555E+02 -0.17387832204E+02 -0.21599064743E+03  0.23613655791E+03  0.91838375797E+02 0.  0.
         24    2    1    2    0    0 -0.26290072288E+02 -0.57047575697E+01 -0.41818231987E+03  0.42727091894E+03  0.83428252784E+02 0.  0.
        -11    1    4    4    0    0  0.12832072599E+02 -0.35890088641E+02 -0.17065956508E+03  0.17486408351E+03  0.00000000000E+00 0.  1.
         12    1    4    4    0    0 -0.39122144887E+02  0.30185331071E+02 -0.24752275479E+03  0.25240683543E+03  0.00000000000E+00 0. -1.
        -11    1    3    3    0    0  0.51309123618E+02 -0.17620265360E+02 -0.81638071384E+02  0.98019766461E+02  0.00000000000E+00 0. -1.
         11    1    3    3    0    0 -0.32024668063E+02  0.23243315597E+00 -0.13435257604E+03  0.13811679145E+03  0.00000000000E+00 0.  1.
         -4    1    1    2    0  502  0.70056167323E+01  0.23092589773E+02 -0.27000114951E+02  0.36212602442E+02  0.00000000000E+00 0.  1.
<scales pt_clust_5="13000.00000" pt_clust_6="13000.00000" pt_clust_7="13000.00000" pt_clust_8="13000.00000" pt_clust_9="24.13187"></scales>
<clustering>
<clus scale="   24.132">  2  9  1 -1</clus>
<clus scale="   83.428">  5  6 -1 -1</clus>
<clus scale="   86.715">  2  5  1 -1</clus>
<clus scale="   91.838">  7  8 -1 -1</clus>
<clus scale="   24.132">  2  5  1 -1</clus>
</clustering>
</event>
<event>
 9    2  0.5615294E-005  0.1231956E+03  0.7546771E-02  0.1239610E+00
         21   -1    0    0  501  502  0.00000000000E+00  0.00000000000E+00  0.41626568405E+02  0.41626568405E+02  0.00000000000E+00 0.  1.
          4   -1    0    0  502    0 -0.00000000000E+00 -0.00000000000E+00 -0.61018810536E+03  0.61018810536E+03  0.00000000000E+00 0. -1.
         24    2    1    2    0    0 -0.41295583248E+02  0.61860160109E+02 -0.29491713116E+03  0.31508198708E+03  0.82271135434E+02 0.  0.
         23    2    1    2    0    0  0.67608191300E+02 -0.95995184581E+02 -0.17097833263E+03  0.22538693770E+03  0.88202825707E+02 0.  0.
        -11    1    3    3    0    0 -0.10906178347E+02  0.58767677967E+02 -0.90898939952E+02  0.10878971451E+03  0.00000000000E+00 0.  1.
         12    1    3    3    0    0 -0.30389404901E+02  0.30924821418E+01 -0.20401819121E+03  0.20629227257E+03  0.00000000000E+00 0. -1.
        -13    1    4    4    0    0 -0.21065475552E+02 -0.26946872621E+02 -0.45759610099E+02  0.57129940668E+02  0.00000000000E+00 0.  1.
         13    1    4    4    0    0  0.88673666852E+02 -0.69048311960E+02 -0.12521872253E+03  0.16825699703E+03  0.00000000000E+00 0. -1.
          3    1    1    2  501    0 -0.26312608052E+02  0.34135024473E+02 -0.10266607317E+03  0.11134574899E+03  0.00000000000E+00 0. -1.
<scales pt_clust_5="13000.00000" pt_clust_6="13000.00000" pt_clust_7="13000.00000" pt_clust_8="13000.00000" pt_clust_9="43.09936"></scales>
<clustering>
<clus scale="   43.099">  1  9  2 -1</clus>
<clus scale="   82.271">  5  6 -1 -1</clus>
<clus scale="   88.203">  7  8 -1 -1</clus>
<clus scale="  119.021">  2  5  1 -1</clus>
<clus scale="   43.099">  1  5  2 -1</clus>
</clustering>
</event>
<event>
 9    2  0.5615294E-005  0.4444520E+03  0.7546771E-02  0.1046117E+00
         -1   -1    0    0    0  501 -0.00000000000E+00  0.00000000000E+00  0.10180829809E+04  0.10180829809E+04  0.00000000000E+00 0.  1.
         21   -1    0    0  501  502  0.00000000000E+00 -0.00000000000E+00 -0.38707277546E+03  0.38707277546E+03  0.00000000000E+00 0.  1.
         23    2    1    2    0    0 -0.19300619363E+03  0.17189078472E+03  0.11061707297E+03  0.29418572598E+03  0.86667594197E+02 0.  0.
         24    2    1    2    0    0 -0.27356863327E+03  0.43524273621E+02  0.52265261203E+03  0.59706262465E+03  0.81141021662E+02 0.  0.
        -11    1    4    4    0    0 -0.16823781371E+03  0.66363874983E+02  0.33053380429E+03  0.37677675305E+03  0.00000000000E+00 0.  1.
         12    1    4    4    0    0 -0.10533081956E+03 -0.22839601362E+02  0.19211880774E+03  0.22028587160E+03  0.00000000000E+00 0. -1.
        -13    1    3    3    0    0 -0.15671672864E+03  0.85544108455E+02  0.65026646675E+02  0.19001682111E+03  0.00000000000E+00 0.  1.
         13    1    3    3    0    0 -0.36289464995E+02  0.86346676266E+02  0.45590426296E+02  0.10416890487E+03  0.00000000000E+00 0. -1.
         -2    1    1    2    0  502  0.46657482690E+03 -0.21541505834E+03 -0.22594795171E+01  0.51390740577E+03  0.00000000000E+00 0.  1.
<scales pt_clust_5="13000.00000" pt_clust_6="13000.00000" pt_clust_7="13000.00000" pt_clust_8="13000.00000" pt_clust_9="436.98254"></scales>
<clustering>
<clus scale="   81.141">  5  6 -1 -1</clus>
<clus scale="   86.668">  7  8 -1 -1</clus>
<clus scale="  272.597">  1  7  2 -1</clus>
<clus scale="  436.983">  2  9  1 -1</clus>
<clus scale="  436.983">  2  5  1 -1</clus>
</clustering>
</event>
<event>
 9    2  0.5615294E-005  0.9235747E+02  0.7546771E-02  0.1300493E+00
         21   -1    0    0  501  502  0.00000000000E+00  0.00000000000E+00  0.10784232992E+03  0.10784232992E+03  0.00000000000E+00 0. -1.
          2   -1    0    0  502    0 -0.00000000000E+00 -0.00000000000E+00 -0.42760411439E+03  0.42760411439E+03  0.00000000000E+00 0. -1.
         24    2    1    2    0    0  0.45769319804E+01  0.15253911525E+02 -0.36981905023E+03  0.37981617272E+03  0.85091509689E+02 0.  0.
         23    2    1    2    0    0 -0.19701407118E+02 -0.49751251034E+02  0.53078275542E+02  0.11784214275E+03  0.90587719104E+02 0.  0.
        -13    1    3    3    0    0  0.16768945865E+02 -0.31932916058E+02 -0.19613788616E+03  0.19942662575E+03  0.00000000000E+00 0.  1.
         14    1    3    3    0    0 -0.12192013885E+02  0.47186827583E+02 -0.17368116408E+03  0.18038954697E+03  0.00000000000E+00 0. -1.
        -11    1    4    4    0    0  0.26514725801E+02 -0.16405814576E+02 -0.10083769362E+02  0.32769861775E+02  0.00000000000E+00 0.  1.
         11    1    4    4    0    0 -0.46216132919E+02 -0.33345436458E+02  0.63162044904E+02  0.85072280979E+02  0.00000000000E+00 0. -1.
          1    1    1    2  501    0  0.15124475138E+02  0.34497339509E+02 -0.30210097791E+01  0.37788128844E+02  0.00000000000E+00 0. -1.
<scales pt_clust_5="13000.00000" pt_clust_6="13000.00000" pt_clust_7="13000.00000" pt_clust_8="13000.00000" pt_clust_9="37.66718"></scales>
<clustering>
<clus scale="   37.667">  1  9  2 -1</clus>
<clus scale="   85.092">  5  6 -1 -1</clus>
<clus scale="   86.973">  2  5  1 -1</clus>
<clus scale="   90.588">  7  8 -1 -1</clus>
<clus scale="   37.667">  1  5  2 -1</clus>
</clustering>
</event>
<event>
 9    2  0.5615294E-005  0.1693639E+03  0.7546771E-02  0.1180283E+00
         21   -1    0    0  501  502  0.00000000000E+00  0.00000000000E+00  0.58897601088E+03  0.58897601088E+03  0.00000000000E+00 0. -1.
          2   -1    0    0  502    0 -0.00000000000E+00 -0.00000000000E+00 -0.68144039187E+02  0.68144039187E+02  0.00000000000E+00 0. -1.
         24    2    1    2    0    0  0.13022356663E+03  0.21374536211E+02  0.11778883356E+03  0.19368839358E+03  0.78904603111E+02 0.  0.
         23    2    1    2    0    0 -0.16678983555E+03 -0.11008568269E+02  0.33966728891E+03  0.38953278248E+03  0.91770821386E+02 0.  0.
        -11    1    3    3    0    0  0.18630679176E+02 -0.26124811421E+02  0.19219584897E+02  0.37403214059E+02  0.00000000000E+00 0.  1.
         12    1    3    3    0    0  0.11159288746E+03  0.47499347633E+02  0.98569248662E+02  0.15628517952E+03  0.00000000000E+00 0. -1.
        -11    1    4    4    0    0 -0.58142243149E+02  0.39060819961E+02  0.14527198979E+03  0.16127683997E+03  0.00000000000E+00 0.  1.
         11    1    4    4    0    0 -0.10864759240E+03 -0.50069388230E+02  0.19439529912E+03  0.22825594251E+03  0.00000000000E+00 0. -1.
          1    1    1    2  501    0  0.36566268914E+02 -0.10365967942E+02  0.63375849227E+02  0.73898874003E+02  0.00000000000E+00 0. -1.
<scales pt_clust_5="13000.00000" pt_clust_6="13000.00000" pt_clust_7="13000.00000" pt_clust_8="13000.00000" pt_clust_9="38.00717"></scales>
<clustering>
<clus scale="   38.007">  1  9  2 -1</clus>
<clus scale="   78.905">  5  6 -1 -1</clus>
<clus scale="   91.771">  7  8 -1 -1</clus>
<clus scale="  162.752">  2  5  1 -1</clus>
<clus scale="   38.007">  1  5  2 -1</clus>
</clustering>
</event>
<event>
 9    2  0.5615294E-005  0.9622025E+02  0.7546771E-02  0.1292339E+00
          2   -1    0    0  502    0 -0.00000000000E+00  0.00000000000E+00  0.39316639297E+03  0.39316639297E+03  0.00000000000E+00 0. -1.
         21   -1    0    0  501  502  0.00000000000E+00 -0.00000000000E+00 -0.35369985070E+02  0.35369985070E+02  0.00000000000E+00 0.  1.
         23    2    1    2    0    0  0.13252563097E+02 -0.34132017518E+02  0.23592967844E+03  0.25591492998E+03  0.92135840863E+02 0.  0.
         24    2    1    2    0    0 -0.18029409820E+02  0.15888128652E+01  0.72082999166E+02  0.11295321333E+03  0.85058131226E+02 0.  0.
        -11    1    4    4    0    0 -0.15469869668E+02  0.41436391311E+02  0.51971684231E+02  0.68244760635E+02  0.00000000000E+00 0.  1.
         12    1    4    4    0    0 -0.25595401522E+01 -0.39847578445E+02  0.20111314935E+02  0.44708452693E+02  0.00000000000E+00 0. -1.
        -13    1    3    3    0    0  0.23579929573E+02 -0.61482623408E+02  0.12606526915E+03  0.14222720607E+03  0.00000000000E+00 0.  1.
         13    1    3    3    0    0 -0.10327366476E+02  0.27350605890E+02  0.10986440929E+03  0.11368772391E+03  0.00000000000E+00 0. -1.
          1    1    1    2  501    0  0.47768467230E+01  0.32543204652E+02  0.49783730302E+02  0.59668234735E+02  0.00000000000E+00 0. -1.
<scales pt_clust_5="13000.00000" pt_clust_6="13000.00000" pt_clust_7="13000.00000" pt_clust_8="13000.00000" pt_clust_9="32.89192"></scales>
<clustering>
<clus scale="   32.892">  2  9  1 -1</clus>
<clus scale="   85.058">  5  6 -1 -1</clus>
<clus scale="   89.466">  2  5  1 -1</clus>
<clus scale="   92.136">  7  8 -1 -1</clus>
<clus scale="   32.892">  2  5  1 -1</clus>
</clustering>
</event>
<event>
 9    2  0.5615294E-005  0.9659497E+02  0.7546771E-02  0.1294307E+00
         21   -1    0    0  501  502  0.00000000000E+00  0.00000000000E+00  0.58836003075E+03  0.58836003075E+03  0.00000000000E+00 0. -1.
         -3   -1    0    0    0  501 -0.00000000000E+00 -0.00000000000E+00 -0.19416270043E+02  0.19416270043E+02  0.00000000000E+00 0.  1.
         24    2    1    2    0    0  0.15863806272E+02  0.18044299818E+02  0.17388148767E+03  0.19309072067E+03  0.80448726218E+02 0.  0.
         23    2    1    2    0    0 -0.61258767202E+01 -0.36832974457E+02  0.26909679123E+03  0.28695483139E+03  0.92389381590E+02 0.  0.
        -11    1    3    3    0    0  0.46926488757E+02  0.15707928089E+02  0.13142183194E+03  0.14042981258E+03  0.00000000000E+00 0.  1.
         12    1    3    3    0    0 -0.31062682485E+02  0.23363717294E+01  0.42459655732E+02  0.52660908090E+02  0.00000000000E+00 0. -1.
        -13    1    4    4    0    0  0.34984856566E+02  0.57228880055E+01  0.60424939671E+02  0.70056155834E+02  0.00000000000E+00 0.  1.
         13    1    4    4    0    0 -0.41110733286E+02 -0.42555862462E+02  0.20867185156E+03  0.21689867555E+03  0.00000000000E+00 0. -1.
         -4    1    1    2    0  502 -0.97379295521E+01  0.18788674638E+02  0.12596548180E+03  0.12773074873E+03  0.00000000000E+00 0.  1.
<scales pt_clust_5="13000.00000" pt_clust_6="13000.00000" pt_clust_7="13000.00000" pt_clust_8="13000.00000" pt_clust_9="21.16227"></scales>
<clustering>
<clus scale="   21.162">  1  9  2 -1</clus>
<clus scale="   80.449">  5  6 -1 -1</clus>
<clus scale="   85.245">  2  5  1 -1</clus>
<clus scale="   92.389">  7  8 -1 -1</clus>
<clus scale="   21.162">  1  5  2 -1</clus>
</clustering>
</event>
<event>
 9    2  0.5615294E-005  0.1101946E+03  0.7546771E-02  0.1265822E+00
         21   -1    0    0  501  502  0.00000000000E+00  0.00000000000E+00  0.55405020990E+02  0.55405020990E+02  0.00000000000E+00 0. -1.
          2   -1    0    0  502    0 -0.00000000000E+00 -0.00000000000E+00 -0.37678377109E+03  0.37678377109E+03  0.00000000000E+00 0. -1.
         23    2    1    2    0    0 -0.14292036156E+02  0.38789808259E+02 -0.13409473832E+03  0.16758328919E+03  0.91617948288E+02 0.  0.
         24    2    1    2    0    0 -0.10300085472E+02 -0.30409105263E+02 -0.41242785798E+02  0.11627125764E+03  0.10386160276E+03 0.  0.
        -13    1    4    4    0    0 -0.96097630202E+01  0.29468561323E+02 -0.46798572107E+02  0.56132432720E+02  0.00000000000E+00 0.  1.
         14    1    4    4    0    0 -0.69032245180E+00 -0.59877666586E+02  0.55557863092E+01  0.60138824916E+02  0.00000000000E+00 0. -1.
        -13    1    3    3    0    0  0.19077174874E+02  0.27089897640E+02 -0.12734397963E+03  0.13158377675E+03  0.00000000000E+00 0. -1.
         13    1    3    3    0    0 -0.33369211030E+02  0.11699910619E+02 -0.67507586907E+01  0.35999512443E+02  0.00000000000E+00 0.  1.
          1    1    1    2  501    0  0.24592121628E+02 -0.83807029964E+01 -0.14604122598E+03  0.14833424525E+03  0.00000000000E+00 0. -1.
<scales pt_clust_5="13000.00000" pt_clust_6="13000.00000" pt_clust_7="13000.00000" pt_clust_8="13000.00000" pt_clust_9="25.98094"></scales>
<clustering>
<clus scale="   25.981">  1  9  2 -1</clus>
<clus scale="   91.618">  7  8 -1 -1</clus>
<clus scale="   98.739">  2  7  1 -1</clus>
<clus scale="  103.862">  5  6 -1 -1</clus>
<clus scale="   25.981">  1  5  2 -1</clus>
</clustering>
</event>
<event>
 9    2  0.5615294E-005  0.1033243E+03  0.7546771E-02  0.1276329E+00
         -3   -1    0    0    0  501 -0.00000000000E+00  0.00000000000E+00  0.35639780185E+03  0.35639780185E+03  0.00000000000E+00 0.  1.
         21   -1    0    0  501  502  0.00000000000E+00 -0.00000000000E+00 -0.64514250710E+02  0.64514250710E+02  0.00000000000E+00 0. -1.
         23    2    1    2    0    0 -0.65220032244E+02  0.77597381995E+01  0.22522883793E+03  0.25171419032E+03  0.91203826832E+02 0.  0.
         24    2    1    2    0    0  0.25591088978E+01 -0.27808467966E+02  0.32567931800E+02  0.95101630579E+02  0.84875143758E+02 0.  0.
        -11    1    4    4    0    0  0.41711355924E+02 -0.14294673481E+02  0.29669571037E+01  0.44192507707E+02  0.00000000000E+00 0.  1.
         12    1    4    4    0    0 -0.39152247026E+02 -0.13513794485E+02  0.29600974696E+02  0.50909122872E+02  0.00000000000E+00 0. -1.
        -11    1    3    3    0    0 -0.50332667296E+02 -0.27711311560E+02  0.64209970069E+02  0.86163881306E+02  0.00000000000E+00 0. -1.
         11    1    3    3    0    0 -0.14887364949E+02  0.35471049760E+02  0.16101886786E+03  0.16555030901E+03  0.00000000000E+00 0.  1.
         -4    1    1    2    0  502  0.62660923347E+02  0.20048729767E+02  0.34086781409E+02  0.74096231664E+02  0.00000000000E+00 0.  1.
<scales pt_clust_5="13000.00000" pt_clust_6="13000.00000" pt_clust_7="13000.00000" pt_clust_8="13000.00000" pt_clust_9="65.79014"></scales>
<clustering>
<clus scale="   65.790">  2  9  1 -1</clus>
<clus scale="   84.875">  5  6 -1 -1</clus>
<clus scale="   91.204">  7  8 -1 -1</clus>
<clus scale="   97.783">  2  5  1 -1</clus>
<clus scale="   65.790">  2  5  1 -1</clus>
</clustering>
</event>
<event>
 9    2  0.5615294E-005  0.1102447E+03  0.7546771E-02  0.1263938E+00
          2   -1    0    0  502    0 -0.00000000000E+00  0.00000000000E+00  0.41181828051E+03  0.41181828051E+03  0.00000000000E+00 0. -1.
         21   -1    0    0  501  502  0.00000000000E+00 -0.00000000000E+00 -0.13863626383E+03  0.13863626383E+03  0.00000000000E+00 0.  1.
         23    2    1    2    0    0  0.60066381938E+02 -0.11919447479E+02  0.33170065285E+03  0.34938146949E+03  0.91060664686E+02 0.  0.
         24    2    1    2    0    0 -0.57868070595E+02  0.43529419795E+02  0.25062225054E+02  0.11168748717E+03  0.81255496331E+02 0.  0.
        -11    1    4    4    0    0 -0.75839960843E+02  0.19511226985E+02  0.23007752890E+02  0.81619509507E+02  0.00000000000E+00 0.  1.
         12    1    4    4    0    0  0.17971890249E+02  0.24018192810E+02  0.20544721644E+01  0.30067977664E+02  0.00000000000E+00 0. -1.
        -13    1    3    3    0    0  0.40277459698E+02  0.37979854197E+02  0.14872735387E+03  0.15869646774E+03  0.00000000000E+00 0.  1.
         13    1    3    3    0    0  0.19788922240E+02 -0.49899301677E+02  0.18297329898E+03  0.19068500175E+03  0.00000000000E+00 0. -1.
          1    1    1    2  501    0 -0.21983113435E+01 -0.31609972316E+02 -0.83580861220E+02  0.89385587680E+02  0.00000000000E+00 0. -1.
<scales pt_clust_5="13000.00000" pt_clust_6="13000.00000" pt_clust_7="13000.00000" pt_clust_8="13000.00000" pt_clust_9="31.68632"></scales>
<clustering>
<clus scale="   31.686">  2  9  1 -1</clus>
<clus scale="   81.255">  5  6 -1 -1</clus>
<clus scale="   91.061">  7  8 -1 -1</clus>
<clus scale="  102.295">  2  5  1 -1</clus>
<clus scale="   31.686">  2  5  1 -1</clus>
</clustering>
</event>
<event>
 9    2  0.5615294E-005  0.2057219E+03  0.7546771E-02  0.1144999E+00
          2   -1    0    0  502    0 -0.00000000000E+00  0.00000000000E+00  0.44378629329E+02  0.44378629329E+02  0.00000000000E+00 0. -1.
         21   -1    0    0  501  502  0.00000000000E+00 -0.00000000000E+00 -0.56631934976E+03  0.56631934976E+03  0.00000000000E+00 0. -1.
         24    2    1    2    0    0 -0.44078433245E+02  0.47539036633E+02 -0.20026592627E+03  0.22519102239E+03  0.80010543429E+02 0.  0.
         23    2    1    2    0    0 -0.47273658006E+02  0.15569003001E+02 -0.15148908100E+03  0.18230507136E+03  0.88368573509E+02 0.  0.
        -13    1    3    3    0    0  0.42050302659E+01 -0.19702069660E+02 -0.42094213535E+02  0.46666654493E+02  0.00000000000E+00 0.  1.
         14    1    3    3    0    0 -0.48283463511E+02  0.67241106294E+02 -0.15817171274E+03  0.17852436790E+03  0.00000000000E+00 0. -1.
        -11    1    4    4    0    0 -0.69010487370E+02 -0.68307657837E+01 -0.93005015029E+02  0.11601310076E+03  0.00000000000E+00 0.  1.
         11    1    4    4    0    0  0.21736829364E+02  0.22399768785E+02 -0.58484065975E+02  0.66291970595E+02  0.00000000000E+00 0. -1.
          1    1    1    2  501    0  0.91352091250E+02 -0.63108039635E+02 -0.17018571316E+03  0.20320188534E+03  0.00000000000E+00 0. -1.
<scales pt_clust_5="13000.00000" pt_clust_6="13000.00000" pt_clust_7="13000.00000" pt_clust_8="13000.00000" pt_clust_9="111.03081"></scales>
<clustering>
<clus scale="   80.011">  5  6 -1 -1</clus>
<clus scale="   88.369">  7  8 -1 -1</clus>
<clus scale="   93.923">  5  7 -1 -1</clus>
<clus scale="  111.031">  2  9  1 -1</clus>
<clus scale="  111.031">  2  5  1 -1</clus>
</clustering>
</event>
<event>
 9    2  0.5615294E-005  0.1213432E+03  0.7546771E-02  0.1258227E+00
         21   -1    0    0  501  502  0.00000000000E+00  0.00000000000E+00  0.36667956544E+03  0.36667956544E+03  0.00000000000E+00 0. -1.
          4   -1    0    0  502    0 -0.00000000000E+00 -0.00000000000E+00 -0.85381493160E+02  0.85381493160E+02  0.00000000000E+00 0. -1.
         24    2    1    2    0    0  0.92505170613E+01 -0.49137578596E+02 -0.14938067505E+02  0.87101353797E+02  0.69738269812E+02 0.  0.
         23    2    1    2    0    0  0.31406027664E+02 -0.45923702569E+02  0.10120281831E+03  0.14421641886E+03  0.86377311848E+02 0.  0.
        -13    1    3    3    0    0  0.26104567951E+02 -0.28212273803E+02  0.19758373301E+02  0.43217753025E+02  0.00000000000E+00 0.  1.
         14    1    3    3    0    0 -0.16854050890E+02 -0.20925304793E+02 -0.34696440806E+02  0.43883600772E+02  0.00000000000E+00 0. -1.
        -11    1    4    4    0    0  0.89184848053E+01 -0.63992453199E+02  0.94706203600E+02  0.11464658058E+03  0.00000000000E+00 0. -1.
         11    1    4    4    0    0  0.22487542858E+02  0.18068750630E+02  0.64966147130E+01  0.29569838279E+02  0.00000000000E+00 0.  1.
          3    1    1    2  501    0 -0.40656544725E+02  0.95061281165E+02  0.19503332147E+03  0.22074328595E+03  0.00000000000E+00 0. -1.
<scales pt_clust_5="13000.00000" pt_clust_6="13000.00000" pt_clust_7="13000.00000" pt_clust_8="13000.00000" pt_clust_9="85.22403"></scales>
<clustering>
<clus scale="   69.738">  5  6 -1 -1</clus>
<clus scale="   85.811">  2  5  1 -1</clus>
<clus scale="   85.224">  1  9  2 -1</clus>
<clus scale="   86.377">  7  8 -1 -1</clus>
<clus scale="   85.224">  1  5  2 -1</clus>
</clustering>
</event>
<event>
 9    2  0.5615294E-005  0.9328719E+02  0.7546771E-02  0.1300912E+00
         21   -1    0    0  501  502  0.00000000000E+00  0.00000000000E+00  0.54251063763E+02  0.54251063763E+02  0.00000000000E+00 0. -1.
          4   -1    0    0  502    0 -0.00000000000E+00 -0.00000000000E+00 -0.29641111666E+03  0.29641111666E+03  0.00000000000E+00 0. -1.
         23    2    1    2    0    0  0.12177820157E+01  0.26403790335E+01 -0.10151751354E+03  0.13616325864E+03  0.90698251659E+02 0.  0.
         24    2    1    2    0    0 -0.30764978858E+02 -0.45280880341E+02 -0.49139569069E+02  0.10931316816E+03  0.80856845330E+02 0.  0.
        -11    1    4    4    0    0 -0.40655197378E+02 -0.75548812162E+01 -0.56102998406E+02  0.69695535970E+02  0.00000000000E+00 0.  1.
         12    1    4    4    0    0  0.98902185205E+01 -0.37725999125E+02  0.69634293369E+01  0.39617632192E+02  0.00000000000E+00 0. -1.
        -11    1    3    3    0    0 -0.33005318845E+02 -0.19703947722E+02 -0.16499203939E+02  0.41830854145E+02  0.00000000000E+00 0. -1.
         11    1    3    3    0    0  0.34223100860E+02  0.22344326755E+02 -0.85018309601E+02  0.94332404497E+02  0.00000000000E+00 0.  1.
          3    1    1    2  501    0  0.29547196842E+02  0.42640501308E+02 -0.91502970283E+02  0.10518575362E+03  0.00000000000E+00 0. -1.
<scales pt_clust_5="13000.00000" pt_clust_6="13000.00000" pt_clust_7="13000.00000" pt_clust_8="13000.00000" pt_clust_9="51.87728"></scales>
<clustering>
<clus scale="   51.877">  1  9  2 -1</clus>
<clus scale="   80.857">  5  6 -1 -1</clus>
<clus scale="   83.751">  1  5  2 -1</clus>
<clus scale="   90.698">  7  8 -1 -1</clus>
<clus scale="   51.877">  1  5  2 -1</clus>
</clustering>
</event>
<event>
 9    2  0.5615294E-005  0.9432123E+02  0.7546771E-02  0.1300543E+00
         21   -1    0    0  501  502  0.00000000000E+00  0.00000000000E+00  0.51762522689E+02  0.51762522689E+02  0.00000000000E+00 0. -1.
          2   -1    0    0  502    0 -0.00000000000E+00 -0.00000000000E+00 -0.53406068711E+03  0.53406068711E+03  0.00000000000E+00 0. -1.
         24    2    1    2    0    0 -0.11717133627E+02  0.24717634156E+02 -0.41882281607E+03  0.42690032639E+03  0.77994132807E+02 0.  0.
         23    2    1    2    0    0  0.65345964851E+00 -0.77875062066E+01 -0.88090682459E+02  0.12706462252E+03  0.91238027698E+02 0.  0.
        -13    1    3    3    0    0 -0.31072473400E+02  0.25573522827E+02 -0.10450094118E+03  0.11198191988E+03  0.00000000000E+00 0.  1.
         14    1    3    3    0    0  0.19355339773E+02 -0.85588867045E+00 -0.31432187489E+03  0.31491840651E+03  0.00000000000E+00 0. -1.
        -13    1    4    4    0    0  0.84190831760E+01 -0.48812547229E+02 -0.42782822526E+02  0.65451628183E+02  0.00000000000E+00 0.  1.
         13    1    4    4    0    0 -0.77656235274E+01  0.41025041023E+02 -0.45307859933E+02  0.61612994339E+02  0.00000000000E+00 0. -1.
          1    1    1    2  501    0  0.11063673978E+02 -0.16930127949E+02  0.24615334101E+02  0.31858260894E+02  0.00000000000E+00 0. -1.
<scales pt_clust_5="13000.00000" pt_clust_6="13000.00000" pt_clust_7="13000.00000" pt_clust_8="13000.00000" pt_clust_9="20.22459"></scales>
<clustering>
<clus scale="   20.225">  1  9  2 -1</clus>
<clus scale="   77.994">  5  6 -1 -1</clus>
<clus scale="   81.579">  2  5  1 -1</clus>
<clus scale="   91.238">  7  8 -1 -1</clus>
<clus scale="   20.225">  1  5  2 -1</clus>
</clustering>
</event>
<event>
 9    2  0.5615294E-005  0.1153345E+03  0.7546771E-02  0.1253097E+00
         21   -1    0    0  501  502  0.00000000000E+00  0.00000000000E+00  0.20778918155E+03  0.20778918155E+03  0.00000000000E+00 0. -1.
          2   -1    0    0  502    0 -0.00000000000E+00 -0.00000000000E+00 -0.13836509377E+03  0.13836509377E+03  0.00000000000E+00 0. -1.
         23    2    1    2    0    0  0.62204471664E+02  0.26386745970E+02 -0.69343710125E+02  0.13341161390E+03  0.91784813188E+02 0.  0.
         24    2    1    2    0    0 -0.86209909845E+02  0.20738641523E+01  0.12070489259E+03  0.17135986378E+03  0.85779265288E+02 0.  0.
        -11    1    4    4    0    0 -0.38587717512E+02 -0.27541117385E+02  0.11785121870E+02  0.48850938446E+02  0.00000000000E+00 0.  1.
         12    1    4    4    0    0 -0.47622192333E+02  0.29614981537E+02  0.10891977072E+03  0.12250892534E+03  0.00000000000E+00 0. -1.
        -11    1    3    3    0    0  0.89797178647E+01 -0.33014233675E+02 -0.21215204213E+02  0.40257419787E+02  0.00000000000E+00 0.  1.
         11    1    3    3    0    0  0.53224753799E+02  0.59400979645E+02 -0.48128505912E+02  0.93154194114E+02  0.00000000000E+00 0. -1.
          1    1    1    2  501    0  0.24005438182E+02 -0.28460610122E+02  0.18062905317E+02  0.41382797626E+02  0.00000000000E+00 0. -1.
<scales pt_clust_5="13000.00000" pt_clust_6="13000.00000" pt_clust_7="13000.00000" pt_clust_8="13000.00000" pt_clust_9="37.23261"></scales>
<clustering>
<clus scale="   37.233">  1  9  2 -1</clus>
<clus scale="   85.779">  5  6 -1 -1</clus>
<clus scale="   91.785">  7  8 -1 -1</clus>
<clus scale="  110.615">  1  5  2 -1</clus>
<clus scale="   37.233">  1  5  2 -1</clus>
</clustering>
</event>
<event>
 9    2  0.5615294E-005  0.1202437E+03  0.7546771E-02  0.1246330E+00
         21   -1    0    0  501  502  0.00000000000E+00  0.00000000000E+00  0.34691244628E+03  0.34691244628E+03  0.00000000000E+00 0. -1.
          2   -1    0    0  502    0 -0.00000000000E+00 -0.00000000000E+00 -0.13038456158E+03  0.13038456158E+03  0.00000000000E+00 0. -1.
         24    2    1    2    0    0 -0.20459499170E+02 -0.67035846988E+02 -0.40745603488E+02  0.11455191465E+03  0.80929234888E+02 0.  0.
         23    2    1    2    0    0 -0.65175946148E+01  0.97744312781E+02  0.38231807586E+02  0.13992222341E+03  0.92304538199E+02 0.  0.
        -13    1    3    3    0    0 -0.33404916121E+02 -0.64970533805E+02 -0.57719404332E+02  0.93105253989E+02  0.00000000000E+00 0.  1.
         14    1    3    3    0    0  0.12945416951E+02 -0.20653131832E+01  0.16973800843E+02  0.21446660665E+02  0.00000000000E+00 0. -1.
        -11    1    4    4    0    0  0.25967117235E+02  0.88230364650E+02  0.44196035227E+01  0.92078343377E+02  0.00000000000E+00 0. -1.
         11    1    4    4    0    0 -0.32484711850E+02  0.95139481310E+01  0.33812204063E+02  0.47843880033E+02  0.00000000000E+00 0.  1.
          1    1    1    2  501    0  0.26977093785E+02 -0.30708465792E+02  0.21904168060E+03  0.22282286979E+03  0.00000000000E+00 0. -1.
<scales pt_clust_5="13000.00000" pt_clust_6="13000.00000" pt_clust_7="13000.00000" pt_clust_8="13000.00000" pt_clust_9="40.87510"></scales>
<clustering>
<clus scale="   40.875">  1  9  2 -1</clus>
<clus scale="   80.929">  5  6 -1 -1</clus>
<clus scale="   92.305">  7  8 -1 -1</clus>
<clus scale="  111.750">  2  5  1 -1</clus>
<clus scale="   40.875">  1  5  2 -1</clus>
</clustering>
</event>
<event>
 9    2  0.5615294E-005  0.9940267E+02  0.7546771E-02  0.1290616E+00
         21   -1    0    0  501  502  0.00000000000E+00  0.00000000000E+00  0.55266952041E+03  0.55266952041E+03  0.00000000000E+00 0. -1.
         -1   -1    0    0    0  501 -0.00000000000E+00 -0.00000000000E+00 -0.24981045295E+02  0.24981045295E+02  0.00000000000E+00 0.  1.
         24    2    1    2    0    0  0.55888682719E+01 -0.18664450261E+02  0.23845497585E+03  0.25225653782E+03  0.79956164314E+02 0.  0.
         23    2    1    2    0    0  0.10946102338E+02  0.32650723812E+02  0.28574384163E+03  0.30345778365E+03  0.96183140444E+02 0.  0.
        -13    1    3    3    0    0 -0.23556297856E+02 -0.23841581289E+02  0.42732610941E+02  0.54308343787E+02  0.00000000000E+00 0.  1.
         14    1    3    3    0    0  0.29145166128E+02  0.51771310281E+01  0.19572236491E+03  0.19794819403E+03  0.00000000000E+00 0. -1.
        -11    1    4    4    0    0  0.18546661067E+02 -0.17052242624E+02  0.17826902541E+02  0.30863507083E+02  0.00000000000E+00 0. -1.
         11    1    4    4    0    0 -0.76005587294E+01  0.49702966436E+02  0.26791693909E+03  0.27259427657E+03  0.00000000000E+00 0.  1.
         -2    1    1    2    0  502 -0.16534970610E+02 -0.13986273551E+02  0.34896576364E+01  0.21936244240E+02  0.00000000000E+00 0.  1.
<scales pt_clust_5="13000.00000" pt_clust_6="13000.00000" pt_clust_7="13000.00000" pt_clust_8="13000.00000" pt_clust_9="21.65691"></scales>
<clustering>
<clus scale="   21.657">  1  9  2 -1</clus>
<clus scale="   79.956">  5  6 -1 -1</clus>
<clus scale="   83.801">  2  5  1 -1</clus>
<clus scale="   96.183">  7  8 -1 -1</clus>
<clus scale="   21.657">  1  5  2 -1</clus>
</clustering>
</event>
<event>
 9    2  0.5615294E-005  0.1174417E+03  0.7546771E-02  0.1250582E+00
          2   -1    0    0  502    0 -0.00000000000E+00  0.00000000000E+00  0.62260471217E+03  0.62260471217E+03  0.00000000000E+00 0. -1.
         21   -1    0    0  501  502  0.00000000000E+00 -0.00000000000E+00 -0.52967127719E+02  0.52967127719E+02  0.00000000000E+00 0.  1.
         24    2    1    2    0    0 -0.47532667120E+02 -0.55961772321E+02  0.40756994536E+03  0.42187708791E+03  0.80473241096E+02 0.  0.
         23    2    1    2    0    0  0.71598137151E+02  0.51930314637E+02  0.44989873885E+02  0.13410126301E+03  0.90199829089E+02 0.  0.
        -11    1    3    3    0    0 -0.35092502977E+02 -0.61273291786E+02  0.40037906354E+03  0.40655786128E+03  0.00000000000E+00 0.  1.
         12    1    3    3    0    0 -0.12440164142E+02  0.53115194648E+01  0.71908818245E+01  0.15319226623E+02  0.00000000000E+00 0. -1.
        -11    1    4    4    0    0  0.59192944205E+02  0.72974809282E+02  0.53628313657E+02  0.10819021887E+03  0.00000000000E+00 0. -1.
         11    1    4    4    0    0  0.12405192946E+02 -0.21044494645E+02 -0.86384397719E+01  0.25911044143E+02  0.00000000000E+00 0.  1.
          1    1    1    2  501    0 -0.24065470031E+02  0.40314576843E+01  0.11707776520E+03  0.11959348897E+03  0.00000000000E+00 0. -1.
<scales pt_clust_5="13000.00000" pt_clust_6="13000.00000" pt_clust_7="13000.00000" pt_clust_8="13000.00000" pt_clust_9="24.40082"></scales>
<clustering>
<clus scale="   24.401">  2  9  1 -1</clus>
<clus scale="   80.473">  5  6 -1 -1</clus>
<clus scale="   90.200">  7  8 -1 -1</clus>
<clus scale="  110.148">  1  5  2 -1</clus>
<clus scale="   24.401">  2  5  1 -1</clus>
</clustering>
</event>
<event>
 9    2  0.5615294E-005  0.9232233E+02  0.7546771E-02  0.1300464E+00
         21   -1    0    0  501  502  0.00000000000E+00  0.00000000000E+00  0.56827714446E+03  0.56827714446E+03  0.00000000000E+00 0.  1.
          2   -1    0    0  502    0 -0.00000000000E+00 -0.00000000000E+00 -0.32701590440E+03  0.32701590440E+03  0.00000000000E+00 0. -1.
         24    2    1    2    0    0  0.36253312824E+01 -0.13053349708E+02 -0.31427465437E+03  0.32612388899E+03  0.86050564369E+02 0.  0.
         23    2    1    2    0    0 -0.27610997833E+02  0.11666694874E+02  0.49074033943E+03  0.50006272775E+03  0.91313591420E+02 0.  0.
        -11    1    3    3    0    0 -0.48864196018E+01 -0.23848795285E+02 -0.19939478137E+02  0.31467839479E+02  0.00000000000E+00 0.  1.
         12    1    3    3    0    0  0.85117508841E+01  0.10795445577E+02 -0.29433517623E+03  0.29465604952E+03  0.00000000000E+00 0. -1.
        -11    1    4    4    0    0 -0.23620279719E+02  0.50371216145E+02  0.33160555826E+03  0.33624012744E+03  0.00000000000E+00 0.  1.
         11    1    4    4    0    0 -0.39907181140E+01 -0.38704521270E+02  0.15913478116E+03  0.16382260032E+03  0.00000000000E+00 0. -1.
          1    1    1    2  501    0  0.23985666550E+02  0.13866548340E+01  0.64795555004E+02  0.69106432116E+02  0.00000000000E+00 0. -1.
<scales pt_clust_5="13000.00000" pt_clust_6="13000.00000" pt_clust_7="13000.00000" pt_clust_8="13000.00000" pt_clust_9="24.02572"></scales>
<clustering>
<clus scale="   24.026">  1  9  2 -1</clus>
<clus scale="   86.051">  5  6 -1 -1</clus>
<clus scale="   87.120">  2  5  1 -1</clus>
<clus scale="   91.314">  7  8 -1 -1</clus>
<clus scale="   24.026">  1  5  2 -1</clus>
</clustering>
</event>
<event>
 9    2  0.5615294E-005  0.1021319E+03  0.7546771E-02  0.1284217E+00
         21   -1    0    0  501  502  0.00000000000E+00  0.00000000000E+00  0.53994878386E+02  0.53994878386E+02  0.00000000000E+00 0. -1.
          2   -1    0    0  502    0 -0.00000000000E+00 -0.00000000000E+00 -0.34714872535E+03  0.34714872535E+03  0.00000000000E+00 0. -1.
         23    2    1    2    0    0 -0.50662712760E+02  0.17148971900E+02 -0.15171586253E+03  0.18648162363E+03  0.94323355051E+02 0.  0.
         24    2    1    2    0    0  0.21553809025E+02  0.45202199928E+02 -0.77264057771E+02  0.12057005819E+03  0.77843424562E+02 0.  0.
        -13    1    4    4    0    0  0.39273677149E+02  0.17045563752E+02 -0.76057745168E+02  0.87279743127E+02  0.00000000000E+00 0.  1.
         14    1    4    4    0    0 -0.17719868124E+02  0.28156636176E+02 -0.12063126035E+01  0.33290315066E+02  0.00000000000E+00 0. -1.
        -13    1    3    3    0    0 -0.69507330488E+02 -0.15029399895E+02 -0.97467585336E+02  0.12065273326E+03  0.00000000000E+00 0. -1.
         13    1    3    3    0    0  0.18844617729E+02  0.32178371795E+02 -0.54248277194E+02  0.65828890369E+02  0.00000000000E+00 0.  1.
          1    1    1    2  501    0  0.29108903735E+02 -0.62351171828E+02 -0.64173926658E+02  0.94091921905E+02  0.00000000000E+00 0. -1.
<scales pt_clust_5="13000.00000" pt_clust_6="13000.00000" pt_clust_7="13000.00000" pt_clust_8="13000.00000" pt_clust_9="68.81131"></scales>
<clustering>
<clus scale="   68.811">  1  9  2 -1</clus>
<clus scale="   77.843">  5  6 -1 -1</clus>
<clus scale="   87.141">  1  5  2 -1</clus>
<clus scale="   94.323">  7  8 -1 -1</clus>
<clus scale="   68.811">  1  5  2 -1</clus>
</clustering>
</event>
<event>
 9    2  0.5615294E-005  0.9154423E+02  0.7546771E-02  0.1307682E+00
         -1   -1    0    0    0  501 -0.00000000000E+00  0.00000000000E+00  0.38483084657E+03  0.38483084657E+03  0.00000000000E+00 0.  1.
         21   -1    0    0  501  502  0.00000000000E+00 -0.00000000000E+00 -0.37447649735E+02  0.37447649735E+02  0.00000000000E+00 0.  1.
         24    2    1    2    0    0  0.69510801051E+01 -0.20335948597E+02  0.12448358813E+03  0.14779717673E+03  0.76720097866E+02 0.  0.
         23    2    1    2    0    0  0.35910356521E+02  0.49673776017E+00  0.86131992182E+02  0.12978827217E+03  0.90202411622E+02 0.  0.
        -11    1    3    3    0    0  0.33779613879E+02  0.99107455437E+01  0.35184240905E+02  0.49771638501E+02  0.00000000000E+00 0.  1.
         12    1    3    3    0    0 -0.26828533774E+02 -0.30246694141E+02  0.89299347220E+02  0.98025538228E+02  0.00000000000E+00 0. -1.
        -13    1    4    4    0    0  0.43543889996E+02 -0.31022868869E+02  0.80851866515E+02  0.96930454801E+02  0.00000000000E+00 0. -1.
         13    1    4    4    0    0 -0.76335334750E+01  0.31519606629E+02  0.52801256668E+01  0.32857817372E+02  0.00000000000E+00 0.  1.
         -2    1    1    2    0  502 -0.42861436626E+02  0.19839210837E+02  0.13676761653E+03  0.14469304741E+03  0.00000000000E+00 0.  1.
<scales pt_clust_5="13000.00000" pt_clust_6="13000.00000" pt_clust_7="13000.00000" pt_clust_8="13000.00000" pt_clust_9="47.23028"></scales>
<clustering>
<clus scale="   47.230">  2  9  1 -1</clus>
<clus scale="   76.720">  5  6 -1 -1</clus>
<clus scale="   78.293">  1  5  2 -1</clus>
<clus scale="   90.202">  7  8 -1 -1</clus>
<clus scale="   47.230">  2  5  1 -1</clus>
</clustering>
</event>
<event>
 9    2  0.5615294E-005  0.9519206E+02  0.7546771E-02  0.1293919E+00
         21   -1    0    0  501  502  0.00000000000E+00  0.00000000000E+00  0.42591584268E+02  0.42591584268E+02  0.00000000000E+00 0.  1.
          2   -1    0    0  502    0 -0.00000000000E+00 -0.00000000000E+00 -0.50922432729E+03  0.50922432729E+03  0.00000000000E+00 0. -1.
         24    2    1    2    0    0 -0.24442457853E+02  0.36992909294E+02 -0.37115419302E+03  0.38279028105E+03  0.82504879766E+02 0.  0.
         23    2    1    2    0    0  0.11084694283E+02  0.10849486422E+02 -0.59921247893E+02  0.10793842719E+03  0.88428311715E+02 0.  0.
        -11    1    3    3    0    0  0.30151520853E+02  0.15040277585E+02 -0.10783445196E+03  0.11297607353E+03  0.00000000000E+00 0.  1.
         12    1    3    3    0    0 -0.54593978706E+02  0.21952631709E+02 -0.26331974106E+03  0.26981420752E+03  0.00000000000E+00 0. -1.
        -11    1    4    4    0    0 -0.39753403370E+01  0.46341775792E+02 -0.15291529546E+02  0.48961151847E+02  0.00000000000E+00 0. -1.
         11    1    4    4    0    0  0.15060034620E+02 -0.35492289370E+02 -0.44629718347E+02  0.58977275345E+02  0.00000000000E+00 0.  1.
          1    1    1    2  501    0  0.13357763569E+02 -0.47842395716E+02 -0.35557302104E+02  0.61087203311E+02  0.00000000000E+00 0. -1.
<scales pt_clust_5="13000.00000" pt_clust_6="13000.00000" pt_clust_7="13000.00000" pt_clust_8="13000.00000" pt_clust_9="49.67217"></scales>
<clustering>
<clus scale="   49.672">  1  9  2 -1</clus>
<clus scale="   82.505">  5  6 -1 -1</clus>
<clus scale="   88.428">  7  8 -1 -1</clus>
<clus scale="   89.716">  2  5  1 -1</clus>
<clus scale="   49.672">  1  5  2 -1</clus>
</clustering>
</event>
<event>
 9    2  0.5615294E-005  0.8896379E+02  0.7546771E-02  0.1307321E+00
         -1   -1    0    0    0  501 -0.00000000000E+00  0.00000000000E+00  0.58702667661E+02  0.58702667661E+02  0.00000000000E+00 0.  1.
         21   -1    0    0  501  502  0.00000000000E+00 -0.00000000000E+00 -0.19906632450E+03  0.19906632450E+03  0.00000000000E+00 0. -1.
         24    2    1    2    0    0  0.27118681200E+01 -0.29610659354E+02 -0.16697606871E+02  0.88131353202E+02  0.81266105886E+02 0.  0.
         23    2    1    2    0    0 -0.23365721789E+02  0.18922051120E+02 -0.80190861958E+02  0.12033327820E+03  0.84531192630E+02 0.  0.
        -13    1    3    3    0    0  0.23753706524E+02 -0.16116290520E+02  0.25951217659E+02  0.38696758155E+02  0.00000000000E+00 0.  1.
         14    1    3    3    0    0 -0.21041838404E+02 -0.13494368834E+02 -0.42648824529E+02  0.49434595046E+02  0.00000000000E+00 0. -1.
        -13    1    4    4    0    0 -0.28176193585E+02  0.49170147274E+02 -0.64702138019E+02  0.86011440705E+02  0.00000000000E+00 0. -1.
         13    1    4    4    0    0  0.48104717963E+01 -0.30248096153E+02 -0.15488723939E+02  0.34321837495E+02  0.00000000000E+00 0.  1.
         -2    1    1    2    0  502  0.20653853669E+02  0.10688608234E+02 -0.43475188007E+02  0.49304360757E+02  0.00000000000E+00 0.  1.
<scales pt_clust_5="13000.00000" pt_clust_6="13000.00000" pt_clust_7="13000.00000" pt_clust_8="13000.00000" pt_clust_9="23.25571"></scales>
<clustering>
<clus scale="   23.256">  2  9  1 -1</clus>
<clus scale="   81.266">  5  6 -1 -1</clus>
<clus scale="   84.531">  7  8 -1 -1</clus>
<clus scale="   85.867">  1  5  2 -1</clus>
<clus scale="   23.256">  2  5  1 -1</clus>
</clustering>
</event>
<event>
 9    2  0.5615294E-005  0.1176453E+03  0.7546771E-02  0.1249496E+00
         21   -1    0    0  501  502  0.00000000000E+00  0.00000000000E+00  0.42263941494E+02  0.42263941494E+02  0.00000000000E+00 0. -1.
          2   -1    0    0  502    0 -0.00000000000E+00 -0.00000000000E+00 -0.85524908890E+03  0.85524908890E+03  0.00000000000E+00 0. -1.
         24    2    1    2    0    0 -0.42402153038E+02 -0.80765917230E+02 -0.62473561544E+03  0.63638566368E+03  0.79818843420E+02 0.  0.
         23    2    1    2    0    0  0.28026337575E+02  0.74291453863E+01 -0.52469323564E+02  0.10613958924E+03  0.87589466771E+02 0.  0.
        -11    1    3    3    0    0 -0.28643066525E+02  0.83880239691E+01 -0.12027933420E+03  0.12392700449E+03  0.00000000000E+00 0.  1.
         12    1    3    3    0    0 -0.13759086513E+02 -0.89153941199E+02 -0.50445628124E+03  0.51245865919E+03  0.00000000000E+00 0. -1.
        -13    1    4    4    0    0  0.45211090040E+01 -0.35152358180E+02 -0.11890841904E+01  0.35461847576E+02  0.00000000000E+00 0. -1.
         13    1    4    4    0    0  0.23505228571E+02  0.42581503567E+02 -0.51280239374E+02  0.70677741662E+02  0.00000000000E+00 0.  1.
          1    1    1    2  501    0  0.14375815463E+02  0.73336771844E+02 -0.13578020840E+03  0.15498777748E+03  0.00000000000E+00 0. -1.
<scales pt_clust_5="13000.00000" pt_clust_6="13000.00000" pt_clust_7="13000.00000" pt_clust_8="13000.00000" pt_clust_9="74.73250"></scales>
<clustering>
<clus scale="   74.732">  1  9  2 -1</clus>
<clus scale="   79.819">  5  6 -1 -1</clus>
<clus scale="   87.589">  7  8 -1 -1</clus>
<clus scale="  111.980">  2  5  1 -1</clus>
<clus scale="   74.732">  1  5  2 -1</clus>
</clustering>
</event>
<event>
 9    2  0.5615294E-005  0.1805820E+03  0.7546771E-02  0.1198462E+00
         -3   -1    0    0    0  501 -0.00000000000E+00  0.00000000000E+00  0.30017161529E+03  0.30017161529E+03  0.00000000000E+00 0.  1.
         21   -1    0    0  501  502  0.00000000000E+00 -0.00000000000E+00 -0.60175554548E+03  0.60175554548E+03  0.00000000000E+00 0. -1.
         23    2    1    2    0    0  0.93079434719E+01  0.18845103742E+01 -0.36375603426E+03  0.37467891540E+03  0.89306483491E+02 0.  0.
         24    2    1    2    0    0  0.16031042624E+03  0.21612246268E+01 -0.16494647421E+03  0.24375290518E+03  0.80647602445E+02 0.  0.
        -11    1    4    4    0    0  0.53664140247E+02 -0.37711459236E+02 -0.62062867118E+02  0.90298358684E+02  0.00000000000E+00 0.  1.
         12    1    4    4    0    0  0.10664628599E+03  0.39872683863E+02 -0.10288360709E+03  0.15345454650E+03  0.00000000000E+00 0. -1.
        -13    1    3    3    0    0 -0.12128609316E+02  0.42276338463E+02 -0.16948533398E+03  0.17509903024E+03  0.00000000000E+00 0.  1.
         13    1    3    3    0    0  0.21436552788E+02 -0.40391828089E+02 -0.19427070027E+03  0.19957988515E+03  0.00000000000E+00 0. -1.
         -4    1    1    2    0  502 -0.16961836971E+03 -0.40457350011E+01  0.22711857827E+03  0.28349534019E+03  0.00000000000E+00 0.  1.
<scales pt_clust_5="13000.00000" pt_clust_6="13000.00000" pt_clust_7="13000.00000" pt_clust_8="13000.00000" pt_clust_9="161.57302"></scales>
<clustering>
<clus scale="   80.648">  5  6 -1 -1</clus>
<clus scale="   89.306">  7  8 -1 -1</clus>
<clus scale="   89.810">  1  7  2 -1</clus>
<clus scale="  161.573">  2  9  1 -1</clus>
<clus scale="  161.573">  2  5  1 -1</clus>
</clustering>
</event>
<event>
 9    2  0.5615294E-005  0.1103592E+03  0.7546771E-02  0.1264137E+00
         21   -1    0    0  501  502  0.00000000000E+00  0.00000000000E+00  0.31289159588E+02  0.31289159588E+02  0.00000000000E+00 0.  1.
          2   -1    0    0  502    0 -0.00000000000E+00 -0.00000000000E+00 -0.13828414155E+04  0.13828414155E+04  0.00000000000E+00 0. -1.
         24    2    1    2    0    0  0.52173297962E+02 -0.28692108907E+02 -0.11553463534E+04  0.11597648819E+04  0.81756313612E+02 0.  0.
         23    2    1    2    0    0 -0.40826481496E+02  0.60809354593E+02 -0.18325197726E+03  0.21792297243E+03  0.92436765122E+02 0.  0.
        -11    1    3    3    0    0  0.35878623414E+02 -0.98642354959E+01 -0.16659081953E+03  0.17069586964E+03  0.00000000000E+00 0.  1.
         12    1    3    3    0    0  0.16294674547E+02 -0.18827873411E+02 -0.98875553390E+03  0.98906901228E+03  0.00000000000E+00 0. -1.
        -11    1    4    4    0    0  0.25429980631E+02  0.19128920659E+01 -0.67270623590E+02  0.71942198111E+02  0.00000000000E+00 0. -1.
         11    1    4    4    0    0 -0.66256462127E+02  0.58896462527E+02 -0.11598135367E+03  0.14598077432E+03  0.00000000000E+00 0.  1.
          1    1    1    2  501    0 -0.11346816466E+02 -0.32117245687E+02 -0.12953925186E+02  0.36442720702E+02  0.00000000000E+00 0. -1.
<scales pt_clust_5="13000.00000" pt_clust_6="13000.00000" pt_clust_7="13000.00000" pt_clust_8="13000.00000" pt_clust_9="34.06270"></scales>
<clustering>
<clus scale="   34.063">  1  9  2 -1</clus>
<clus scale="   81.756">  5  6 -1 -1</clus>
<clus scale="   92.437">  7  8 -1 -1</clus>
<clus scale="  101.581">  2  5  1 -1</clus>
<clus scale="   34.063">  1  5  2 -1</clus>
</clustering>
</event>
<event>
 9    2  0.5615294E-005  0.9377635E+02  0.7546771E-02  0.1295461E+00
         21   -1    0    0  501  502  0.00000000000E+00  0.00000000000E+00  0.53173728468E+02  0.53173728468E+02  0.00000000000E+00 0. -1.
          2   -1    0    0  502    0 -0.00000000000E+00 -0.00000000000E+00 -0.40823091224E+03  0.40823091224E+03  0.00000000000E+00 0. -1.
         23    2    1    2    0    0  0.26575566807E+02 -0.17377403177E+02 -0.27503115145E+03  0.29048432939E+03  0.87924834170E+02 0.  0.
         24    2    1    2    0    0 -0.72633990209E+01  0.22242094278E+01 -0.10293671632E+03  0.13734236400E+03  0.90604929820E+02 0.  0.
        -13    1    4    4    0    0 -0.18744075365E+02  0.26982457778E+02 -0.21480156630E+01  0.32924267043E+02  0.00000000000E+00 0.  1.
         14    1    4    4    0    0  0.11480676344E+02 -0.24758248350E+02 -0.10078870066E+03  0.10441809695E+03  0.00000000000E+00 0. -1.
        -11    1    3    3    0    0  0.20078245696E+01 -0.45479173648E+02 -0.21521649088E+03  0.21997846381E+03  0.00000000000E+00 0. -1.
         11    1    3    3    0    0  0.24567742238E+02  0.28101770471E+02 -0.59814660571E+02  0.70505865582E+02  0.00000000000E+00 0.  1.
          1    1    1    2  501    0 -0.19312167786E+02  0.15153193750E+02  0.22910683994E+02  0.33577947324E+02  0.00000000000E+00 0. -1.
<scales pt_clust_5="13000.00000" pt_clust_6="13000.00000" pt_clust_7="13000.00000" pt_clust_8="13000.00000" pt_clust_9="24.54749"></scales>
<clustering>
<clus scale="   24.547">  1  9  2 -1</clus>
<clus scale="   87.925">  7  8 -1 -1</clus>
<clus scale="   90.605">  5  6 -1 -1</clus>
<clus scale="   91.190">  2  7  1 -1</clus>
<clus scale="   24.547">  1  5  2 -1</clus>
</clustering>
</event>
<event>
 9    2  0.5615294E-005  0.1039057E+03  0.7546771E-02  0.1273721E+00
         -3   -1    0    0    0  501 -0.00000000000E+00  0.00000000000E+00  0.13554184744E+03  0.13554184744E+03  0.00000000000E+00 0.  1.
         21   -1    0    0  501  502  0.00000000000E+00 -0.00000000000E+00 -0.14162651210E+03  0.14162651210E+03  0.00000000000E+00 0. -1.
         24    2    1    2    0    0  0.34270392559E+02 -0.33154812119E+02  0.57806806074E+02  0.11602069316E+03  0.88574674940E+02 0.  0.
         23    2    1    2    0    0 -0.60587562932E+02  0.66945070128E+01 -0.53046211728E+02  0.12228430516E+03  0.91781705708E+02 0.  0.
        -11    1    3    3    0    0 -0.10825371814E+02 -0.50968768998E+02  0.30275765462E+02  0.60262974224E+02  0.00000000000E+00 0.  1.
         12    1    3    3    0    0  0.45095764372E+02  0.17813956879E+02  0.27531040612E+02  0.55757718938E+02  0.00000000000E+00 0. -1.
        -11    1    4    4    0    0  0.61879878874E+01  0.30967420258E+02  0.30944709661E+01  0.31730869230E+02  0.00000000000E+00 0.  1.
         11    1    4    4    0    0 -0.66775550819E+02 -0.24272913245E+02 -0.56140682694E+02  0.90553435926E+02  0.00000000000E+00 0. -1.
         -4    1    1    2    0  502  0.26317170373E+02  0.26460305106E+02 -0.10845258998E+02  0.38863361222E+02  0.00000000000E+00 0.  1.
<scales pt_clust_5="13000.00000" pt_clust_6="13000.00000" pt_clust_7="13000.00000" pt_clust_8="13000.00000" pt_clust_9="37.31945"></scales>
<clustering>
<clus scale="   37.319">  2  9  1 -1</clus>
<clus scale="   88.575">  5  6 -1 -1</clus>
<clus scale="   91.782">  7  8 -1 -1</clus>
<clus scale="  101.084">  1  5  2 -1</clus>
<clus scale="   37.319">  2  5  1 -1</clus>
</clustering>
</event>
<event>
 9    2  0.5615294E-005  0.9376307E+02  0.7546771E-02  0.1301919E+00
          2   -1    0    0  502    0 -0.00000000000E+00  0.00000000000E+00  0.17395730925E+03  0.17395730925E+03  0.00000000000E+00 0. -1.
         21   -1    0    0  501  502  0.00000000000E+00 -0.00000000000E+00 -0.13564149576E+03  0.13564149576E+03  0.00000000000E+00 0. -1.
         24    2    1    2    0    0 -0.72524343017E+01  0.19409388395E+02  0.10473846469E+03  0.13271590565E+03  0.78829204407E+02 0.  0.
         23    2    1    2    0    0  0.37698460823E+02  0.13604843397E+02 -0.44882404577E+01  0.10037949247E+03  0.91921882565E+02 0.  0.
        -11    1    3    3    0    0  0.27329928614E+02 -0.81964412011E+01  0.14041905473E+02  0.31800656530E+02  0.00000000000E+00 0.  1.
         12    1    3    3    0    0 -0.34582362916E+02  0.27605829596E+02  0.90696559214E+02  0.10091524912E+03  0.00000000000E+00 0. -1.
        -13    1    4    4    0    0  0.37150817587E+02 -0.15675217362E+02 -0.38324732162E+02  0.55629855132E+02  0.00000000000E+00 0.  1.
         13    1    4    4    0    0  0.54764323619E+00  0.29280060759E+02  0.33836491705E+02  0.44749637340E+02  0.00000000000E+00 0. -1.
          1    1    1    2  501    0 -0.30446026521E+02 -0.33014231791E+02 -0.61934410737E+02  0.76503406885E+02  0.00000000000E+00 0. -1.
<scales pt_clust_5="13000.00000" pt_clust_6="13000.00000" pt_clust_7="13000.00000" pt_clust_8="13000.00000" pt_clust_9="44.90991"></scales>
<clustering>
<clus scale="   44.910">  2  9  1 -1</clus>
<clus scale="   78.829">  5  6 -1 -1</clus>
<clus scale="   80.969">  1  5  2 -1</clus>
<clus scale="   91.922">  7  8 -1 -1</clus>
<clus scale="   44.910">  2  5  1 -1</clus>
</clustering>
</event>
<event>
 9    2  0.5615294E-005  0.3816186E+03  0.7546771E-02  0.1050337E+00
         -1   -1    0    0    0  501 -0.00000000000E+00  0.00000000000E+00  0.67789431151E+03  0.67789431151E+03  0.00000000000E+00 0.  1.
         21   -1    0    0  501  502  0.00000000000E+00 -0.00000000000E+00 -0.22961425542E+03  0.22961425542E+03  0.00000000000E+00 0.  1.
         24    2    1    2    0    0  0.14530700515E+03 -0.37997894402E+02  0.20944540748E+03  0.26997657074E+03  0.80386592833E+02 0.  0.
         23    2    1    2    0    0  0.18525555924E+03 -0.37651912949E+02  0.21016403980E+03  0.29721375376E+03  0.91813958744E+02 0.  0.
        -11    1    3    3    0    0  0.24918106523E+02 -0.52972372680E+01 -0.82053291404E+00  0.25488154693E+02  0.00000000000E+00 0.  1.
         12    1    3    3    0    0  0.12038889863E+03 -0.32700657134E+02  0.21026594039E+03  0.24448841604E+03  0.00000000000E+00 0. -1.
        -13    1    4    4    0    0  0.75735847926E+02 -0.55782061740E+02  0.12920863426E+03  0.15981998699E+03  0.00000000000E+00 0.  1.
         13    1    4    4    0    0  0.10951971131E+03  0.18130148791E+02  0.80955405539E+02  0.13739376677E+03  0.00000000000E+00 0. -1.
         -2    1    1    2    0  502 -0.33056256439E+03  0.75649807351E+02  0.28670608806E+02  0.34031824244E+03  0.00000000000E+00 0.  1.
<scales pt_clust_5="13000.00000" pt_clust_6="13000.00000" pt_clust_7="13000.00000" pt_clust_8="13000.00000" pt_clust_9="339.10839"></scales>
<clustering>
<clus scale="   80.387">  5  6 -1 -1</clus>
<clus scale="   91.814">  7  8 -1 -1</clus>
<clus scale="   95.972">  5  7 -1 -1</clus>
<clus scale="  339.108">  2  9  1 -1</clus>
<clus scale="  339.108">  2  5  1 -1</clus>
</clustering>
</event>
<event>
 9    2  0.5615294E-005  0.1119393E+03  0.7546771E-02  0.1259994E+00
         21   -1    0    0  501  502  0.00000000000E+00  0.00000000000E+00  0.16174609129E+03  0.16174609129E+03  0.00000000000E+00 0.  1.
          2   -1    0    0  502    0 -0.00000000000E+00 -0.00000000000E+00 -0.87677410516E+03  0.87677410516E+03  0.00000000000E+00 0. -1.
         24    2    1    2    0    0  0.50299937689E+02 -0.43100819947E+02 -0.82471220119E+03  0.83142231366E+03  0.82006612177E+02 0.  0.
         23    2    1    2    0    0 -0.87363650676E+02  0.13287767464E+02  0.92794305865E+02  0.15662209639E+03  0.90059567242E+02 0.  0.
        -11    1    3    3    0    0  0.65153297031E+01 -0.25454800178E+02 -0.63147540423E+02  0.68395966509E+02  0.00000000000E+00 0.  1.
         12    1    3    3    0    0  0.43784607986E+02 -0.17646019769E+02 -0.76156466077E+03  0.76302634715E+03  0.00000000000E+00 0. -1.
        -11    1    4    4    0    0 -0.42549622288E+02  0.79786939815E+01  0.10178406015E+03  0.11060797808E+03  0.00000000000E+00 0.  1.
         11    1    4    4    0    0 -0.44814028388E+02  0.53090734826E+01 -0.89897542821E+01  0.46014118308E+02  0.00000000000E+00 0. -1.
          1    1    1    2  501    0  0.37063712986E+02  0.29813052483E+02  0.16889881456E+02  0.50475786416E+02  0.00000000000E+00 0. -1.
<scales pt_clust_5="13000.00000" pt_clust_6="13000.00000" pt_clust_7="13000.00000" pt_clust_8="13000.00000" pt_clust_9="47.56613"></scales>
<clustering>
<clus scale="   47.566">  1  9  2 -1</clus>
<clus scale="   82.007">  5  6 -1 -1</clus>
<clus scale="   90.060">  7  8 -1 -1</clus>
<clus scale="  105.569">  2  5  1 -1</clus>
<clus scale="   47.566">  1  5  2 -1</clus>
</clustering>
</event>
<event>
 9    2  0.5615294E-005  0.8997792E+02  0.7546771E-02  0.1303394E+00
         21   -1    0    0  501  502  0.00000000000E+00  0.00000000000E+00  0.16787195066E+02  0.16787195066E+02  0.00000000000E+00 0. -1.
          2   -1    0    0  502    0 -0.00000000000E+00 -0.00000000000E+00 -0.99553968242E+03  0.99553968242E+03  0.00000000000E+00 0. -1.
         24    2    1    2    0    0  0.42052914548E+02 -0.33055597801E+01 -0.72699585376E+03  0.73264424565E+03  0.80406746978E+02 0.  0.
         23    2    1    2    0    0 -0.26896361930E+02  0.16369588553E+02 -0.24238495203E+03  0.25758696822E+03  0.81297008033E+02 0.  0.
        -11    1    3    3    0    0  0.28719211221E+02 -0.31784218907E+02 -0.19180448407E+03  0.19652986993E+03  0.00000000000E+00 0.  1.
         12    1    3    3    0    0  0.13333703327E+02  0.28478659126E+02 -0.53519136969E+03  0.53611437572E+03  0.00000000000E+00 0. -1.
        -11    1    4    4    0    0  0.26419229188E+02  0.40124017007E+01 -0.12830729835E+03  0.13106043586E+03  0.00000000000E+00 0. -1.
         11    1    4    4    0    0 -0.53315591118E+02  0.12357186853E+02 -0.11407765367E+03  0.12652653236E+03  0.00000000000E+00 0.  1.
          1    1    1    2  501    0 -0.15156552618E+02 -0.13064028773E+02 -0.93716815735E+01  0.22095663614E+02  0.00000000000E+00 0. -1.
<scales pt_clust_5="13000.00000" pt_clust_6="13000.00000" pt_clust_7="13000.00000" pt_clust_8="13000.00000" pt_clust_9="20.00975"></scales>
<clustering>
<clus scale="   20.010">  1  9  2 -1</clus>
<clus scale="   80.407">  5  6 -1 -1</clus>
<clus scale="   81.297">  7  8 -1 -1</clus>
<clus scale="   89.174">  2  5  1 -1</clus>
<clus scale="   20.010">  1  5  2 -1</clus>
</clustering>
</event>
<event>
 9    2  0.5615294E-005  0.1665946E+03  0.7546771E-02  0.1182929E+00
         21   -1    0    0  501  502  0.00000000000E+00  0.00000000000E+00  0.29178190416E+03  0.29178190416E+03  0.00000000000E+00 0. -1.
          2   -1    0    0  502    0 -0.00000000000E+00 -0.00000000000E+00 -0.33402151803E+03  0.33402151803E+03  0.00000000000E+00 0. -1.
         24    2    1    2    0    0  0.31904589455E+02  0.13918894062E+03 -0.27831183382E+03  0.32285210178E+03  0.79903308804E+02 0.  0.
         23    2    1    2    0    0 -0.17680051163E+02 -0.11655178220E+03  0.14327386163E+03  0.20637847879E+03  0.90375743091E+02 0.  0.
        -11    1    3    3    0    0 -0.16794002101E+02  0.88253183938E+02 -0.12313241777E+03  0.15242130851E+03  0.00000000000E+00 0.  1.
         12    1    3    3    0    0  0.48698591556E+02  0.50935756685E+02 -0.15517941605E+03  0.17043079327E+03  0.00000000000E+00 0. -1.
        -13    1    4    4    0    0  0.20118847515E+02 -0.10405251597E+03  0.85261200042E+02  0.13601899257E+03  0.00000000000E+00 0.  1.
         13    1    4    4    0    0 -0.37798898678E+02 -0.12499266223E+02  0.58012661589E+02  0.70359486226E+02  0.00000000000E+00 0. -1.
          1    1    1    2  501    0 -0.14224538291E+02 -0.22637158425E+02  0.92798358316E+02  0.96572841614E+02  0.00000000000E+00 0. -1.
<scales pt_clust_5="13000.00000" pt_clust_6="13000.00000" pt_clust_7="13000.00000" pt_clust_8="13000.00000" pt_clust_9="26.73534"></scales>
<clustering>
<clus scale="   26.735">  1  9  2 -1</clus>
<clus scale="   79.903">  5  6 -1 -1</clus>
<clus scale="   90.376">  7  8 -1 -1</clus>
<clus scale="  161.154">  2  5  1 -1</clus>
<clus scale="   26.735">  1  5  2 -1</clus>
</clustering>
</event>
<event>
 9    2  0.5615294E-005  0.1039232E+03  0.7546771E-02  0.1277545E+00
          2   -1    0    0  502    0 -0.00000000000E+00  0.00000000000E+00  0.49532113131E+03  0.49532113131E+03  0.00000000000E+00 0. -1.
         21   -1    0    0  501  502  0.00000000000E+00 -0.00000000000E+00 -0.50371539723E+02  0.50371539723E+02  0.00000000000E+00 0. -1.
         24    2    1    2    0    0  0.41645128597E+02  0.28675744609E+02  0.24351192903E+03  0.26122830827E+03  0.79909663962E+02 0.  0.
         23    2    1    2    0    0 -0.23223078171E+02 -0.45624526024E+02  0.22616327385E+03  0.24927929509E+03  0.91484598647E+02 0.  0.
        -11    1    3    3    0    0  0.39950727024E+02  0.39535322445E+02  0.82412057943E+02  0.99753945310E+02  0.00000000000E+00 0.  1.
         12    1    3    3    0    0  0.16944015735E+01 -0.10859577836E+02  0.16109987109E+03  0.16147436296E+03  0.00000000000E+00 0. -1.
        -13    1    4    4    0    0  0.26239283306E+02 -0.48645607391E+02  0.11760017673E+03  0.12994112772E+03  0.00000000000E+00 0. -1.
         13    1    4    4    0    0 -0.49462361477E+02  0.30210813667E+01  0.10856309712E+03  0.11933816737E+03  0.00000000000E+00 0.  1.
          1    1    1    2  501    0 -0.18422050426E+02  0.16948781415E+02 -0.24725611293E+02  0.35185067673E+02  0.00000000000E+00 0. -1.
<scales pt_clust_5="13000.00000" pt_clust_6="13000.00000" pt_clust_7="13000.00000" pt_clust_8="13000.00000" pt_clust_9="25.03264"></scales>
<clustering>
<clus scale="   25.033">  2  9  1 -1</clus>
<clus scale="   79.910">  5  6 -1 -1</clus>
<clus scale="   91.485">  7  8 -1 -1</clus>
<clus scale="   93.894">  1  5  2 -1</clus>
<clus scale="   25.033">  2  5  1 -1</clus>
</clustering>
</event>
<event>
 9    2  0.5615294E-005  0.9626219E+02  0.7546771E-02  0.1294820E+00
         -1   -1    0    0    0  501 -0.00000000000E+00  0.00000000000E+00  0.44307620363E+03  0.44307620363E+03  0.00000000000E+00 0.  1.
         21   -1    0    0  501  502  0.00000000000E+00 -0.00000000000E+00 -0.52563754490E+02  0.52563754490E+02  0.00000000000E+00 0. -1.
         23    2    1    2    0    0 -0.26251372576E+01  0.17008707150E+02  0.11122815709E+03  0.14501253357E+03  0.91437106791E+02 0.  0.
         24    2    1    2    0    0 -0.25030251664E+01 -0.56433719165E+02  0.36149526546E+02  0.10426358017E+03  0.79831548190E+02 0.  0.
        -13    1    4    4    0    0 -0.10343519579E+02  0.19159714320E+02  0.90132485921E+01  0.23565264698E+02  0.00000000000E+00 0.  1.
         14    1    4    4    0    0  0.78404944126E+01 -0.75593433485E+02  0.27136277953E+02  0.80698315471E+02  0.00000000000E+00 0. -1.
        -11    1    3    3    0    0 -0.41161015766E+02  0.16136957783E+02  0.91702091724E+02  0.10180326248E+03  0.00000000000E+00 0.  1.
         11    1    3    3    0    0  0.38535878509E+02  0.87174936751E+00  0.19526065370E+02  0.43209271091E+02  0.00000000000E+00 0. -1.
         -2    1    1    2    0  502  0.51281624240E+01  0.39425012015E+02  0.24313476550E+03  0.24636384438E+03  0.00000000000E+00 0.  1.
<scales pt_clust_5="13000.00000" pt_clust_6="13000.00000" pt_clust_7="13000.00000" pt_clust_8="13000.00000" pt_clust_9="39.75715"></scales>
<clustering>
<clus scale="   39.757">  2  9  1 -1</clus>
<clus scale="   79.832">  5  6 -1 -1</clus>
<clus scale="   85.316">  2  5  1 -1</clus>
<clus scale="   91.437">  7  8 -1 -1</clus>
<clus scale="   39.757">  2  5  1 -1</clus>
</clustering>
</event>
<event>
 9    2  0.5615294E-005  0.1092369E+03  0.7546771E-02  0.1266200E+00
         21   -1    0    0  501  502  0.00000000000E+00  0.00000000000E+00  0.24058073123E+03  0.24058073123E+03  0.00000000000E+00 0.  1.
         -3   -1    0    0    0  501 -0.00000000000E+00 -0.00000000000E+00 -0.22525482500E+03  0.22525482500E+03  0.00000000000E+00 0.  1.
         24    2    1    2    0    0  0.78842564430E+02 -0.13165792889E+01 -0.14433619680E+03  0.18299669753E+03  0.80230731353E+02 0.  0.
         23    2    1    2    0    0 -0.13584595987E+02  0.37646638371E+02 -0.77333140820E+01  0.99536645652E+02  0.90807098028E+02 0.  0.
        -11    1    3    3    0    0  0.66166736156E+02  0.92759362221E+01 -0.15104869981E+03  0.16516594589E+03  0.00000000000E+00 0.  1.
         12    1    3    3    0    0  0.12675828275E+02 -0.10592515511E+02  0.67125030156E+01  0.17830751640E+02  0.00000000000E+00 0. -1.
        -13    1    4    4    0    0  0.28153516794E+02  0.51637372558E+01  0.24434095047E+02  0.37633890193E+02  0.00000000000E+00 0.  1.
         13    1    4    4    0    0 -0.41738112780E+02  0.32482901115E+02 -0.32167409129E+02  0.61902755459E+02  0.00000000000E+00 0. -1.
         -4    1    1    2    0  502 -0.65257968444E+02 -0.36330059082E+02  0.16739541711E+03  0.18330221305E+03  0.00000000000E+00 0.  1.
<scales pt_clust_5="13000.00000" pt_clust_6="13000.00000" pt_clust_7="13000.00000" pt_clust_8="13000.00000" pt_clust_9="74.68919"></scales>
<clustering>
<clus scale="   74.689">  1  9  2 -1</clus>
<clus scale="   80.231">  5  6 -1 -1</clus>
<clus scale="   90.807">  7  8 -1 -1</clus>
<clus scale="  100.617">  2  5  1 -1</clus>
<clus scale="   74.689">  1  5  2 -1</clus>
</clustering>
</event>
<event>
 9    2  0.5615294E-005  0.9700765E+02  0.7546771E-02  0.1294858E+00
         21   -1    0    0  501  502  0.00000000000E+00  0.00000000000E+00  0.15449902366E+03  0.15449902366E+03  0.00000000000E+00 0. -1.
         -3   -1    0    0    0  501 -0.00000000000E+00 -0.00000000000E+00 -0.14734450225E+03  0.14734450225E+03  0.00000000000E+00 0.  1.
         24    2    1    2    0    0  0.21839922313E+02  0.13904222884E+02 -0.50670227252E+02  0.97757959981E+02  0.79491113901E+02 0.  0.
         23    2    1    2    0    0 -0.28781315955E+02  0.50229868564E+02 -0.98070836512E+01  0.11062204698E+03  0.93753157518E+02 0.  0.
        -11    1    3    3    0    0 -0.50375044116E+01  0.20163386999E+02 -0.63870482209E+02  0.67166785866E+02  0.00000000000E+00 0.  1.
         12    1    3    3    0    0  0.26877426724E+02 -0.62591641152E+01  0.13200254957E+02  0.30591174114E+02  0.00000000000E+00 0. -1.
        -11    1    4    4    0    0  0.13106866849E+02  0.36916351478E+02  0.31528327654E+02  0.50285608376E+02  0.00000000000E+00 0.  1.
         11    1    4    4    0    0 -0.41888182804E+02  0.13313517086E+02 -0.41335411305E+02  0.60336438605E+02  0.00000000000E+00 0. -1.
         -4    1    1    2    0  502  0.69413936420E+01 -0.64134091448E+02  0.67631832318E+02  0.93463518949E+02  0.00000000000E+00 0.  1.
<scales pt_clust_5="13000.00000" pt_clust_6="13000.00000" pt_clust_7="13000.00000" pt_clust_8="13000.00000" pt_clust_9="64.50864"></scales>
<clustering>
<clus scale="   64.509">  1  9  2 -1</clus>
<clus scale="   79.491">  5  6 -1 -1</clus>
<clus scale="   83.305">  2  5  1 -1</clus>
<clus scale="   93.753">  7  8 -1 -1</clus>
<clus scale="   64.509">  1  5  2 -1</clus>
</clustering>
</event>
<event>
 9    2  0.5615294E-005  0.2441234E+03  0.7546771E-02  0.1145944E+00
          2   -1    0    0  502    0 -0.00000000000E+00  0.00000000000E+00  0.33388151984E+03  0.33388151984E+03  0.00000000000E+00 0. -1.
         21   -1    0    0  501  502  0.00000000000E+00 -0.00000000000E+00 -0.32300397739E+03  0.32300397739E+03  0.00000000000E+00 0.  1.
         24    2    1    2    0    0  0.85968370171E+02 -0.30752590649E+02 -0.58083357454E+02  0.13364489431E+03  0.78428303956E+02 0.  0.
         23    2    1    2    0    0  0.75600175496E+01 -0.19238557245E+03  0.15703108178E+03  0.26576331057E+03  0.94350486190E+02 0.  0.
        -11    1    3    3    0    0  0.64122554214E+02 -0.53741070856E+02 -0.23889374315E+02  0.87008659689E+02  0.00000000000E+00 0.  1.
         12    1    3    3    0    0  0.21845815958E+02  0.22988480207E+02 -0.34193983139E+02  0.46636234625E+02  0.00000000000E+00 0. -1.
        -13    1    4    4    0    0  0.83750360646E+01 -0.76932893256E+02  0.88181493380E+01  0.77888195842E+02  0.00000000000E+00 0. -1.
         13    1    4    4    0    0 -0.81501851496E+00 -0.11545267920E+03  0.14821293245E+03  0.18787511473E+03  0.00000000000E+00 0.  1.
          1    1    1    2  501    0 -0.93528387721E+02  0.22313816310E+03 -0.88070181878E+02  0.25747729236E+03  0.00000000000E+00 0. -1.
<scales pt_clust_5="13000.00000" pt_clust_6="13000.00000" pt_clust_7="13000.00000" pt_clust_8="13000.00000" pt_clust_9="225.15378"></scales>
<clustering>
<clus scale="   78.428">  5  6 -1 -1</clus>
<clus scale="   94.350">  7  8 -1 -1</clus>
<clus scale="  120.363">  1  5  2 -1</clus>
<clus scale="  225.154">  2  9  1 -1</clus>
<clus scale="  225.154">  2  5  1 -1</clus>
</clustering>
</event>
<event>
 9    2  0.5615294E-005  0.1068565E+03  0.7546771E-02  0.1269581E+00
         21   -1    0    0  501  502  0.00000000000E+00  0.00000000000E+00  0.49953431974E+03  0.49953431974E+03  0.00000000000E+00 0. -1.
          2   -1    0    0  502    0 -0.00000000000E+00 -0.00000000000E+00 -0.46458118191E+02  0.46458118191E+02  0.00000000000E+00 0. -1.
         24    2    1    2    0    0 -0.97042005846E+01  0.40652958969E+02  0.14652046490E+03  0.17445379896E+03  0.84964973707E+02 0.  0.
         23    2    1    2    0    0  0.58207263094E+02 -0.59289424014E+02  0.29244467831E+03  0.31769639840E+03  0.92215998662E+02 0.  0.
        -13    1    3    3    0    0  0.29914893283E+02 -0.68840938017E+01  0.32383166357E+02  0.44620186585E+02  0.00000000000E+00 0.  1.
         14    1    3    3    0    0 -0.39619093868E+02  0.47537052771E+02  0.11413729854E+03  0.12983361238E+03  0.00000000000E+00 0. -1.
        -11    1    4    4    0    0  0.58626096757E+02 -0.81781824221E+02  0.22184161089E+03  0.24359594889E+03  0.00000000000E+00 0. -1.
         11    1    4    4    0    0 -0.41883366309E+00  0.22492400206E+02  0.70603067418E+02  0.74100449510E+02  0.00000000000E+00 0.  1.
          1    1    1    2  501    0 -0.48503062509E+02  0.18636465045E+02  0.14111058350E+02  0.53842240573E+02  0.00000000000E+00 0. -1.
<scales pt_clust_5="13000.00000" pt_clust_6="13000.00000" pt_clust_7="13000.00000" pt_clust_8="13000.00000" pt_clust_9="51.96025"></scales>
<clustering>
<clus scale="   51.960">  1  9  2 -1</clus>
<clus scale="   84.965">  5  6 -1 -1</clus>
<clus scale="   92.216">  7  8 -1 -1</clus>
<clus scale="  100.666">  2  5  1 -1</clus>
<clus scale="   51.960">  1  5  2 -1</clus>
</clustering>
</event>
<event>
 9    2  0.5615294E-005  0.1819157E+03  0.7546771E-02  0.1182352E+00
         -3   -1    0    0    0  501 -0.00000000000E+00  0.00000000000E+00  0.36837866868E+03  0.36837866868E+03  0.00000000000E+00 0.  1.
         21   -1    0    0  501  502  0.00000000000E+00 -0.00000000000E+00 -0.57207904181E+03  0.57207904181E+03  0.00000000000E+00 0.  1.
         24    2    1    2    0    0  0.16984189580E+02 -0.93982307446E+02  0.29360832400E+03  0.31925803417E+03  0.81232429801E+02 0.  0.
         23    2    1    2    0    0 -0.60423166617E+02 -0.11467703305E+03 -0.24496897520E+03  0.29089527070E+03  0.88365596990E+02 0.  0.
        -11    1    3    3    0    0  0.29594583650E+02 -0.88573311521E+02  0.29056465213E+03  0.30520302745E+03  0.00000000000E+00 0.  1.
         12    1    3    3    0    0 -0.12610394070E+02 -0.54089959251E+01  0.30436718696E+01  0.14055006723E+02  0.00000000000E+00 0. -1.
        -11    1    4    4    0    0 -0.39177310929E+02 -0.12544057418E+03 -0.19033317653E+03  0.23129400647E+03  0.00000000000E+00 0.  1.
         11    1    4    4    0    0 -0.21245855687E+02  0.10763541124E+02 -0.54635798665E+02  0.59601264225E+02  0.00000000000E+00 0. -1.
         -4    1    1    2    0  502  0.43438977037E+02  0.20865934050E+03 -0.25233972193E+03  0.33030440561E+03  0.00000000000E+00 0.  1.
<scales pt_clust_5="13000.00000" pt_clust_6="13000.00000" pt_clust_7="13000.00000" pt_clust_8="13000.00000" pt_clust_9="159.01216"></scales>
<clustering>
<clus scale="   81.232">  5  6 -1 -1</clus>
<clus scale="   88.366">  7  8 -1 -1</clus>
<clus scale="  125.379">  1  5  2 -1</clus>
<clus scale="  159.012">  2  9  1 -1</clus>
<clus scale="  159.012">  2  5  1 -1</clus>
</clustering>
</event>
<event>
 9    2  0.5615294E-005  0.1293946E+03  0.7546771E-02  0.1232372E+00
         21   -1    0    0  501  502  0.00000000000E+00  0.00000000000E+00  0.27628665444E+03  0.27628665444E+03  0.00000000000E+00 0. -1.
          2   -1    0    0  502    0 -0.00000000000E+00 -0.00000000000E+00 -0.37214566807E+03  0.37214566807E+03  0.00000000000E+00 0. -1.
         24    2    1    2    0    0 -0.78793839854E+02  0.50525175598E+02 -0.31631980352E+03  0.33886284065E+03  0.77514799251E+02 0.  0.
         23    2    1    2    0    0  0.45709927322E+02 -0.54433390707E+02  0.35998117799E+02  0.12212269793E+03  0.92551052853E+02 0.  0.
        -13    1    3    3    0    0 -0.35405652549E+02 -0.50203714183E+01 -0.39815959390E+02  0.53517053205E+02  0.00000000000E+00 0.  1.
         14    1    3    3    0    0 -0.43388187305E+02  0.55545547016E+02 -0.27650384413E+03  0.28534578744E+03  0.00000000000E+00 0. -1.
        -13    1    4    4    0    0  0.54632186260E+02 -0.75845341537E+02  0.27785230897E+02  0.97515181713E+02  0.00000000000E+00 0.  1.
         13    1    4    4    0    0 -0.89222589386E+01  0.21411950831E+02  0.82128869016E+01  0.24607516213E+02  0.00000000000E+00 0. -1.
          1    1    1    2  501    0  0.33083912533E+02  0.39082151091E+01  0.18446267209E+03  0.18744678394E+03  0.00000000000E+00 0. -1.
<scales pt_clust_5="13000.00000" pt_clust_6="13000.00000" pt_clust_7="13000.00000" pt_clust_8="13000.00000" pt_clust_9="33.31395"></scales>
<clustering>
<clus scale="   33.314">  1  9  2 -1</clus>
<clus scale="   77.515">  5  6 -1 -1</clus>
<clus scale="   92.551">  7  8 -1 -1</clus>
<clus scale="  119.104">  2  5  1 -1</clus>
<clus scale="   33.314">  1  5  2 -1</clus>
</clustering>
</event>
<event>
 9    2  0.5615294E-005  0.9755344E+02  0.7546771E-02  0.1290571E+00
         21   -1    0    0  501  502  0.00000000000E+00  0.00000000000E+00  0.52344519359E+02  0.52344519359E+02  0.00000000000E+00 0. -1.
          2   -1    0    0  502    0 -0.00000000000E+00 -0.00000000000E+00 -0.31710178236E+03  0.31710178236E+03  0.00000000000E+00 0. -1.
         23    2    1    2    0    0 -0.27464655237E+02 -0.25685305835E+02 -0.10635693771E+03  0.14512970542E+03  0.91306029226E+02 0.  0.
         24    2    1    2    0    0 -0.13509280985E+02  0.42734216979E+02 -0.47114854304E+02  0.10450847941E+03  0.81813805669E+02 0.  0.
        -13    1    4    4    0    0  0.25991645286E+02  0.13881619330E+01 -0.38804242200E+02  0.46725387435E+02  0.00000000000E+00 0.  1.
         14    1    4    4    0    0 -0.39500926271E+02  0.41346055046E+02 -0.83106121042E+01  0.57783091971E+02  0.00000000000E+00 0. -1.
        -13    1    3    3    0    0 -0.28288161953E+02  0.27384185473E+02 -0.71524253186E+02  0.81644549815E+02  0.00000000000E+00 0.  1.
         13    1    3    3    0    0  0.82350671661E+00 -0.53069491308E+02 -0.34832684523E+02  0.63485155604E+02  0.00000000000E+00 0. -1.
          1    1    1    2  501    0  0.40973936222E+02 -0.17048911144E+02 -0.11128547098E+03  0.11980811689E+03  0.00000000000E+00 0. -1.
<scales pt_clust_5="13000.00000" pt_clust_6="13000.00000" pt_clust_7="13000.00000" pt_clust_8="13000.00000" pt_clust_9="44.37940"></scales>
<clustering>
<clus scale="   44.379">  1  9  2 -1</clus>
<clus scale="   81.814">  5  6 -1 -1</clus>
<clus scale="   88.732">  1  5  2 -1</clus>
<clus scale="   91.306">  7  8 -1 -1</clus>
<clus scale="   44.379">  1  5  2 -1</clus>
</clustering>
</event>
<event>
 9    2  0.5615294E-005  0.9166314E+02  0.7546771E-02  0.1315288E+00
         -1   -1    0    0    0  501 -0.00000000000E+00  0.00000000000E+00  0.47809384110E+03  0.47809384110E+03  0.00000000000E+00 0.  1.
         21   -1    0    0  501  502  0.00000000000E+00 -0.00000000000E+00 -0.60919333997E+02  0.60919333997E+02  0.00000000000E+00 0.  1.
         24    2    1    2    0    0  0.54476427565E+01  0.83533713532E+00  0.15337522084E+03  0.16782741872E+03  0.67909568595E+02 0.  0.
         23    2    1    2    0    0  0.23103082755E+02  0.18298539100E+02 -0.85915472420E+01  0.96635186673E+02  0.91629447523E+02 0.  0.
        -13    1    3    3    0    0  0.30769907718E+02 -0.21608471035E+01  0.12869773041E+03  0.13234259441E+03  0.00000000000E+00 0.  1.
         14    1    3    3    0    0 -0.25322264961E+02  0.29961842388E+01  0.24677490430E+02  0.35484824315E+02  0.00000000000E+00 0. -1.
        -13    1    4    4    0    0  0.25269907443E+02 -0.25646430545E+01  0.37903953763E+02  0.45627352838E+02  0.00000000000E+00 0. -1.
         13    1    4    4    0    0 -0.21668246875E+01  0.20863182154E+02 -0.46495501005E+02  0.51007833835E+02  0.00000000000E+00 0.  1.
         -2    1    1    2    0  502 -0.28550725512E+02 -0.19133876235E+02  0.27239083351E+03  0.27455056970E+03  0.00000000000E+00 0.  1.
<scales pt_clust_5="13000.00000" pt_clust_6="13000.00000" pt_clust_7="13000.00000" pt_clust_8="13000.00000" pt_clust_9="34.36932"></scales>
<clustering>
<clus scale="   34.369">  2  9  1 -1</clus>
<clus scale="   67.910">  5  6 -1 -1</clus>
<clus scale="   67.955">  1  5  2 -1</clus>
<clus scale="   91.629">  7  8 -1 -1</clus>
<clus scale="   34.369">  2  5  1 -1</clus>
</clustering>
</event>
<event>
 9    2  0.5615294E-005  0.1051524E+03  0.7546771E-02  0.1276707E+00
         21   -1    0    0  501  502  0.00000000000E+00  0.00000000000E+00  0.19128215213E+02  0.19128215213E+02  0.00000000000E+00 0. -1.
          2   -1    0    0  502    0 -0.00000000000E+00 -0.00000000000E+00 -0.73785472743E+03  0.73785472743E+03  0.00000000000E+00 0. -1.
         24    2    1    2    0    0 -0.35401676937E+02 -0.20864195322E+02 -0.38705600453E+03  0.39778003033E+03  0.82024438493E+02 0.  0.
         23    2    1    2    0    0  0.49364043800E+02 -0.40349458262E+01 -0.24405854496E+03  0.26705753298E+03  0.96447202906E+02 0.  0.
        -13    1    3    3    0    0  0.25166006514E+02 -0.17943655061E+02 -0.14324009796E+03  0.14653678140E+03  0.00000000000E+00 0.  1.
         14    1    3    3    0    0 -0.60567683451E+02 -0.29205402608E+01 -0.24381590657E+03  0.25124324893E+03  0.00000000000E+00 0. -1.
        -13    1    4    4    0    0  0.62482643866E+02  0.30379205121E+02 -0.13302919184E+03  0.15007912170E+03  0.00000000000E+00 0. -1.
         13    1    4    4    0    0 -0.13118600066E+02 -0.34414150947E+02 -0.11102935312E+03  0.11697841129E+03  0.00000000000E+00 0.  1.
          1    1    1    2  501    0 -0.13962366863E+02  0.24899141148E+02 -0.87611962726E+02  0.92145379325E+02  0.00000000000E+00 0. -1.
<scales pt_clust_5="13000.00000" pt_clust_6="13000.00000" pt_clust_7="13000.00000" pt_clust_8="13000.00000" pt_clust_9="28.54673"></scales>
<clustering>
<clus scale="   28.547">  1  9  2 -1</clus>
<clus scale="   82.024">  5  6 -1 -1</clus>
<clus scale="   92.103">  2  5  1 -1</clus>
<clus scale="   96.447">  7  8 -1 -1</clus>
<clus scale="   28.547">  1  5  2 -1</clus>
</clustering>
</event>
<event>
 9    2  0.5615294E-005  0.1899624E+03  0.7546771E-02  0.1181948E+00
         -1   -1    0    0    0  501 -0.00000000000E+00  0.00000000000E+00  0.27014941215E+03  0.27014941215E+03  0.00000000000E+00 0.  1.
         21   -1    0    0  501  502  0.00000000000E+00 -0.00000000000E+00 -0.38818272809E+03  0.38818272809E+03  0.00000000000E+00 0. -1.
         24    2    1    2    0    0  0.35573909169E+02 -0.68878054103E+02  0.10543998821E+03  0.15317654069E+03  0.79597563740E+02 0.  0.
         23    2    1    2    0    0  0.15695289911E+03 -0.43589985799E+00 -0.23807578503E+03  0.30001119049E+03  0.93232142824E+02 0.  0.
        -13    1    3    3    0    0  0.55590983798E+02 -0.62531298469E+02  0.59510810243E+02  0.10267452120E+03  0.00000000000E+00 0.  1.
         14    1    3    3    0    0 -0.20017074629E+02 -0.63467556337E+01  0.45929177971E+02  0.50502019492E+02  0.00000000000E+00 0. -1.
        -11    1    4    4    0    0  0.95476724191E+02  0.42032135014E+02 -0.10904800217E+03  0.15091047682E+03  0.00000000000E+00 0.  1.
         11    1    4    4    0    0  0.61476174918E+02 -0.42468034872E+02 -0.12902778286E+03  0.14910071367E+03  0.00000000000E+00 0. -1.
         -2    1    1    2    0  502 -0.19252680828E+03  0.69313953961E+02  0.14602480870E+02  0.20514440906E+03  0.00000000000E+00 0.  1.
<scales pt_clust_5="13000.00000" pt_clust_6="13000.00000" pt_clust_7="13000.00000" pt_clust_8="13000.00000" pt_clust_9="165.50985"></scales>
<clustering>
<clus scale="   79.598">  5  6 -1 -1</clus>
<clus scale="   93.232">  7  8 -1 -1</clus>
<clus scale="  111.110">  1  5  2 -1</clus>
<clus scale="  165.510">  2  9  1 -1</clus>
<clus scale="  165.510">  2  5  1 -1</clus>
</clustering>
</event>
<event>
 9    2  0.5615294E-005  0.9128474E+02  0.7546771E-02  0.1306431E+00
          2   -1    0    0  502    0 -0.00000000000E+00  0.00000000000E+00  0.14623767436E+03  0.14623767436E+03  0.00000000000E+00 0. -1.
         21   -1    0    0  501  502  0.00000000000E+00 -0.00000000000E+00 -0.16972152578E+03  0.16972152578E+03  0.00000000000E+00 0.  1.
         23    2    1    2    0    0  0.12876541752E+02  0.24068181454E+01  0.88399886388E+02  0.12768934158E+03  0.91205427127E+02 0.  0.
         24    2    1    2    0    0  0.18806307529E+02  0.28530177415E+01 -0.12521022024E+02  0.83845636747E+02  0.80693852900E+02 0.  0.
        -11    1    4    4    0    0  0.50365634491E+02  0.27566727120E+01 -0.13685761876E+02  0.52264676984E+02  0.00000000000E+00 0.  1.
         12    1    4    4    0    0 -0.31559326962E+02  0.96345029553E-01  0.11647398521E+01  0.31580959763E+02  0.00000000000E+00 0. -1.
        -11    1    3    3    0    0  0.18993157586E+02  0.44990323369E+02  0.41966997827E+02  0.64390202193E+02  0.00000000000E+00 0.  1.
         11    1    3    3    0    0 -0.61166158338E+01 -0.42583505223E+02  0.46432888561E+02  0.63299139382E+02  0.00000000000E+00 0. -1.
          1    1    1    2  501    0 -0.31682849282E+02 -0.52598358869E+01 -0.99362715786E+02  0.10442422181E+03  0.00000000000E+00 0. -1.
<scales pt_clust_5="13000.00000" pt_clust_6="13000.00000" pt_clust_7="13000.00000" pt_clust_8="13000.00000" pt_clust_9="32.11649"></scales>
<clustering>
<clus scale="   32.116">  2  9  1 -1</clus>
<clus scale="   80.694">  5  6 -1 -1</clus>
<clus scale="   80.783">  2  5  1 -1</clus>
<clus scale="   91.205">  7  8 -1 -1</clus>
<clus scale="   32.116">  2  5  1 -1</clus>
</clustering>
</event>
<event>
 9    2  0.5615294E-005  0.2319187E+03  0.7546771E-02  0.1126048E+00
         21   -1    0    0  501  502  0.00000000000E+00  0.00000000000E+00  0.10354982454E+03  0.10354982454E+03  0.00000000000E+00 0. -1.
          2   -1    0    0  502    0 -0.00000000000E+00 -0.00000000000E+00 -0.67206016160E+03  0.67206016160E+03  0.00000000000E+00 0. -1.
         24    2    1    2    0    0 -0.26559292411E+01 -0.18975591581E+03 -0.21204643306E+03  0.29556164257E+03  0.79866346100E+02 0.  0.
         23    2    1    2    0    0  0.15647683188E+02  0.24349227537E+03 -0.25531998256E+03  0.36478137148E+03  0.91344498084E+02 0.  0.
        -13    1    3    3    0    0  0.24624683870E+02 -0.19606777163E+02 -0.18892150210E+02  0.36711225885E+02  0.00000000000E+00 0.  1.
         14    1    3    3    0    0 -0.27280613111E+02 -0.17014913865E+03 -0.19315428285E+03  0.25885041669E+03  0.00000000000E+00 0. -1.
        -11    1    4    4    0    0 -0.26118424440E+02  0.19277126935E+03 -0.18316230204E+03  0.26719162276E+03  0.00000000000E+00 0. -1.
         11    1    4    4    0    0  0.41766107628E+02  0.50721006019E+02 -0.72157680512E+02  0.97589748718E+02  0.00000000000E+00 0.  1.
          1    1    1    2  501    0 -0.12991753947E+02 -0.53736359559E+02 -0.10114392144E+03  0.11526697209E+03  0.00000000000E+00 0. -1.
<scales pt_clust_5="13000.00000" pt_clust_6="13000.00000" pt_clust_7="13000.00000" pt_clust_8="13000.00000" pt_clust_9="55.28458"></scales>
<clustering>
<clus scale="   55.285">  1  9  2 -1</clus>
<clus scale="   79.866">  5  6 -1 -1</clus>
<clus scale="   91.344">  7  8 -1 -1</clus>
<clus scale="  227.643">  2  5  1 -1</clus>
<clus scale="   55.285">  1  5  2 -1</clus>
</clustering>
</event>
<event>
 9    2  0.5615294E-005  0.1443964E+03  0.7546771E-02  0.1209423E+00
         21   -1    0    0  501  502  0.00000000000E+00  0.00000000000E+00  0.75855807914E+02  0.75855807914E+02  0.00000000000E+00 0.  1.
         -3   -1    0    0    0  501 -0.00000000000E+00 -0.00000000000E+00 -0.10494975276E+04  0.10494975276E+04  0.00000000000E+00 0.  1.
         24    2    1    2    0    0  0.90850312267E+02 -0.54585233795E+02 -0.59223441617E+03  0.60703195525E+03  0.80702317283E+02 0.  0.
         23    2    1    2    0    0 -0.52679393029E+02  0.14432424302E+03 -0.38122877760E+03  0.42080142983E+03  0.90187897770E+02 0.  0.
        -13    1    3    3    0    0  0.94347646858E+02 -0.69395518175E+02 -0.54353282953E+03  0.55600823122E+03  0.00000000000E+00 0.  1.
         14    1    3    3    0    0 -0.34973345914E+01  0.14810284381E+02 -0.48701586644E+02  0.51023724034E+02  0.00000000000E+00 0. -1.
        -11    1    4    4    0    0 -0.27034623937E+02 -0.41953092523E+01 -0.63157702467E+02  0.68828532543E+02  0.00000000000E+00 0. -1.
         11    1    4    4    0    0 -0.25644769092E+02  0.14851955227E+03 -0.31807107513E+03  0.35197289729E+03  0.00000000000E+00 0.  1.
         -4    1    1    2    0  502 -0.38170919237E+02 -0.89739009222E+02 -0.17852586903E+00  0.97519950385E+02  0.00000000000E+00 0.  1.
<scales pt_clust_5="13000.00000" pt_clust_6="13000.00000" pt_clust_7="13000.00000" pt_clust_8="13000.00000" pt_clust_9="97.51979"></scales>
<clustering>
<clus scale="   80.702">  5  6 -1 -1</clus>
<clus scale="   90.188">  7  8 -1 -1</clus>
<clus scale="   97.520">  1  9  2 -1</clus>
<clus scale="  138.670">  2  5  1 -1</clus>
<clus scale="   97.520">  1  5  2 -1</clus>
</clustering>
</event>
<event>
 9    2  0.5615294E-005  0.1599427E+03  0.7546771E-02  0.1190969E+00
         21   -1    0    0  501  502  0.00000000000E+00  0.00000000000E+00  0.14158896445E+04  0.14158896445E+04  0.00000000000E+00 0.  1.
          4   -1    0    0  502    0 -0.00000000000E+00 -0.00000000000E+00 -0.48877292512E+02  0.48877292512E+02  0.00000000000E+00 0. -1.
         23    2    1    2    0    0 -0.12076533438E+03  0.32491573428E+02  0.13885188408E+03  0.20843011731E+03  0.92321718768E+02 0.  0.
         24    2    1    2    0    0  0.15336239742E+03 -0.71520952473E+02  0.11348297175E+04  0.11500518729E+04  0.78393565083E+02 0.  0.
        -11    1    4    4    0    0  0.11762725512E+03 -0.85737048759E+02  0.81242105026E+03  0.82535748351E+03  0.00000000000E+00 0.  1.
         12    1    4    4    0    0  0.35735142295E+02  0.14216096286E+02  0.32240866724E+03  0.32469438939E+03  0.00000000000E+00 0. -1.
        -11    1    3    3    0    0 -0.19833559502E+02  0.46246544971E+02  0.66919419327E+02  0.83727663812E+02  0.00000000000E+00 0.  1.
         11    1    3    3    0    0 -0.10093177488E+03 -0.13754971544E+02  0.71932464751E+02  0.12470245349E+03  0.00000000000E+00 0. -1.
          3    1    1    2  501    0 -0.32597063038E+02  0.39029379045E+02  0.93330750449E+02  0.10628494685E+03  0.00000000000E+00 0. -1.
<scales pt_clust_5="13000.00000" pt_clust_6="13000.00000" pt_clust_7="13000.00000" pt_clust_8="13000.00000" pt_clust_9="50.85139"></scales>
<clustering>
<clus scale="   50.851">  1  9  2 -1</clus>
<clus scale="   78.394">  5  6 -1 -1</clus>
<clus scale="   92.322">  7  8 -1 -1</clus>
<clus scale="  152.328">  1  5  2 -1</clus>
<clus scale="   50.851">  1  5  2 -1</clus>
</clustering>
</event>
<event>
 9    2  0.5615294E-005  0.1431318E+03  0.7546771E-02  0.1211187E+00
         21   -1    0    0  501  502  0.00000000000E+00  0.00000000000E+00  0.12201322371E+03  0.12201322371E+03  0.00000000000E+00 0. -1.
          2   -1    0    0  502    0 -0.00000000000E+00 -0.00000000000E+00 -0.31858523723E+03  0.31858523723E+03  0.00000000000E+00 0. -1.
         23    2    1    2    0    0  0.11427026558E+03 -0.88555267233E+02 -0.16664478353E+03  0.23851264654E+03  0.90653569866E+02 0.  0.
         24    2    1    2    0    0 -0.75847315258E+02  0.23421480658E+02 -0.50024565732E+02  0.12383853861E+03  0.80821689414E+02 0.  0.
        -13    1    4    4    0    0 -0.20940382570E+02 -0.31300363544E+01 -0.58545397063E+02  0.62256407438E+02  0.00000000000E+00 0.  1.
         14    1    4    4    0    0 -0.54906932688E+02  0.26551517012E+02  0.85208313310E+01  0.61582131170E+02  0.00000000000E+00 0. -1.
        -11    1    3    3    0    0  0.14845239768E+02 -0.61295071811E+02 -0.90673700781E+02  0.11044992977E+03  0.00000000000E+00 0.  1.
         11    1    3    3    0    0  0.99425025815E+02 -0.27260195422E+02 -0.75971082751E+02  0.12806271677E+03  0.00000000000E+00 0. -1.
          1    1    1    2  501    0 -0.38422950325E+02  0.65133786575E+02  0.20097335744E+02  0.78247275795E+02  0.00000000000E+00 0. -1.
<scales pt_clust_5="13000.00000" pt_clust_6="13000.00000" pt_clust_7="13000.00000" pt_clust_8="13000.00000" pt_clust_9="75.62231"></scales>
<clustering>
<clus scale="   75.622">  1  9  2 -1</clus>
<clus scale="   80.822">  5  6 -1 -1</clus>
<clus scale="   90.654">  7  8 -1 -1</clus>
<clus scale="  137.116">  1  5  2 -1</clus>
<clus scale="   75.622">  1  5  2 -1</clus>
</clustering>
</event>
<event>
 9    2  0.5615294E-005  0.9689603E+02  0.7546771E-02  0.1294406E+00
          2   -1    0    0  502    0 -0.00000000000E+00  0.00000000000E+00  0.78945592760E+02  0.78945592760E+02  0.00000000000E+00 0. -1.
         21   -1    0    0  501  502  0.00000000000E+00 -0.00000000000E+00 -0.30994733206E+03  0.30994733206E+03  0.00000000000E+00 0. -1.
         23    2    1    2    0    0  0.11433837157E+02  0.16138673263E+01 -0.95774551779E+02  0.13426177023E+03  0.93381587994E+02 0.  0.
         24    2    1    2    0    0  0.63681861755E+02  0.36646800660E+02 -0.13092131837E+03  0.17022269858E+03  0.80230966551E+02 0.  0.
        -13    1    4    4    0    0 -0.12301917200E+02  0.25560841824E+02 -0.17761076941E+02  0.33468636896E+02  0.00000000000E+00 0.  1.
         14    1    4    4    0    0  0.75983778955E+02  0.11085958836E+02 -0.11316024143E+03  0.13675406168E+03  0.00000000000E+00 0. -1.
        -13    1    3    3    0    0  0.89844510350E+01  0.47030426575E+02 -0.57437960367E+02  0.74777674979E+02  0.00000000000E+00 0.  1.
         13    1    3    3    0    0  0.24493861224E+01 -0.45416559249E+02 -0.38336591412E+02  0.59484095248E+02  0.00000000000E+00 0. -1.
          1    1    1    2  501    0 -0.75115698912E+02 -0.38260667987E+02 -0.43058691580E+01  0.84408456016E+02  0.00000000000E+00 0. -1.
<scales pt_clust_5="13000.00000" pt_clust_6="13000.00000" pt_clust_7="13000.00000" pt_clust_8="13000.00000" pt_clust_9="84.29860"></scales>
<clustering>
<clus scale="   80.231">  5  6 -1 -1</clus>
<clus scale="   84.299">  2  9  1 -1</clus>
<clus scale="   84.299">  2  5  1 -1</clus>
<clus scale="   93.382">  7  8 -1 -1</clus>
<clus scale="   84.299">  2  5  1 -1</clus>
</clustering>
</event>
<event>
 9    2  0.5615294E-005  0.9390137E+02  0.7546771E-02  0.1304020E+00
         21   -1    0    0  501  502  0.00000000000E+00  0.00000000000E+00  0.14348498205E+03  0.14348498205E+03  0.00000000000E+00 0.  1.
          2   -1    0    0  502    0 -0.00000000000E+00 -0.00000000000E+00 -0.45439499477E+03  0.45439499477E+03  0.00000000000E+00 0. -1.
         24    2    1    2    0    0  0.20962197286E+02 -0.11121852722E+02 -0.41567714595E+03  0.42281184198E+03  0.73615587513E+02 0.  0.
         23    2    1    2    0    0 -0.27707639841E+02  0.30087508262E+02  0.39938981418E+02  0.10718672094E+03  0.90669175857E+02 0.  0.
        -13    1    3    3    0    0 -0.21385940907E+02 -0.21694190731E+02 -0.11427712896E+03  0.11826774110E+03  0.00000000000E+00 0.  1.
         14    1    3    3    0    0  0.42348138193E+02  0.10572338009E+02 -0.30140001699E+03  0.30454410088E+03  0.00000000000E+00 0. -1.
        -13    1    4    4    0    0 -0.25227135417E+02 -0.30004745307E+02  0.18383703056E+02  0.43297270588E+02  0.00000000000E+00 0.  1.
         13    1    4    4    0    0 -0.24805044244E+01  0.60092253570E+02  0.21555278362E+02  0.63889450354E+02  0.00000000000E+00 0. -1.
          1    1    1    2  501    0  0.67454425554E+01 -0.18965655540E+02  0.64828151821E+02  0.67881413906E+02  0.00000000000E+00 0. -1.
<scales pt_clust_5="13000.00000" pt_clust_6="13000.00000" pt_clust_7="13000.00000" pt_clust_8="13000.00000" pt_clust_9="20.12951"></scales>
<clustering>
<clus scale="   20.130">  1  9  2 -1</clus>
<clus scale="   73.616">  5  6 -1 -1</clus>
<clus scale="   77.562">  2  5  1 -1</clus>
<clus scale="   90.669">  7  8 -1 -1</clus>
<clus scale="   20.130">  1  5  2 -1</clus>
</clustering>
</event>
<event>
 9    2  0.5615294E-005  0.9498586E+02  0.7546771E-02  0.1297570E+00
          4   -1    0    0  502    0 -0.00000000000E+00  0.00000000000E+00  0.23986781120E+03  0.23986781120E+03  0.00000000000E+00 0. -1.
         21   -1    0    0  501  502  0.00000000000E+00 -0.00000000000E+00 -0.81834522273E+02  0.81834522273E+02  0.00000000000E+00 0.  1.
         24    2    1    2    0    0 -0.15126412973E+02  0.68448208994E+01  0.12012712248E+03  0.14570271926E+03  0.80765691355E+02 0.  0.
         23    2    1    2    0    0  0.39896684483E+02 -0.46521318712E+01  0.79256574257E+02  0.12774787371E+03  0.91785221631E+02 0.  0.
        -13    1    3    3    0    0  0.18128726346E+02  0.18062797992E+02  0.59782576368E+01  0.26280314964E+02  0.00000000000E+00 0.  1.
         14    1    3    3    0    0 -0.33255139319E+02 -0.11217977093E+02  0.11414886485E+03  0.11942240429E+03  0.00000000000E+00 0. -1.
        -11    1    4    4    0    0 -0.22063100787E+02  0.48055410319E+01  0.56876176094E+02  0.61194550803E+02  0.00000000000E+00 0. -1.
         11    1    4    4    0    0  0.61959785270E+02 -0.94576729031E+01  0.22380398163E+02  0.66553322903E+02  0.00000000000E+00 0.  1.
          3    1    1    2  501    0 -0.24770271509E+02 -0.21926890282E+01 -0.41350407815E+02  0.48251740510E+02  0.00000000000E+00 0. -1.
<scales pt_clust_5="13000.00000" pt_clust_6="13000.00000" pt_clust_7="13000.00000" pt_clust_8="13000.00000" pt_clust_9="24.86713"></scales>
<clustering>
<clus scale="   24.867">  2  9  1 -1</clus>
<clus scale="   80.766">  5  6 -1 -1</clus>
<clus scale="   84.385">  1  5  2 -1</clus>
<clus scale="   91.785">  7  8 -1 -1</clus>
<clus scale="   24.867">  2  5  1 -1</clus>
</clustering>
</event>
<event>
 9    2  0.5615294E-005  0.9080444E+02  0.7546771E-02  0.1306130E+00
         21   -1    0    0  501  502  0.00000000000E+00  0.00000000000E+00  0.34383775652E+02  0.34383775652E+02  0.00000000000E+00 0. -1.
          2   -1    0    0  502    0 -0.00000000000E+00 -0.00000000000E+00 -0.44594057497E+03  0.44594057497E+03  0.00000000000E+00 0. -1.
         23    2    1    2    0    0 -0.22542826925E+02  0.35988482471E+02 -0.18430570174E+03  0.20953111568E+03  0.90173980882E+02 0.  0.
         24    2    1    2    0    0 -0.15696986969E+02  0.13333831197E+02 -0.14120120615E+03  0.16449385673E+03  0.81830690034E+02 0.  0.
        -11    1    4    4    0    0 -0.43776624742E+02 -0.34276258233E+01 -0.11328348412E+03  0.12149604630E+03  0.00000000000E+00 0.  1.
         12    1    4    4    0    0  0.28079637773E+02  0.16761457020E+02 -0.27917722034E+02  0.42997810438E+02  0.00000000000E+00 0. -1.
        -11    1    3    3    0    0  0.11142704216E+02  0.43432235933E+02 -0.16283843960E+03  0.16889901240E+03  0.00000000000E+00 0.  1.
         11    1    3    3    0    0 -0.33685531141E+02 -0.74437534625E+01 -0.21467262139E+02  0.40632103288E+02  0.00000000000E+00 0. -1.
          1    1    1    2  501    0  0.38239813894E+02 -0.49322313667E+02 -0.86049891429E+02  0.10629937821E+03  0.00000000000E+00 0. -1.
<scales pt_clust_5="13000.00000" pt_clust_6="13000.00000" pt_clust_7="13000.00000" pt_clust_8="13000.00000" pt_clust_9="62.40973"></scales>
<clustering>
<clus scale="   62.410">  1  9  2 -1</clus>
<clus scale="   81.831">  5  6 -1 -1</clus>
<clus scale="   82.525">  1  5  2 -1</clus>
<clus scale="   90.174">  7  8 -1 -1</clus>
<clus scale="   62.410">  1  5  2 -1</clus>
</clustering>
</event>
<event>
 9    2  0.5615294E-005  0.8959769E+02  0.7546771E-02  0.1306652E+00
         21   -1    0    0  501  502  0.00000000000E+00  0.00000000000E+00  0.84938770781E+02  0.84938770781E+02  0.00000000000E+00 0.  1.
          2   -1    0    0  502    0 -0.00000000000E+00 -0.00000000000E+00 -0.59160924211E+03  0.59160924211E+03  0.00000000000E+00 0. -1.
         24    2    1    2    0    0 -0.28185179901E+02  0.14484242230E+02 -0.52930474344E+03  0.53622360997E+03  0.79800067851E+02 0.  0.
         23    2    1    2    0    0 -0.34987250944E+01  0.17162337726E+02  0.36008712723E+02  0.93588426197E+02  0.84589474596E+02 0.  0.
        -13    1    3    3    0    0  0.14611208150E+02  0.24101135093E+02 -0.80710647717E+02  0.85490120899E+02  0.00000000000E+00 0.  1.
         14    1    3    3    0    0 -0.42796388051E+02 -0.96168928631E+01 -0.44859409572E+03  0.45073348907E+03  0.00000000000E+00 0. -1.
        -13    1    4    4    0    0  0.32941456361E+01 -0.21663355621E+02  0.47686001333E+02  0.52479587416E+02  0.00000000000E+00 0.  1.
         13    1    4    4    0    0 -0.67928707305E+01  0.38825693347E+02 -0.11677288609E+02  0.41108838781E+02  0.00000000000E+00 0. -1.
          1    1    1    2  501    0  0.31683904996E+02 -0.31646579956E+02 -0.13374440621E+02  0.46735976727E+02  0.00000000000E+00 0. -1.
<scales pt_clust_5="13000.00000" pt_clust_6="13000.00000" pt_clust_7="13000.00000" pt_clust_8="13000.00000" pt_clust_9="44.78142"></scales>
<clustering>
<clus scale="   44.781">  1  9  2 -1</clus>
<clus scale="   79.800">  5  6 -1 -1</clus>
<clus scale="   84.589">  7  8 -1 -1</clus>
<clus scale="   85.091">  2  5  1 -1</clus>
<clus scale="   44.781">  1  5  2 -1</clus>
</clustering>
</event>
<event>
 9    2  0.5615294E-005  0.1950109E+03  0.7546771E-02  0.1155159E+00
         21   -1    0    0  501  502  0.00000000000E+00  0.00000000000E+00  0.11474956990E+03  0.11474956990E+03  0.00000000000E+00 0. -1.
          2   -1    0    0  502    0 -0.00000000000E+00 -0.00000000000E+00 -0.10379214961E+04  0.10379214961E+04  0.00000000000E+00 0. -1.
         24    2    1    2    0    0 -0.15158825461E+03 -0.18829365146E+01 -0.84517939737E+02  0.19160777484E+03  0.81164726683E+02 0.  0.
         23    2    1    2    0    0  0.18070319113E+03 -0.95170319489E+02 -0.16144222481E+03  0.27631312931E+03  0.92597626754E+02 0.  0.
        -13    1    3    3    0    0 -0.56913623982E+02  0.38099865429E+02 -0.25407680566E+02  0.73050055251E+02  0.00000000000E+00 0.  1.
         14    1    3    3    0    0 -0.94674630627E+02 -0.39982801943E+02 -0.59110259171E+02  0.11855771959E+03  0.00000000000E+00 0. -1.
        -11    1    4    4    0    0  0.56353812964E+02 -0.78432223559E+02 -0.89544145145E+02  0.13170239124E+03  0.00000000000E+00 0.  1.
         11    1    4    4    0    0  0.12434937817E+03 -0.16738095930E+02 -0.71898079663E+02  0.14461073807E+03  0.00000000000E+00 0. -1.
          1    1    1    2  501    0 -0.29114936523E+02  0.97053256003E+02 -0.67721176170E+03  0.68475016190E+03  0.00000000000E+00 0. -1.
<scales pt_clust_5="13000.00000" pt_clust_6="13000.00000" pt_clust_7="13000.00000" pt_clust_8="13000.00000" pt_clust_9="101.32633"></scales>
<clustering>
<clus scale="   81.165">  5  6 -1 -1</clus>
<clus scale="   92.598">  7  8 -1 -1</clus>
<clus scale="  101.326">  1  9  2 -1</clus>
<clus scale="  189.849">  2  5  1 -1</clus>
<clus scale="  101.326">  1  5  2 -1</clus>
</clustering>
</event>
<event>
 9    2  0.5615294E-005  0.1067852E+03  0.7546771E-02  0.1268166E+00
         21   -1    0    0  501  502  0.00000000000E+00  0.00000000000E+00  0.29516230472E+03  0.29516230472E+03  0.00000000000E+00 0. -1.
          2   -1    0    0  502    0 -0.00000000000E+00 -0.00000000000E+00 -0.13659309601E+03  0.13659309601E+03  0.00000000000E+00 0. -1.
         24    2    1    2    0    0  0.28788351453E+02  0.44290072284E+02 -0.58054731497E+02  0.11440249427E+03  0.83229797328E+02 0.  0.
         23    2    1    2    0    0 -0.10585748346E+03 -0.51589560857E+02  0.99878430593E+02  0.17727275921E+03  0.87078359336E+02 0.  0.
        -13    1    3    3    0    0 -0.12944240185E+02  0.52512042738E+02 -0.21091509548E+02  0.58051009995E+02  0.00000000000E+00 0.  1.
         14    1    3    3    0    0  0.41732591638E+02 -0.82219704534E+01 -0.36963221949E+02  0.56351484273E+02  0.00000000000E+00 0. -1.
        -13    1    4    4    0    0 -0.98424183744E+02 -0.70705763461E+02  0.99429479017E+02  0.15675728446E+03  0.00000000000E+00 0. -1.
         13    1    4    4    0    0 -0.74332997172E+01  0.19116202604E+02  0.44895157522E+00  0.20515474750E+02  0.00000000000E+00 0.  1.
          1    1    1    2  501    0  0.77069132008E+02  0.72994885724E+01  0.11674550961E+03  0.14008014726E+03  0.00000000000E+00 0. -1.
<scales pt_clust_5="13000.00000" pt_clust_6="13000.00000" pt_clust_7="13000.00000" pt_clust_8="13000.00000" pt_clust_9="77.41404"></scales>
<clustering>
<clus scale="   77.414">  1  9  2 -1</clus>
<clus scale="   83.230">  5  6 -1 -1</clus>
<clus scale="   87.078">  7  8 -1 -1</clus>
<clus scale="  103.671">  2  5  1 -1</clus>
<clus scale="   77.414">  1  5  2 -1</clus>
</clustering>
</event>
<event>
 9    2  0.5615294E-005  0.1050979E+03  0.7546771E-02  0.1274423E+00
          4   -1    0    0  502    0 -0.00000000000E+00  0.00000000000E+00  0.20149397457E+03  0.20149397457E+03  0.00000000000E+00 0. -1.
         21   -1    0    0  501  502  0.00000000000E+00 -0.00000000000E+00 -0.13771480369E+03  0.13771480369E+03  0.00000000000E+00 0. -1.
         24    2    1    2    0    0 -0.10293178069E+02  0.54017625376E+02  0.11774055277E+03  0.15335322622E+03  0.81428010287E+02 0.  0.
         23    2    1    2    0    0  0.32314693084E+02 -0.23334025035E+02 -0.89411258734E+02  0.13405666960E+03  0.91586578501E+02 0.  0.
        -13    1    3    3    0    0 -0.21928615832E+02 -0.15910646292E+02  0.37828053264E+02  0.46529286170E+02  0.00000000000E+00 0.  1.
         14    1    3    3    0    0  0.11635437762E+02  0.69928271668E+02  0.79912499505E+02  0.10682394005E+03  0.00000000000E+00 0. -1.
        -11    1    4    4    0    0 -0.26493894278E+02  0.97475136521E+01 -0.45518495333E+02  0.53561869588E+02  0.00000000000E+00 0. -1.
         11    1    4    4    0    0  0.58808587363E+02 -0.33081538687E+02 -0.43892763402E+02  0.80494800009E+02  0.00000000000E+00 0.  1.
          3    1    1    2  501    0 -0.22021515015E+02 -0.30683600342E+02  0.35449876855E+02  0.51798882444E+02  0.00000000000E+00 0. -1.
<scales pt_clust_5="13000.00000" pt_clust_6="13000.00000" pt_clust_7="13000.00000" pt_clust_8="13000.00000" pt_clust_9="37.76813"></scales>
<clustering>
<clus scale="   37.768">  2  9  1 -1</clus>
<clus scale="   81.428">  5  6 -1 -1</clus>
<clus scale="   91.587">  7  8 -1 -1</clus>
<clus scale="   96.374">  1  5  2 -1</clus>
<clus scale="   37.768">  2  5  1 -1</clus>
</clustering>
</event>
<event>
 9    2  0.5615294E-005  0.1335142E+03  0.7546771E-02  0.1225272E+00
         21   -1    0    0  501  502  0.00000000000E+00  0.00000000000E+00  0.41189369470E+02  0.41189369470E+02  0.00000000000E+00 0. -1.
          2   -1    0    0  502    0 -0.00000000000E+00 -0.00000000000E+00 -0.13628573269E+04  0.13628573269E+04  0.00000000000E+00 0. -1.
         24    2    1    2    0    0  0.22964647663E+02 -0.97832339329E+02 -0.11583169922E+04  0.11654155288E+04  0.79978488985E+02 0.  0.
         23    2    1    2    0    0 -0.52167416015E+01  0.77837500281E+02 -0.17241833123E+03  0.21039999880E+03  0.91946656869E+02 0.  0.
        -11    1    3    3    0    0 -0.51984825531E+01 -0.34501490234E+02 -0.12504546463E+03  0.12982197531E+03  0.00000000000E+00 0.  1.
         12    1    3    3    0    0  0.28163130216E+02 -0.63330849095E+02 -0.10332715276E+04  0.10355935535E+04  0.00000000000E+00 0. -1.
        -11    1    4    4    0    0 -0.22911494466E+02  0.51084311486E+01 -0.11135139557E+03  0.11379879588E+03  0.00000000000E+00 0.  1.
         11    1    4    4    0    0  0.17694752864E+02  0.72729069132E+02 -0.61066935654E+02  0.96601202922E+02  0.00000000000E+00 0. -1.
          1    1    1    2  501    0 -0.17747906061E+02  0.19994839048E+02  0.90673660710E+01  0.28231168690E+02  0.00000000000E+00 0. -1.
<scales pt_clust_5="13000.00000" pt_clust_6="13000.00000" pt_clust_7="13000.00000" pt_clust_8="13000.00000" pt_clust_9="26.73540"></scales>
<clustering>
<clus scale="   26.735">  1  9  2 -1</clus>
<clus scale="   79.978">  5  6 -1 -1</clus>
<clus scale="   91.947">  7  8 -1 -1</clus>
<clus scale="  125.572">  2  5  1 -1</clus>
<clus scale="   26.735">  1  5  2 -1</clus>
</clustering>
</event>
<event>
 9    2  0.5615294E-005  0.1699114E+03  0.7546771E-02  0.1194604E+00
          2   -1    0    0  502    0 -0.00000000000E+00  0.00000000000E+00  0.30843715602E+03  0.30843715602E+03  0.00000000000E+00 0. -1.
         21   -1    0    0  501  502  0.00000000000E+00 -0.00000000000E+00 -0.22712385354E+03  0.22712385354E+03  0.00000000000E+00 0. -1.
         23    2    1    2    0    0  0.56017309466E+02  0.53581994275E+02 -0.10178767756E+03  0.15530494619E+03  0.88033663653E+02 0.  0.
         24    2    1    2    0    0 -0.73437794553E+02  0.11763065895E+03  0.74938133641E+02  0.17699158722E+03  0.80499791796E+02 0.  0.
        -11    1    4    4    0    0 -0.37301355389E+01  0.56925266091E+02 -0.14673148667E+01  0.57066214554E+02  0.00000000000E+00 0.  1.
         12    1    4    4    0    0 -0.69707659014E+02  0.60705392862E+02  0.76405448508E+02  0.11992537267E+03  0.00000000000E+00 0. -1.
        -11    1    3    3    0    0  0.28393182306E+02  0.67468986523E+02 -0.10053607894E+03  0.12436132885E+03  0.00000000000E+00 0. -1.
         11    1    3    3    0    0  0.27624127161E+02 -0.13886992248E+02 -0.12515986251E+01  0.30943617342E+02  0.00000000000E+00 0.  1.
          1    1    1    2  501    0  0.17420485086E+02 -0.17121265323E+03  0.10816284640E+03  0.20326447616E+03  0.00000000000E+00 0. -1.
<scales pt_clust_5="13000.00000" pt_clust_6="13000.00000" pt_clust_7="13000.00000" pt_clust_8="13000.00000" pt_clust_9="149.63186"></scales>
<clustering>
<clus scale="   80.500">  5  6 -1 -1</clus>
<clus scale="   88.034">  7  8 -1 -1</clus>
<clus scale="  117.298">  1  7  2 -1</clus>
<clus scale="  149.632">  2  9  1 -1</clus>
<clus scale="  149.632">  2  5  1 -1</clus>
</clustering>
</event>
<event>
 9    2  0.5615294E-005  0.1025816E+03  0.7546771E-02  0.1281683E+00
          2   -1    0    0  502    0 -0.00000000000E+00  0.00000000000E+00  0.58166702181E+03  0.58166702181E+03  0.00000000000E+00 0. -1.
         21   -1    0    0  501  502  0.00000000000E+00 -0.00000000000E+00 -0.87580465488E+02  0.87580465488E+02  0.00000000000E+00 0.  1.
         24    2    1    2    0    0  0.47769533980E+02 -0.27273664635E+01  0.47595042385E+03  0.48479537081E+03  0.78793265520E+02 0.  0.
         23    2    1    2    0    0 -0.23571832766E+02 -0.11675322894E+02  0.74272533600E+02  0.12164875880E+03  0.92682613293E+02 0.  0.
        -11    1    3    3    0    0  0.17558859127E+02 -0.23995736215E+02  0.57647926313E+02  0.64864414732E+02  0.00000000000E+00 0.  1.
         12    1    3    3    0    0  0.30210674853E+02  0.21268369751E+02  0.41830249754E+03  0.41993095608E+03  0.00000000000E+00 0. -1.
        -11    1    4    4    0    0 -0.17759398304E+02  0.40200902151E+02  0.30123722685E+02  0.53281773903E+02  0.00000000000E+00 0.  1.
         11    1    4    4    0    0 -0.58124344624E+01 -0.51876225045E+02  0.44148810915E+02  0.68366984902E+02  0.00000000000E+00 0. -1.
          1    1    1    2  501    0 -0.24197701214E+02  0.14402689358E+02 -0.56136401127E+02  0.62803357683E+02  0.00000000000E+00 0. -1.
<scales pt_clust_5="13000.00000" pt_clust_6="13000.00000" pt_clust_7="13000.00000" pt_clust_8="13000.00000" pt_clust_9="28.15966"></scales>
<clustering>
<clus scale="   28.160">  2  9  1 -1</clus>
<clus scale="   78.793">  5  6 -1 -1</clus>
<clus scale="   90.229">  1  5  2 -1</clus>
<clus scale="   92.683">  7  8 -1 -1</clus>
<clus scale="   28.160">  2  5  1 -1</clus>
</clustering>
</event>
<event>
 9    2  0.5615294E-005  0.1342742E+03  0.7546771E-02  0.1225715E+00
          2   -1    0    0  502    0 -0.00000000000E+00  0.00000000000E+00  0.49159967074E+03  0.49159967074E+03  0.00000000000E+00 0. -1.
         21   -1    0    0  501  502  0.00000000000E+00 -0.00000000000E+00 -0.22013359389E+03  0.22013359389E+03  0.00000000000E+00 0.  1.
         24    2    1    2    0    0  0.91039760966E+02  0.19906666604E+02  0.35880221630E+03  0.37775454270E+03  0.72628855508E+02 0.  0.
         23    2    1    2    0    0 -0.19040211700E+03  0.20528425317E+02 -0.78921877850E+02  0.22637447363E+03  0.91336504754E+02 0.  0.
        -13    1    3    3    0    0  0.38089787611E+02 -0.74766714585E+01  0.50248728761E+02  0.63495411475E+02  0.00000000000E+00 0.  1.
         14    1    3    3    0    0  0.52949973355E+02  0.27383338062E+02  0.30855348754E+03  0.31425913122E+03  0.00000000000E+00 0. -1.
        -11    1    4    4    0    0 -0.18835516703E+02 -0.27178619906E+02 -0.20746148399E+02  0.39036607727E+02  0.00000000000E+00 0. -1.
         11    1    4    4    0    0 -0.17156660030E+03  0.47707045223E+02 -0.58175729451E+02  0.18733786590E+03  0.00000000000E+00 0.  1.
          1    1    1    2  501    0  0.99362356037E+02 -0.40435091921E+02 -0.84142616091E+01  0.10760424831E+03  0.00000000000E+00 0. -1.
<scales pt_clust_5="13000.00000" pt_clust_6="13000.00000" pt_clust_7="13000.00000" pt_clust_8="13000.00000" pt_clust_9="107.27476"></scales>
<clustering>
<clus scale="   72.629">  5  6 -1 -1</clus>
<clus scale="   91.337">  7  8 -1 -1</clus>
<clus scale="  107.275">  2  9  1 -1</clus>
<clus scale="  122.320">  1  5  2 -1</clus>
<clus scale="  107.275">  2  5  1 -1</clus>
</clustering>
</event>
<event>
 9    2  0.5615294E-005  0.3166396E+03  0.7546771E-02  0.1123948E+00
         21   -1    0    0  501  502  0.00000000000E+00  0.00000000000E+00  0.17765454409E+03  0.17765454409E+03  0.00000000000E+00 0. -1.
          2   -1    0    0  502    0 -0.00000000000E+00 -0.00000000000E+00 -0.73240553328E+03  0.73240553328E+03  0.00000000000E+00 0. -1.
         24    2    1    2    0    0  0.50550402436E+02  0.12561389795E+02 -0.45373035366E+02  0.10458142662E+03  0.78520256970E+02 0.  0.
         23    2    1    2    0    0  0.13334247290E+03  0.25345681413E+03 -0.23788823268E+03  0.38323589699E+03  0.90875573113E+02 0.  0.
        -13    1    3    3    0    0  0.62826178558E+02  0.27099788978E+02 -0.50305676407E+02  0.84924603936E+02  0.00000000000E+00 0.  1.
         14    1    3    3    0    0 -0.12275776122E+02 -0.14538399184E+02  0.49326410412E+01  0.19656822680E+02  0.00000000000E+00 0. -1.
        -11    1    4    4    0    0  0.30817649692E+02  0.98078186572E+02 -0.13766393700E+03  0.17181506850E+03  0.00000000000E+00 0.  1.
         11    1    4    4    0    0  0.10252482321E+03  0.15537862756E+03 -0.10022429568E+03  0.21142082849E+03  0.00000000000E+00 0. -1.
          1    1    1    2  501    0 -0.18389287534E+03 -0.26601820392E+03 -0.27148972115E+03  0.42224275376E+03  0.00000000000E+00 0. -1.
<scales pt_clust_5="13000.00000" pt_clust_6="13000.00000" pt_clust_7="13000.00000" pt_clust_8="13000.00000" pt_clust_9="303.31890"></scales>
<clustering>
<clus scale="   78.520">  5  6 -1 -1</clus>
<clus scale="   90.876">  7  8 -1 -1</clus>
<clus scale="   94.226">  2  5  1 -1</clus>
<clus scale="  303.319">  1  9  2 -1</clus>
<clus scale="  303.319">  1  5  2 -1</clus>
</clustering>
</event>
<event>
 9    2  0.5615294E-005  0.1185056E+03  0.7546771E-02  0.1248041E+00
         21   -1    0    0  501  502  0.00000000000E+00  0.00000000000E+00  0.17600787719E+03  0.17600787719E+03  0.00000000000E+00 0.  1.
         -1   -1    0    0    0  501 -0.00000000000E+00 -0.00000000000E+00 -0.17503421948E+03  0.17503421948E+03  0.00000000000E+00 0.  1.
         24    2    1    2    0    0 -0.14468115891E+02 -0.81634685196E+02 -0.11893450700E+03  0.16603256827E+03  0.80918777585E+02 0.  0.
         23    2    1    2    0    0  0.45332196244E+01  0.53798791391E+02  0.11517986069E+03  0.15507800644E+03  0.88701340106E+02 0.  0.
        -11    1    3    3    0    0 -0.17787631482E+02 -0.44717287665E+02 -0.11964324209E+03  0.12895945497E+03  0.00000000000E+00 0.  1.
         12    1    3    3    0    0  0.33195155906E+01 -0.36917397530E+02  0.70873508282E+00  0.37073113298E+02  0.00000000000E+00 0. -1.
        -11    1    4    4    0    0  0.17839289467E+02 -0.98702307374E+01 -0.25781495689E+01  0.20550147413E+02  0.00000000000E+00 0. -1.
         11    1    4    4    0    0 -0.13306069842E+02  0.63669022128E+02  0.11775801026E+03  0.13452785903E+03  0.00000000000E+00 0.  1.
         -2    1    1    2    0  502  0.99348962667E+01  0.27835893805E+02  0.47283040292E+01  0.29931521958E+02  0.00000000000E+00 0.  1.
<scales pt_clust_5="13000.00000" pt_clust_6="13000.00000" pt_clust_7="13000.00000" pt_clust_8="13000.00000" pt_clust_9="29.55570"></scales>
<clustering>
<clus scale="   29.556">  1  9  2 -1</clus>
<clus scale="   80.919">  5  6 -1 -1</clus>
<clus scale="   88.701">  7  8 -1 -1</clus>
<clus scale="  112.798">  2  5  1 -1</clus>
<clus scale="   29.556">  1  5  2 -1</clus>
</clustering>
</event>
<event>
 9    2  0.5615294E-005  0.2516613E+03  0.7546771E-02  0.1132302E+00
         21   -1    0    0  501  502  0.00000000000E+00  0.00000000000E+00  0.72554208985E+02  0.72554208985E+02  0.00000000000E+00 0. -1.
          2   -1    0    0  502    0 -0.00000000000E+00 -0.00000000000E+00 -0.17424509378E+04  0.17424509378E+04  0.00000000000E+00 0. -1.
         24    2    1    2    0    0 -0.13200522437E+03 -0.22046274663E+02 -0.56730726576E+03  0.58751442818E+03  0.73649521745E+02 0.  0.
         23    2    1    2    0    0  0.14863096331E+03 -0.20345239319E+03 -0.34224740586E+03  0.43424037455E+03  0.89148059555E+02 0.  0.
        -13    1    3    3    0    0 -0.37174858603E+02 -0.36655786138E+02 -0.27345553961E+03  0.27839459210E+03  0.00000000000E+00 0.  1.
         14    1    3    3    0    0 -0.94830365763E+02  0.14609511475E+02 -0.29385172615E+03  0.30911983608E+03  0.00000000000E+00 0. -1.
        -11    1    4    4    0    0  0.89454931649E+02 -0.71025837102E+02 -0.20434107422E+03  0.23409854537E+03  0.00000000000E+00 0.  1.
         11    1    4    4    0    0  0.59176031659E+02 -0.13242655608E+03 -0.13790633164E+03  0.20014182918E+03  0.00000000000E+00 0. -1.
          1    1    1    2  501    0 -0.16625738943E+02  0.22549866785E+03 -0.76034205716E+03  0.79325034401E+03  0.00000000000E+00 0. -1.
<scales pt_clust_5="13000.00000" pt_clust_6="13000.00000" pt_clust_7="13000.00000" pt_clust_8="13000.00000" pt_clust_9="235.34246"></scales>
<clustering>
<clus scale="   73.650">  5  6 -1 -1</clus>
<clus scale="   89.148">  7  8 -1 -1</clus>
<clus scale="  152.760">  2  5  1 -1</clus>
<clus scale="  235.342">  1  9  2 -1</clus>
<clus scale="  235.342">  1  5  2 -1</clus>
</clustering>
</event>
<event>
 9    2  0.5615294E-005  0.9440135E+02  0.7546771E-02  0.1297357E+00
         21   -1    0    0  501  502  0.00000000000E+00  0.00000000000E+00  0.34678390169E+02  0.34678390169E+02  0.00000000000E+00 0.  1.
          2   -1    0    0  502    0 -0.00000000000E+00 -0.00000000000E+00 -0.34354814754E+03  0.34354814754E+03  0.00000000000E+00 0. -1.
         23    2    1    2    0    0  0.47730830101E+01 -0.18103699529E+02 -0.10930528812E+03  0.14303139284E+03  0.90331650427E+02 0.  0.
         24    2    1    2    0    0  0.10595414593E+02  0.36097165232E+02 -0.10801449765E+03  0.14063641800E+03  0.81830325780E+02 0.  0.
        -13    1    4    4    0    0 -0.77535468454E+01 -0.21587318922E+02 -0.57113012154E+02  0.61546941307E+02  0.00000000000E+00 0.  1.
         14    1    4    4    0    0  0.18348961438E+02  0.57684484154E+02 -0.50901485498E+02  0.79089476695E+02  0.00000000000E+00 0. -1.
        -11    1    3    3    0    0 -0.29949306798E+02 -0.40566265987E+02 -0.52802362427E+02  0.73011453839E+02  0.00000000000E+00 0.  1.
         11    1    3    3    0    0  0.34722389808E+02  0.22462566459E+02 -0.56502925693E+02  0.70019939002E+02  0.00000000000E+00 0. -1.
          1    1    1    2  501    0 -0.15368497603E+02 -0.17993465704E+02 -0.91549971594E+02  0.94558726861E+02  0.00000000000E+00 0. -1.
<scales pt_clust_5="13000.00000" pt_clust_6="13000.00000" pt_clust_7="13000.00000" pt_clust_8="13000.00000" pt_clust_9="23.66339"></scales>
<clustering>
<clus scale="   23.663">  1  9  2 -1</clus>
<clus scale="   81.830">  5  6 -1 -1</clus>
<clus scale="   86.302">  1  5  2 -1</clus>
<clus scale="   90.332">  7  8 -1 -1</clus>
<clus scale="   23.663">  1  5  2 -1</clus>
</clustering>
</event>
<event>
 9    2  0.5615294E-005  0.1092890E+03  0.7546771E-02  0.1269067E+00
         21   -1    0    0  501  502  0.00000000000E+00  0.00000000000E+00  0.94146224084E+02  0.94146224084E+02  0.00000000000E+00 0.  1.
          2   -1    0    0  502    0 -0.00000000000E+00 -0.00000000000E+00 -0.27138936419E+03  0.27138936419E+03  0.00000000000E+00 0. -1.
         23    2    1    2    0    0  0.27618035983E+02 -0.42313438032E+02 -0.18777421346E+03  0.21697988898E+03  0.96270109741E+02 0.  0.
         24    2    1    2    0    0  0.75561626099E+01  0.67629749534E+02  0.60775006795E+01  0.10498995375E+03  0.79718729038E+02 0.  0.
        -13    1    4    4    0    0 -0.14221326197E+02  0.50523204993E+02  0.36439340539E+02  0.63895742428E+02  0.00000000000E+00 0.  1.
         14    1    4    4    0    0  0.21777488807E+02  0.17106544541E+02 -0.30361839859E+02  0.41094211326E+02  0.00000000000E+00 0. -1.
        -11    1    3    3    0    0  0.55205943543E+02 -0.13226196144E+02 -0.15542106891E+03  0.16546400554E+03  0.00000000000E+00 0. -1.
         11    1    3    3    0    0 -0.27587907560E+02 -0.29087241888E+02 -0.32353144549E+02  0.51515883438E+02  0.00000000000E+00 0.  1.
          1    1    1    2  501    0 -0.35174198593E+02 -0.25316311502E+02  0.44535726808E+01  0.43565745539E+02  0.00000000000E+00 0. -1.
<scales pt_clust_5="13000.00000" pt_clust_6="13000.00000" pt_clust_7="13000.00000" pt_clust_8="13000.00000" pt_clust_9="43.33751"></scales>
<clustering>
<clus scale="   43.338">  1  9  2 -1</clus>
<clus scale="   79.719">  5  6 -1 -1</clus>
<clus scale="   95.033">  1  5  2 -1</clus>
<clus scale="   96.270">  7  8 -1 -1</clus>
<clus scale="   43.338">  1  5  2 -1</clus>
</clustering>
</event>
<event>
 9    2  0.5615294E-005  0.1039160E+03  0.7546771E-02  0.1277641E+00
         21   -1    0    0  501  502  0.00000000000E+00  0.00000000000E+00  0.18819593092E+03  0.18819593092E+03  0.00000000000E+00 0.  1.
          2   -1    0    0  502    0 -0.00000000000E+00 -0.00000000000E+00 -0.17043358946E+03  0.17043358946E+03  0.00000000000E+00 0. -1.
         23    2    1    2    0    0  0.33997265705E+02  0.20605639765E+02 -0.98558875605E+02  0.14040414708E+03  0.91755469003E+02 0.  0.
         24    2    1    2    0    0 -0.91093034675E+02 -0.33253129565E+02  0.72491896761E+02  0.14514394508E+03  0.80049847630E+02 0.  0.
        -11    1    4    4    0    0 -0.13017140052E+02 -0.41694417067E+02  0.10066127936E+02  0.44824070335E+02  0.00000000000E+00 0.  1.
         12    1    4    4    0    0 -0.78075894623E+02  0.84412875025E+01  0.62425768824E+02  0.10031987475E+03  0.00000000000E+00 0. -1.
        -13    1    3    3    0    0  0.52310519266E+02 -0.11265357462E+01 -0.18575974879E+02  0.55522304990E+02  0.00000000000E+00 0. -1.
         13    1    3    3    0    0 -0.18313253561E+02  0.21732175511E+02 -0.79982900726E+02  0.84881842093E+02  0.00000000000E+00 0.  1.
          1    1    1    2  501    0  0.57095768970E+02  0.12647489800E+02  0.43829320298E+02  0.73081428217E+02  0.00000000000E+00 0. -1.
<scales pt_clust_5="13000.00000" pt_clust_6="13000.00000" pt_clust_7="13000.00000" pt_clust_8="13000.00000" pt_clust_9="58.47979"></scales>
<clustering>
<clus scale="   58.480">  1  9  2 -1</clus>
<clus scale="   80.050">  5  6 -1 -1</clus>
<clus scale="   91.755">  7  8 -1 -1</clus>
<clus scale="   93.741">  1  5  2 -1</clus>
<clus scale="   58.480">  1  5  2 -1</clus>
</clustering>
</event>
<event>
 9    2  0.5615294E-005  0.9401566E+02  0.7546771E-02  0.1300242E+00
         21   -1    0    0  501  502  0.00000000000E+00  0.00000000000E+00  0.36074111436E+02  0.36074111436E+02  0.00000000000E+00 0. -1.
          2   -1    0    0  502    0 -0.00000000000E+00 -0.00000000000E+00 -0.37466031837E+03  0.37466031837E+03  0.00000000000E+00 0. -1.
         23    2    1    2    0    0 -0.17466131699E+02 -0.23879051776E+02 -0.25178358059E+03  0.26944032195E+03  0.91257003932E+02 0.  0.
         24    2    1    2    0    0  0.10771459379E+02 -0.30153862399E+01 -0.48299271339E+02  0.93853220637E+02  0.79689964994E+02 0.  0.
        -13    1    4    4    0    0  0.46069999372E+01 -0.30794080530E+02 -0.56264028812E+02  0.64305060316E+02  0.00000000000E+00 0.  1.
         14    1    4    4    0    0  0.61644594421E+01  0.27778694291E+02  0.79647574734E+01  0.29548160320E+02  0.00000000000E+00 0. -1.
        -11    1    3    3    0    0  0.32890893636E+02 -0.21979553774E+02 -0.15908628400E+03  0.16393095323E+03  0.00000000000E+00 0.  1.
         11    1    3    3    0    0 -0.50357025335E+02 -0.18994980015E+01 -0.92697296587E+02  0.10550936872E+03  0.00000000000E+00 0. -1.
          1    1    1    2  501    0  0.66946723196E+01  0.26894438015E+02 -0.38503355005E+02  0.47440887221E+02  0.00000000000E+00 0. -1.
<scales pt_clust_5="13000.00000" pt_clust_6="13000.00000" pt_clust_7="13000.00000" pt_clust_8="13000.00000" pt_clust_9="27.71515"></scales>
<clustering>
<clus scale="   27.715">  1  9  2 -1</clus>
<clus scale="   79.690">  5  6 -1 -1</clus>
<clus scale="   82.835">  1  5  2 -1</clus>
<clus scale="   91.257">  7  8 -1 -1</clus>
<clus scale="   27.715">  1  5  2 -1</clus>
</clustering>
</event>
<event>
 9    2  0.5615294E-005  0.1493395E+03  0.7546771E-02  0.1214243E+00
         21   -1    0    0  501  502  0.00000000000E+00  0.00000000000E+00  0.28493322412E+02  0.28493322412E+02  0.00000000000E+00 0. -1.
          2   -1    0    0  502    0 -0.00000000000E+00 -0.00000000000E+00 -0.18120904506E+04  0.18120904506E+04  0.00000000000E+00 0. -1.
         24    2    1    2    0    0  0.62466071169E+02  0.15496960755E+02 -0.98964902581E+03  0.99609371741E+03  0.93034046060E+02 0.  0.
         23    2    1    2    0    0  0.16682176949E+02 -0.11151690560E+03 -0.56987043105E+03  0.58817954514E+03  0.92133348322E+02 0.  0.
        -13    1    3    3    0    0  0.31185716707E+02 -0.31973005522E+02 -0.22846778963E+03  0.23279251042E+03  0.00000000000E+00 0.  1.
         14    1    3    3    0    0  0.31280354462E+02  0.47469966277E+02 -0.76118123619E+03  0.76330120699E+03  0.00000000000E+00 0. -1.
        -11    1    4    4    0    0 -0.18269939954E+02 -0.19736386500E+02 -0.33836551241E+02  0.43223001491E+02  0.00000000000E+00 0.  1.
         11    1    4    4    0    0  0.34952116903E+02 -0.91780519105E+02 -0.53603387981E+03  0.54495654365E+03  0.00000000000E+00 0. -1.
          1    1    1    2  501    0 -0.79148248117E+02  0.96019944850E+02 -0.22407767134E+03  0.25631051048E+03  0.00000000000E+00 0. -1.
<scales pt_clust_5="13000.00000" pt_clust_6="13000.00000" pt_clust_7="13000.00000" pt_clust_8="13000.00000" pt_clust_9="117.53183"></scales>
<clustering>
<clus scale="   92.133">  7  8 -1 -1</clus>
<clus scale="   93.034">  5  6 -1 -1</clus>
<clus scale="  113.126">  2  5  1 -1</clus>
<clus scale="  117.532">  1  9  2 -1</clus>
<clus scale="  117.532">  1  5  2 -1</clus>
</clustering>
</event>
<event>
 9    2  0.5615294E-005  0.1298312E+03  0.7546771E-02  0.1238858E+00
         21   -1    0    0  501  502  0.00000000000E+00  0.00000000000E+00  0.21520097252E+02  0.21520097252E+02  0.00000000000E+00 0. -1.
          2   -1    0    0  502    0 -0.00000000000E+00 -0.00000000000E+00 -0.16831536604E+04  0.16831536604E+04  0.00000000000E+00 0. -1.
         24    2    1    2    0    0  0.56003308413E+02 -0.46132205307E+02 -0.88552037499E+03  0.89152011726E+03  0.73465869944E+02 0.  0.
         23    2    1    2    0    0  0.57700873307E+02 -0.25255612939E+02 -0.35550494757E+03  0.37163789482E+03  0.88111976221E+02 0.  0.
        -11    1    3    3    0    0  0.22837994078E+02 -0.51791687757E+02 -0.31764009744E+03  0.32264405217E+03  0.00000000000E+00 0.  1.
         12    1    3    3    0    0  0.33165314335E+02  0.56594824500E+01 -0.56788027755E+03  0.56887606510E+03  0.00000000000E+00 0. -1.
        -11    1    4    4    0    0  0.71447415304E+01 -0.40760492790E+02 -0.70327936084E+02  0.81599532461E+02  0.00000000000E+00 0. -1.
         11    1    4    4    0    0  0.50556131777E+02  0.15504879851E+02 -0.28517701148E+03  0.29003836236E+03  0.00000000000E+00 0.  1.
          1    1    1    2  501    0 -0.11370418172E+03  0.71387818246E+02 -0.42060824063E+03  0.44151574561E+03  0.00000000000E+00 0. -1.
<scales pt_clust_5="13000.00000" pt_clust_6="13000.00000" pt_clust_7="13000.00000" pt_clust_8="13000.00000" pt_clust_9="95.35427"></scales>
<clustering>
<clus scale="   73.466">  5  6 -1 -1</clus>
<clus scale="   88.112">  7  8 -1 -1</clus>
<clus scale="  103.256">  2  5  1 -1</clus>
<clus scale="   95.354">  1  9  2 -1</clus>
<clus scale="   95.354">  1  5  2 -1</clus>
</clustering>
</event>
<event>
 9    2  0.5615294E-005  0.4028066E+03  0.7546771E-02  0.1093376E+00
          2   -1    0    0  502    0 -0.00000000000E+00  0.00000000000E+00  0.56536923763E+03  0.56536923763E+03  0.00000000000E+00 0. -1.
         21   -1    0    0  501  502  0.00000000000E+00 -0.00000000000E+00 -0.40276299771E+03  0.40276299771E+03  0.00000000000E+00 0. -1.
         24    2    1    2    0    0 -0.52761516036E+02  0.13230604102E+02  0.43216954948E+02  0.10886897439E+03  0.83820772670E+02 0.  0.
         23    2    1    2    0    0 -0.14806518547E+03 -0.36015754074E+03 -0.85711474386E+02  0.40897892313E+03  0.90997524270E+02 0.  0.
        -13    1    3    3    0    0 -0.30073887910E+02 -0.28381731049E+02  0.45417775202E+02  0.61422599225E+02  0.00000000000E+00 0.  1.
         14    1    3    3    0    0 -0.22687628127E+02  0.41612335151E+02 -0.22008202535E+01  0.47446375167E+02  0.00000000000E+00 0. -1.
        -11    1    4    4    0    0 -0.13721000837E+03 -0.31882987046E+03 -0.45081738812E+02  0.35001633658E+03  0.00000000000E+00 0. -1.
         11    1    4    4    0    0 -0.10855177109E+02 -0.41327670272E+02 -0.40629735574E+02  0.58962586553E+02  0.00000000000E+00 0.  1.
          1    1    1    2  501    0  0.20082670151E+03  0.34692693663E+03  0.20510075935E+03  0.45028433782E+03  0.00000000000E+00 0. -1.
<scales pt_clust_5="13000.00000" pt_clust_6="13000.00000" pt_clust_7="13000.00000" pt_clust_8="13000.00000" pt_clust_9="392.39360"></scales>
<clustering>
<clus scale="   83.821">  5  6 -1 -1</clus>
<clus scale="   90.998">  7  8 -1 -1</clus>
<clus scale="   99.924">  1  5  2 -1</clus>
<clus scale="  392.394">  2  9  1 -1</clus>
<clus scale="  392.394">  2  5  1 -1</clus>
</clustering>
</event>
<event>
 9    2  0.5615294E-005  0.9310095E+02  0.7546771E-02  0.1303092E+00
         21   -1    0    0  501  502  0.00000000000E+00  0.00000000000E+00  0.27894545165E+03  0.27894545165E+03  0.00000000000E+00 0.  1.
          2   -1    0    0  502    0 -0.00000000000E+00 -0.00000000000E+00 -0.11989321897E+03  0.11989321897E+03  0.00000000000E+00 0. -1.
         24    2    1    2    0    0 -0.13465393648E+02 -0.20584203875E+01  0.37272489101E+02  0.89778579640E+02  0.80531987420E+02 0.  0.
         23    2    1    2    0    0 -0.57795478795E+02  0.23182820068E+02  0.18190004757E+03  0.21346300339E+03  0.92741932238E+02 0.  0.
        -13    1    3    3    0    0  0.33866517189E+02  0.18772449384E+01  0.12004655065E+02  0.35980227602E+02  0.00000000000E+00 0.  1.
         14    1    3    3    0    0 -0.47331910838E+02 -0.39356653259E+01  0.25267834037E+02  0.53798352038E+02  0.00000000000E+00 0. -1.
        -11    1    4    4    0    0 -0.43158007166E+02  0.41261948841E+02  0.18054454769E+03  0.19016176194E+03  0.00000000000E+00 0.  1.
         11    1    4    4    0    0 -0.14637471629E+02 -0.18079128773E+02  0.13554998747E+01  0.23301241443E+02  0.00000000000E+00 0. -1.
          1    1    1    2  501    0  0.71260872443E+02 -0.21124399681E+02 -0.60120303995E+02  0.95597087590E+02  0.00000000000E+00 0. -1.
<scales pt_clust_5="13000.00000" pt_clust_6="13000.00000" pt_clust_7="13000.00000" pt_clust_8="13000.00000" pt_clust_9="74.32602"></scales>
<clustering>
<clus scale="   74.326">  1  9  2 -1</clus>
<clus scale="   80.532">  5  6 -1 -1</clus>
<clus scale="   80.945">  2  5  1 -1</clus>
<clus scale="   92.742">  7  8 -1 -1</clus>
<clus scale="   74.326">  1  5  2 -1</clus>
</clustering>
</event>
<event>
 9    2  0.1116853E-004  0.1272152E+03  0.7546771E-02  0.1243432E+00
         21   -1    0    0  501  502  0.00000000000E+00  0.00000000000E+00  0.15532130634E+03  0.15532130634E+03  0.00000000000E+00 0. -1.
          2   -1    0    0  502    0 -0.00000000000E+00 -0.00000000000E+00 -0.43645186137E+03  0.43645186137E+03  0.00000000000E+00 0. -1.
         23    2    1    2    0    0 -0.30015937358E+00  0.44438116761E+02 -0.31610227979E+03  0.33155432871E+03  0.89625806998E+02 0.  0.
         24    2    1    2    0    0  0.22883913674E+02  0.57950333056E+02 -0.58639386790E+02  0.11966116109E+03  0.83655849670E+02 0.  0.
        -11    1    4    4    0    0  0.36216422883E+02 -0.98975233580E+00 -0.44891966987E+02  0.57687932846E+02  0.00000000000E+00 0.  1.
         12    1    4    4    0    0 -0.13332509209E+02  0.58940085391E+02 -0.13747419803E+02  0.61973228244E+02  0.00000000000E+00 0. -1.
        -13    1    3    3    0    0  0.21276532005E+02  0.46930136312E+02 -0.30031334229E+03  0.30470187408E+03  0.00000000000E+00 0. -1.
         13    1    3    3    0    0 -0.21576691379E+02 -0.24920195509E+01 -0.15788937496E+02  0.26852454628E+02  0.00000000000E+00 0.  1.
          1    1    1    2  501    0 -0.22583754300E+02 -0.10238844982E+03  0.93611111548E+02  0.14055767791E+03  0.00000000000E+00 0. -1.
<scales pt_clust_5="13000.00000" pt_clust_6="13000.00000" pt_clust_7="13000.00000" pt_clust_8="13000.00000" pt_clust_9="95.84054"></scales>
<clustering>
<clus scale="   83.656">  5  6 -1 -1</clus>
<clus scale="   89.626">  7  8 -1 -1</clus>
<clus scale="  100.038">  2  7  1 -1</clus>
<clus scale="   95.841">  1  9  2 -1</clus>
<clus scale="   95.841">  1  5  2 -1</clus>
</clustering>
</event>
<event>
 9    2  0.5615294E-005  0.1262196E+03  0.7546771E-02  0.1235918E+00
         21   -1    0    0  501  502  0.00000000000E+00  0.00000000000E+00  0.48719829010E+02  0.48719829010E+02  0.00000000000E+00 0.  1.
          2   -1    0    0  502    0 -0.00000000000E+00 -0.00000000000E+00 -0.49887217625E+03  0.49887217625E+03  0.00000000000E+00 0. -1.
         23    2    1    2    0    0 -0.74690331342E+02  0.29053824887E+02 -0.31486622487E+03  0.33747379867E+03  0.91241738732E+02 0.  0.
         24    2    1    2    0    0  0.96852508078E+02 -0.43708398184E+02 -0.11769257099E+03  0.17825205455E+03  0.81433539095E+02 0.  0.
        -13    1    4    4    0    0  0.58108683911E+02 -0.48975900430E+02 -0.11654740487E+03  0.13913502633E+03  0.00000000000E+00 0.  1.
         14    1    4    4    0    0  0.38743824167E+02  0.52675022458E+01 -0.11451661205E+01  0.39117028216E+02  0.00000000000E+00 0. -1.
        -11    1    3    3    0    0 -0.23746439065E+02  0.35667117725E+02 -0.42665822332E+02  0.60468248283E+02  0.00000000000E+00 0.  1.
         11    1    3    3    0    0 -0.50943892276E+02 -0.66132928380E+01 -0.27220040254E+03  0.27700555038E+03  0.00000000000E+00 0. -1.
          1    1    1    2  501    0 -0.22162176737E+02  0.14654573297E+02 -0.17593551373E+02  0.31866152045E+02  0.00000000000E+00 0. -1.
<scales pt_clust_5="13000.00000" pt_clust_6="13000.00000" pt_clust_7="13000.00000" pt_clust_8="13000.00000" pt_clust_9="26.56913"></scales>
<clustering>
<clus scale="   26.569">  1  9  2 -1</clus>
<clus scale="   81.434">  5  6 -1 -1</clus>
<clus scale="   91.242">  7  8 -1 -1</clus>
<clus scale="  119.322">  1  5  2 -1</clus>
<clus scale="   26.569">  1  5  2 -1</clus>
</clustering>
</event>
<event>
 9    2  0.5615294E-005  0.9733765E+02  0.7546771E-02  0.1293546E+00
          2   -1    0    0  502    0 -0.00000000000E+00  0.00000000000E+00  0.60871615064E+02  0.60871615064E+02  0.00000000000E+00 0. -1.
         21   -1    0    0  501  502  0.00000000000E+00 -0.00000000000E+00 -0.21390762236E+03  0.21390762236E+03  0.00000000000E+00 0.  1.
         23    2    1    2    0    0  0.31403129566E+02  0.70508202704E+01 -0.53720474492E+02  0.11292322047E+03  0.93967514214E+02 0.  0.
         24    2    1    2    0    0 -0.16285748185E+02  0.19168003418E+02 -0.10088439838E+03  0.13155051788E+03  0.80593045411E+02 0.  0.
        -13    1    4    4    0    0 -0.21441898320E+02  0.44907957703E+02 -0.90578584693E+02  0.10334872846E+03  0.00000000000E+00 0.  1.
         14    1    4    4    0    0  0.51561501350E+01 -0.25739954285E+02 -0.10305813685E+02  0.28201789420E+02  0.00000000000E+00 0. -1.
        -13    1    3    3    0    0  0.18760187031E+02  0.34824437409E+02 -0.68435359255E+02  0.79044825603E+02  0.00000000000E+00 0. -1.
         13    1    3    3    0    0  0.12642942535E+02 -0.27773617138E+02  0.14714884763E+02  0.33878394863E+02  0.00000000000E+00 0.  1.
          1    1    1    2  501    0 -0.15117381380E+02 -0.26218823688E+02  0.15688655743E+01  0.30305499082E+02  0.00000000000E+00 0. -1.
<scales pt_clust_5="13000.00000" pt_clust_6="13000.00000" pt_clust_7="13000.00000" pt_clust_8="13000.00000" pt_clust_9="30.26488"></scales>
<clustering>
<clus scale="   30.265">  2  9  1 -1</clus>
<clus scale="   80.593">  5  6 -1 -1</clus>
<clus scale="   84.498">  2  5  1 -1</clus>
<clus scale="   93.968">  7  8 -1 -1</clus>
<clus scale="   30.265">  2  5  1 -1</clus>
</clustering>
</event>
<event>
 9    2  0.5615294E-005  0.1557316E+03  0.7546771E-02  0.1206493E+00
          2   -1    0    0  502    0 -0.00000000000E+00  0.00000000000E+00  0.12826802562E+04  0.12826802562E+04  0.00000000000E+00 0. -1.
         21   -1    0    0  501  502  0.00000000000E+00 -0.00000000000E+00 -0.42491613642E+02  0.42491613642E+02  0.00000000000E+00 0. -1.
         23    2    1    2    0    0 -0.47967968587E+02 -0.56720377649E+02  0.58568688732E+03  0.59739711266E+03  0.91301987832E+02 0.  0.
         24    2    1    2    0    0  0.24672636188E+02 -0.11372456093E+03  0.22774419721E+03  0.26764851045E+03  0.78906850451E+02 0.  0.
        -13    1    4    4    0    0  0.37586197538E+02 -0.70699460801E+02  0.19851621152E+03  0.21405565220E+03  0.00000000000E+00 0.  1.
         14    1    4    4    0    0 -0.12913561349E+02 -0.43025100130E+02  0.29227985692E+02  0.53592858251E+02  0.00000000000E+00 0. -1.
        -13    1    3    3    0    0  0.25944866491E+02 -0.80102496086E+01  0.95658073221E+02  0.99437252418E+02  0.00000000000E+00 0.  1.
         13    1    3    3    0    0 -0.73912835078E+02 -0.48710128041E+02  0.49002881410E+03  0.49795986024E+03  0.00000000000E+00 0. -1.
          1    1    1    2  501    0  0.23295332399E+02  0.17044493858E+03  0.42675755802E+03  0.46012624673E+03  0.00000000000E+00 0. -1.
<scales pt_clust_5="13000.00000" pt_clust_6="13000.00000" pt_clust_7="13000.00000" pt_clust_8="13000.00000" pt_clust_9="134.26119"></scales>
<clustering>
<clus scale="   78.907">  5  6 -1 -1</clus>
<clus scale="   91.302">  7  8 -1 -1</clus>
<clus scale="  117.704">  1  7  2 -1</clus>
<clus scale="  134.261">  2  9  1 -1</clus>
<clus scale="  134.261">  2  5  1 -1</clus>
</clustering>
</event>
<event>
 9    2  0.5615294E-005  0.9623847E+02  0.7546771E-02  0.1295179E+00
         21   -1    0    0  501  502  0.00000000000E+00  0.00000000000E+00  0.18543785722E+02  0.18543785722E+02  0.00000000000E+00 0. -1.
          2   -1    0    0  502    0 -0.00000000000E+00 -0.00000000000E+00 -0.66532776611E+03  0.66532776611E+03  0.00000000000E+00 0. -1.
         24    2    1    2    0    0 -0.27113966082E+02 -0.22537253519E+02 -0.35083699989E+03  0.36167942657E+03  0.80512807388E+02 0.  0.
         23    2    1    2    0    0  0.64863251036E+01  0.49852966161E+01 -0.17339432376E+03  0.19668226734E+03  0.92473764814E+02 0.  0.
        -11    1    3    3    0    0  0.20673158535E+02  0.15818329701E+02 -0.86424656311E+02  0.90259737739E+02  0.00000000000E+00 0.  1.
         12    1    3    3    0    0 -0.47787124617E+02 -0.38355583221E+02 -0.26441234358E+03  0.27141968883E+03  0.00000000000E+00 0. -1.
        -11    1    4    4    0    0  0.29252263484E+02 -0.21610530825E+02 -0.15054682328E+03  0.15487755151E+03  0.00000000000E+00 0.  1.
         11    1    4    4    0    0 -0.22765938380E+02  0.26595827441E+02 -0.22847500476E+02  0.41804715830E+02  0.00000000000E+00 0. -1.
          1    1    1    2  501    0  0.20627640978E+02  0.17551956903E+02 -0.12255265673E+03  0.12550985792E+03  0.00000000000E+00 0. -1.
<scales pt_clust_5="13000.00000" pt_clust_6="13000.00000" pt_clust_7="13000.00000" pt_clust_8="13000.00000" pt_clust_9="27.08453"></scales>
<clustering>
<clus scale="   27.085">  1  9  2 -1</clus>
<clus scale="   80.513">  5  6 -1 -1</clus>
<clus scale="   84.810">  2  5  1 -1</clus>
<clus scale="   92.474">  7  8 -1 -1</clus>
<clus scale="   27.085">  1  5  2 -1</clus>
</clustering>
</event>
<event>
 9    2  0.5615294E-005  0.1373897E+03  0.7546771E-02  0.1239105E+00
         21   -1    0    0  501  502  0.00000000000E+00  0.00000000000E+00  0.71287120934E+03  0.71287120934E+03  0.00000000000E+00 0.  1.
          2   -1    0    0  502    0 -0.00000000000E+00 -0.00000000000E+00 -0.15002555032E+03  0.15002555032E+03  0.00000000000E+00 0. -1.
         24    2    1    2    0    0  0.22663341625E+02  0.20118271465E+01 -0.10061228580E+03  0.13281335373E+03  0.83659311337E+02 0.  0.
         23    2    1    2    0    0  0.94715682943E+02 -0.19734912241E+02  0.54961835671E+03  0.56561032311E+03  0.92055267170E+02 0.  0.
        -13    1    3    3    0    0 -0.24998092706E+02  0.23271542282E+02 -0.45768744032E+02  0.57107330961E+02  0.00000000000E+00 0.  1.
         14    1    3    3    0    0  0.47661434331E+02 -0.21259715136E+02 -0.54843541769E+02  0.75706022772E+02  0.00000000000E+00 0. -1.
        -11    1    4    4    0    0 -0.89308909296E+01 -0.21479690777E+02  0.47341192739E+02  0.52747762593E+02  0.00000000000E+00 0. -1.
         11    1    4    4    0    0  0.10364657387E+03  0.17447785352E+01  0.50227716397E+03  0.51286256051E+03  0.00000000000E+00 0.  1.
          1    1    1    2  501    0 -0.11737902457E+03  0.17723085095E+02  0.11383958811E+03  0.16447308283E+03  0.00000000000E+00 0. -1.
<scales pt_clust_5="13000.00000" pt_clust_6="13000.00000" pt_clust_7="13000.00000" pt_clust_8="13000.00000" pt_clust_9="101.98911"></scales>
<clustering>
<clus scale="   83.659">  5  6 -1 -1</clus>
<clus scale="   86.698">  2  5  1 -1</clus>
<clus scale="   92.055">  7  8 -1 -1</clus>
<clus scale="  101.989">  1  9  2 -1</clus>
<clus scale="  101.989">  1  5  2 -1</clus>
</clustering>
</event>
<event>
 9    2  0.5615294E-005  0.1569067E+03  0.7546771E-02  0.1194141E+00
          2   -1    0    0  502    0 -0.00000000000E+00  0.00000000000E+00  0.18710363340E+03  0.18710363340E+03  0.00000000000E+00 0. -1.
         21   -1    0    0  501  502  0.00000000000E+00 -0.00000000000E+00 -0.23146041202E+03  0.23146041202E+03  0.00000000000E+00 0.  1.
         24    2    1    2    0    0 -0.90693937891E+02 -0.64350712491E+02  0.44309562313E+02  0.14431226048E+03  0.80599544939E+02 0.  0.
         23    2    1    2    0    0  0.12930593872E+03  0.11448518540E+03 -0.74458398751E+02  0.20939642585E+03  0.92064795397E+02 0.  0.
        -13    1    3    3    0    0 -0.67902543032E+02 -0.65024373918E+02 -0.52025255764E+00  0.94016994295E+02  0.00000000000E+00 0.  1.
         14    1    3    3    0    0 -0.22791394859E+02  0.67366142669E+00  0.44829814870E+02  0.50295266185E+02  0.00000000000E+00 0. -1.
        -13    1    4    4    0    0  0.10965624054E+03  0.12810568720E+03 -0.51670082772E+02  0.17636710474E+03  0.00000000000E+00 0.  1.
         13    1    4    4    0    0  0.19649698176E+02 -0.13620501799E+02 -0.22788315978E+02  0.33029321107E+02  0.00000000000E+00 0. -1.
          1    1    1    2  501    0 -0.38612000826E+02 -0.50134472906E+02 -0.14207942176E+02  0.64855359087E+02  0.00000000000E+00 0. -1.
<scales pt_clust_5="13000.00000" pt_clust_6="13000.00000" pt_clust_7="13000.00000" pt_clust_8="13000.00000" pt_clust_9="63.27995"></scales>
<clustering>
<clus scale="   63.280">  2  9  1 -1</clus>
<clus scale="   80.600">  5  6 -1 -1</clus>
<clus scale="   92.065">  7  8 -1 -1</clus>
<clus scale="  150.466">  1  5  2 -1</clus>
<clus scale="   63.280">  2  5  1 -1</clus>
</clustering>
</event>
<event>
 9    2  0.5615294E-005  0.1644993E+03  0.7546771E-02  0.1185173E+00
         21   -1    0    0  501  502  0.00000000000E+00  0.00000000000E+00  0.31895534314E+03  0.31895534314E+03  0.00000000000E+00 0. -1.
         -3   -1    0    0    0  501 -0.00000000000E+00 -0.00000000000E+00 -0.17115060916E+03  0.17115060916E+03  0.00000000000E+00 0.  1.
         23    2    1    2    0    0  0.10124727679E+03 -0.98640742892E+02 -0.86015882954E+02  0.18880992557E+03  0.90936508934E+02 0.  0.
         24    2    1    2    0    0 -0.69875247340E+02  0.94747774511E+02  0.22811391261E+03  0.26917242312E+03  0.80982376338E+02 0.  0.
        -13    1    4    4    0    0  0.15764609953E+02  0.22159146305E+02  0.24226996508E+02  0.36421120957E+02  0.00000000000E+00 0.  1.
         14    1    4    4    0    0 -0.85639857293E+02  0.72588628206E+02  0.20388691610E+03  0.23275130216E+03  0.00000000000E+00 0. -1.
        -13    1    3    3    0    0  0.79897061475E+02 -0.15633167747E+02 -0.31856792416E+02  0.87423060969E+02  0.00000000000E+00 0.  1.
         13    1    3    3    0    0  0.21350215316E+02 -0.83007575145E+02 -0.54159090538E+02  0.10138686460E+03  0.00000000000E+00 0. -1.
         -4    1    1    2    0  502 -0.31372029451E+02  0.38929683813E+01  0.57067043362E+01  0.32123603613E+02  0.00000000000E+00 0.  1.
<scales pt_clust_5="13000.00000" pt_clust_6="13000.00000" pt_clust_7="13000.00000" pt_clust_8="13000.00000" pt_clust_9="31.61266"></scales>
<clustering>
<clus scale="   31.613">  1  9  2 -1</clus>
<clus scale="   80.982">  5  6 -1 -1</clus>
<clus scale="   90.937">  7  8 -1 -1</clus>
<clus scale="  159.213">  1  5  2 -1</clus>
<clus scale="   31.613">  1  5  2 -1</clus>
</clustering>
</event>
<event>
 9    2  0.5615294E-005  0.1097456E+03  0.7546771E-02  0.1265257E+00
         21   -1    0    0  501  502  0.00000000000E+00  0.00000000000E+00  0.10256136357E+04  0.10256136357E+04  0.00000000000E+00 0. -1.
          2   -1    0    0  502    0 -0.00000000000E+00 -0.00000000000E+00 -0.17620820740E+02  0.17620820740E+02  0.00000000000E+00 0. -1.
         23    2    1    2    0    0  0.65272701949E+02  0.11841751893E+02  0.50929457050E+03  0.52155210928E+03  0.90746297147E+02 0.  0.
         24    2    1    2    0    0 -0.51100107588E+02 -0.29867214673E+02  0.48470494147E+03  0.49481987768E+03  0.80028492107E+02 0.  0.
        -13    1    4    4    0    0  0.18098853883E+02 -0.86524328172E+01  0.45992270915E+02  0.50176907930E+02  0.00000000000E+00 0.  1.
         14    1    4    4    0    0 -0.69198961471E+02 -0.21214781856E+02  0.43871267056E+03  0.44464296975E+03  0.00000000000E+00 0. -1.
        -13    1    3    3    0    0  0.63484475309E+02 -0.26102757445E+02  0.39993988459E+03  0.40578755998E+03  0.00000000000E+00 0. -1.
         13    1    3    3    0    0  0.17882266410E+01  0.37944509337E+02  0.10935468591E+03  0.11576454930E+03  0.00000000000E+00 0.  1.
          1    1    1    2  501    0 -0.14172594361E+02  0.18025462780E+02  0.13993303032E+02  0.26862469527E+02  0.00000000000E+00 0. -1.
<scales pt_clust_5="13000.00000" pt_clust_6="13000.00000" pt_clust_7="13000.00000" pt_clust_8="13000.00000" pt_clust_9="22.92990"></scales>
<clustering>
<clus scale="   22.930">  1  9  2 -1</clus>
<clus scale="   80.028">  5  6 -1 -1</clus>
<clus scale="   90.746">  7  8 -1 -1</clus>
<clus scale="  101.063">  1  5  2 -1</clus>
<clus scale="   22.930">  1  5  2 -1</clus>
</clustering>
</event>
<event>
 9    2  0.5615294E-005  0.1030548E+03  0.7546771E-02  0.1284492E+00
         21   -1    0    0  501  502  0.00000000000E+00  0.00000000000E+00  0.11909583579E+03  0.11909583579E+03  0.00000000000E+00 0.  1.
         -3   -1    0    0    0  501 -0.00000000000E+00 -0.00000000000E+00 -0.34004139681E+03  0.34004139681E+03  0.00000000000E+00 0.  1.
         24    2    1    2    0    0  0.36100946351E+02 -0.13813626924E+02 -0.23613071123E+03  0.24996801228E+03  0.72333946093E+02 0.  0.
         23    2    1    2    0    0 -0.10007718734E+03  0.26377580396E+02  0.29242016537E+02  0.14247283489E+03  0.93446203661E+02 0.  0.
        -13    1    3    3    0    0  0.26366677756E+02 -0.34198741616E+02 -0.21410869932E+03  0.21841998707E+03  0.00000000000E+00 0.  1.
         14    1    3    3    0    0  0.97342685947E+01  0.20385114692E+02 -0.22022011910E+02  0.31548025210E+02  0.00000000000E+00 0. -1.
        -11    1    4    4    0    0 -0.19479453626E+02  0.34100952566E+02 -0.23571947415E+02  0.45803501879E+02  0.00000000000E+00 0.  1.
         11    1    4    4    0    0 -0.80597733712E+02 -0.77233721696E+01  0.52813963953E+02  0.96669333015E+02  0.00000000000E+00 0. -1.
         -4    1    1    2    0  502  0.63976240987E+02 -0.12563953472E+02 -0.14056866325E+02  0.66696385423E+02  0.00000000000E+00 0.  1.
<scales pt_clust_5="13000.00000" pt_clust_6="13000.00000" pt_clust_7="13000.00000" pt_clust_8="13000.00000" pt_clust_9="65.19825"></scales>
<clustering>
<clus scale="   65.198">  1  9  2 -1</clus>
<clus scale="   72.334">  5  6 -1 -1</clus>
<clus scale="   84.382">  2  5  1 -1</clus>
<clus scale="   93.446">  7  8 -1 -1</clus>
<clus scale="   65.198">  1  5  2 -1</clus>
</clustering>
</event>
<event>
 9    2  0.5615294E-005  0.1230572E+03  0.7546771E-02  0.1241731E+00
          2   -1    0    0  502    0 -0.00000000000E+00  0.00000000000E+00  0.56866765713E+03  0.56866765713E+03  0.00000000000E+00 0. -1.
         21   -1    0    0  501  502  0.00000000000E+00 -0.00000000000E+00 -0.46353700750E+02  0.46353700750E+02  0.00000000000E+00 0. -1.
         24    2    1    2    0    0 -0.38675408992E+02  0.80556251479E+02  0.34311062871E+03  0.36349008342E+03  0.80093946725E+02 0.  0.
         23    2    1    2    0    0 -0.11203390897E+02 -0.74936217974E+02  0.15571625016E+03  0.19611356731E+03  0.92043620025E+02 0.  0.
        -13    1    3    3    0    0 -0.43180468617E+02  0.47344313842E+01  0.14286055526E+03  0.14931880645E+03  0.00000000000E+00 0.  1.
         14    1    3    3    0    0  0.45050596246E+01  0.75821820094E+02  0.20025007345E+03  0.21417127698E+03  0.00000000000E+00 0. -1.
        -11    1    4    4    0    0 -0.66509087542E+00 -0.95774929054E+02  0.12211030456E+03  0.15519086913E+03  0.00000000000E+00 0.  1.
         11    1    4    4    0    0 -0.10538300022E+02  0.20838711079E+02  0.33605945605E+02  0.40922698186E+02  0.00000000000E+00 0. -1.
          1    1    1    2  501    0  0.49878799889E+02 -0.56200335042E+01  0.23487077507E+02  0.55417707141E+02  0.00000000000E+00 0. -1.
<scales pt_clust_5="13000.00000" pt_clust_6="13000.00000" pt_clust_7="13000.00000" pt_clust_8="13000.00000" pt_clust_9="50.19442"></scales>
<clustering>
<clus scale="   50.194">  2  9  1 -1</clus>
<clus scale="   80.094">  5  6 -1 -1</clus>
<clus scale="   92.044">  7  8 -1 -1</clus>
<clus scale="  114.394">  1  5  2 -1</clus>
<clus scale="   50.194">  2  5  1 -1</clus>
</clustering>
</event>
<event>
 9    2  0.5615294E-005  0.2146263E+03  0.7546771E-02  0.1157365E+00
         -1   -1    0    0    0  501 -0.00000000000E+00  0.00000000000E+00  0.67905736227E+03  0.67905736227E+03  0.00000000000E+00 0.  1.
         21   -1    0    0  501  502  0.00000000000E+00 -0.00000000000E+00 -0.15455431181E+03  0.15455431181E+03  0.00000000000E+00 0.  1.
         24    2    1    2    0    0 -0.52638869258E+02 -0.96435766826E+02  0.42067050136E+02  0.14162547419E+03  0.78850685183E+02 0.  0.
         23    2    1    2    0    0 -0.15295245973E+03  0.70964606005E+02  0.44081630256E+03  0.48068363523E+03  0.91144469561E+02 0.  0.
        -13    1    3    3    0    0 -0.13474403897E+02 -0.92179317386E+02  0.42100635010E+02  0.10223037505E+03  0.00000000000E+00 0.  1.
         14    1    3    3    0    0 -0.39164465361E+02 -0.42564494393E+01 -0.33584874015E-01  0.39395099147E+02  0.00000000000E+00 0. -1.
        -13    1    4    4    0    0 -0.45289702650E+02 -0.16438769667E+02  0.16615481805E+03  0.17299946207E+03  0.00000000000E+00 0. -1.
         13    1    4    4    0    0 -0.10766275708E+03  0.87403375672E+02  0.27466148450E+03  0.30768417316E+03  0.00000000000E+00 0.  1.
         -2    1    1    2    0  502  0.20559132899E+03  0.25471160821E+02  0.41619697769E+02  0.21130256466E+03  0.00000000000E+00 0.  1.
<scales pt_clust_5="13000.00000" pt_clust_6="13000.00000" pt_clust_7="13000.00000" pt_clust_8="13000.00000" pt_clust_9="194.31200"></scales>
<clustering>
<clus scale="   78.851">  5  6 -1 -1</clus>
<clus scale="   91.144">  7  8 -1 -1</clus>
<clus scale="  135.234">  1  5  2 -1</clus>
<clus scale="  194.312">  2  9  1 -1</clus>
<clus scale="  194.312">  2  5  1 -1</clus>
</clustering>
</event>
<event>
 9    2  0.5615294E-005  0.9323339E+02  0.7546771E-02  0.1300454E+00
          2   -1    0    0  502    0 -0.00000000000E+00  0.00000000000E+00  0.41648041636E+03  0.41648041636E+03  0.00000000000E+00 0. -1.
         21   -1    0    0  501  502  0.00000000000E+00 -0.00000000000E+00 -0.95636340400E+02  0.95636340400E+02  0.00000000000E+00 0. -1.
         24    2    1    2    0    0 -0.94904699187E+01  0.39166147599E+02  0.24453281809E+03  0.26098457374E+03  0.81808266538E+02 0.  0.
         23    2    1    2    0    0 -0.78608125629E+01  0.76632457893E+01  0.14185478195E+03  0.16873065003E+03  0.90701352742E+02 0.  0.
        -13    1    3    3    0    0  0.21651354544E+02  0.84429428923E+01  0.15789719612E+02  0.28095901546E+02  0.00000000000E+00 0.  1.
         14    1    3    3    0    0 -0.31141824463E+02  0.30723204707E+02  0.22874309847E+03  0.23288867220E+03  0.00000000000E+00 0. -1.
        -11    1    4    4    0    0  0.29052335680E+02  0.25023748082E+02  0.11142892275E+03  0.11784155041E+03  0.00000000000E+00 0. -1.
         11    1    4    4    0    0 -0.36913148243E+02 -0.17360502293E+02  0.30425859194E+02  0.50889099626E+02  0.00000000000E+00 0.  1.
          1    1    1    2  501    0  0.17351282482E+02 -0.46829393389E+02 -0.65543524077E+02  0.82401532979E+02  0.00000000000E+00 0. -1.
<scales pt_clust_5="13000.00000" pt_clust_6="13000.00000" pt_clust_7="13000.00000" pt_clust_8="13000.00000" pt_clust_9="49.94056"></scales>
<clustering>
<clus scale="   49.941">  2  9  1 -1</clus>
<clus scale="   81.808">  5  6 -1 -1</clus>
<clus scale="   84.607">  1  5  2 -1</clus>
<clus scale="   90.701">  7  8 -1 -1</clus>
<clus scale="   49.941">  2  5  1 -1</clus>
</clustering>
</event>
<event>
 9    2  0.5615294E-005  0.1108575E+03  0.7546771E-02  0.1263696E+00
         21   -1    0    0  501  502  0.00000000000E+00  0.00000000000E+00  0.42816195659E+02  0.42816195659E+02  0.00000000000E+00 0. -1.
          2   -1    0    0  502    0 -0.00000000000E+00 -0.00000000000E+00 -0.41862993866E+03  0.41862993866E+03  0.00000000000E+00 0. -1.
         24    2    1    2    0    0  0.33984436259E+02  0.49989329453E+02 -0.17472819469E+03  0.20189372674E+03  0.81100307714E+02 0.  0.
         23    2    1    2    0    0 -0.68192131608E+02 -0.17392828338E+02 -0.14924766839E+03  0.18941066465E+03  0.92999226193E+02 0.  0.
        -11    1    3    3    0    0  0.35100758216E+02 -0.51204372064E+01 -0.11620762714E+03  0.12150100703E+03  0.00000000000E+00 0.  1.
         12    1    3    3    0    0 -0.11163219570E+01  0.55109766659E+02 -0.58520567549E+02  0.80392719709E+02  0.00000000000E+00 0. -1.
        -11    1    4    4    0    0 -0.89756124489E+02 -0.26556520207E+01 -0.12386980275E+03  0.15299327568E+03  0.00000000000E+00 0. -1.
         11    1    4    4    0    0  0.21563992881E+02 -0.14737176317E+02 -0.25377865645E+02  0.36417388971E+02  0.00000000000E+00 0.  1.
          1    1    1    2  501    0  0.34207695350E+02 -0.32596501115E+02 -0.51837879922E+02  0.70141742927E+02  0.00000000000E+00 0. -1.
<scales pt_clust_5="13000.00000" pt_clust_6="13000.00000" pt_clust_7="13000.00000" pt_clust_8="13000.00000" pt_clust_9="47.25144"></scales>
<clustering>
<clus scale="   47.251">  1  9  2 -1</clus>
<clus scale="   81.100">  5  6 -1 -1</clus>
<clus scale="   92.999">  7  8 -1 -1</clus>
<clus scale="  101.083">  2  5  1 -1</clus>
<clus scale="   47.251">  1  5  2 -1</clus>
</clustering>
</event>
<event>
 9    2  0.5615294E-005  0.1929738E+03  0.7546771E-02  0.1157789E+00
          2   -1    0    0  502    0 -0.00000000000E+00  0.00000000000E+00  0.38633108351E+03  0.38633108351E+03  0.00000000000E+00 0. -1.
         21   -1    0    0  501  502  0.00000000000E+00 -0.00000000000E+00 -0.10778991873E+03  0.10778991873E+03  0.00000000000E+00 0. -1.
         24    2    1    2    0    0 -0.15074377422E+03  0.75300726646E+02  0.14015716200E+03  0.23101724934E+03  0.73014070801E+02 0.  0.
         23    2    1    2    0    0  0.16266696737E+03 -0.52327526156E+02  0.13553144083E+03  0.23706402199E+03  0.92907840380E+02 0.  0.
        -11    1    3    3    0    0 -0.36199371820E+02  0.25464799234E+01  0.49966062113E+00  0.36292268335E+02  0.00000000000E+00 0.  1.
         12    1    3    3    0    0 -0.11454440240E+03  0.72754246723E+02  0.13965750138E+03  0.19472498101E+03  0.00000000000E+00 0. -1.
        -13    1    4    4    0    0  0.34647443746E+02  0.25566922114E+02  0.18233941729E+02  0.46760982619E+02  0.00000000000E+00 0.  1.
         13    1    4    4    0    0  0.12801952362E+03 -0.77894448270E+02  0.11729749910E+03  0.19030303937E+03  0.00000000000E+00 0. -1.
          1    1    1    2  501    0 -0.11923193153E+02 -0.22973200491E+02  0.28525619483E+01  0.26039730901E+02  0.00000000000E+00 0. -1.
<scales pt_clust_5="13000.00000" pt_clust_6="13000.00000" pt_clust_7="13000.00000" pt_clust_8="13000.00000" pt_clust_9="25.88302"></scales>
<clustering>
<clus scale="   25.883">  2  9  1 -1</clus>
<clus scale="   73.014">  5  6 -1 -1</clus>
<clus scale="   92.908">  7  8 -1 -1</clus>
<clus scale="  184.223">  1  5  2 -1</clus>
<clus scale="   25.883">  2  5  1 -1</clus>
</clustering>
</event>
<event>
 9    2  0.5615294E-005  0.9953375E+02  0.7546771E-02  0.1285915E+00
         21   -1    0    0  501  502  0.00000000000E+00  0.00000000000E+00  0.78958877076E+02  0.78958877076E+02  0.00000000000E+00 0.  1.
          2   -1    0    0  502    0 -0.00000000000E+00 -0.00000000000E+00 -0.18471186592E+03  0.18471186592E+03  0.00000000000E+00 0. -1.
         23    2    1    2    0    0  0.31081732294E+02  0.90368079205E+01 -0.85399882189E+02  0.12909666157E+03  0.91241822487E+02 0.  0.
         24    2    1    2    0    0 -0.40648442461E+02 -0.36818261464E+02 -0.30814475763E+02  0.10338479884E+03  0.82042699024E+02 0.  0.
        -13    1    4    4    0    0 -0.45230339734E+02 -0.59738623179E+02 -0.27300011728E+02  0.79748212344E+02  0.00000000000E+00 0.  1.
         14    1    4    4    0    0  0.45818972734E+01  0.22920361715E+02 -0.35144640351E+01  0.23636586497E+02  0.00000000000E+00 0. -1.
        -11    1    3    3    0    0  0.21849105950E+02  0.38064831706E+02 -0.88190411113E+02  0.98508189791E+02  0.00000000000E+00 0. -1.
         11    1    3    3    0    0  0.92326263435E+01 -0.29028023786E+02  0.27905289238E+01  0.30588471779E+02  0.00000000000E+00 0.  1.
          1    1    1    2  501    0  0.95667101670E+01  0.27781453543E+02  0.10461369110E+02  0.31189282583E+02  0.00000000000E+00 0. -1.
<scales pt_clust_5="13000.00000" pt_clust_6="13000.00000" pt_clust_7="13000.00000" pt_clust_8="13000.00000" pt_clust_9="29.38250"></scales>
<clustering>
<clus scale="   29.382">  1  9  2 -1</clus>
<clus scale="   82.043">  5  6 -1 -1</clus>
<clus scale="   91.175">  1  5  2 -1</clus>
<clus scale="   91.242">  7  8 -1 -1</clus>
<clus scale="   29.382">  1  5  2 -1</clus>
</clustering>
</event>
<event>
 9    2  0.5615294E-005  0.1653269E+03  0.7546771E-02  0.1195568E+00
          2   -1    0    0  502    0 -0.00000000000E+00  0.00000000000E+00  0.13631785976E+03  0.13631785976E+03  0.00000000000E+00 0. -1.
         21   -1    0    0  501  502  0.00000000000E+00 -0.00000000000E+00 -0.36359418713E+03  0.36359418713E+03  0.00000000000E+00 0. -1.
         23    2    1    2    0    0 -0.80597692927E+02 -0.13092186792E+02 -0.52156187818E+02  0.13513864614E+03  0.94206116009E+02 0.  0.
         24    2    1    2    0    0  0.74770793528E+02 -0.13349026646E+03 -0.92468453846E+02  0.19639386069E+03  0.81300742654E+02 0.  0.
        -13    1    4    4    0    0  0.41550598716E+02 -0.31847165314E+02 -0.69516466908E+02  0.87024326275E+02  0.00000000000E+00 0.  1.
         14    1    4    4    0    0  0.33220194812E+02 -0.10164310115E+03 -0.22951986938E+02  0.10936953442E+03  0.00000000000E+00 0. -1.
        -13    1    3    3    0    0 -0.17430620308E+02 -0.46581993422E+02 -0.37164725960E+02  0.62088046282E+02  0.00000000000E+00 0.  1.
         13    1    3    3    0    0 -0.63167072619E+02  0.33489806630E+02 -0.14991461858E+02  0.73050599861E+02  0.00000000000E+00 0. -1.
          1    1    1    2  501    0  0.58268993986E+01  0.14658245325E+03 -0.82651685711E+02  0.16837954006E+03  0.00000000000E+00 0. -1.
<scales pt_clust_5="13000.00000" pt_clust_6="13000.00000" pt_clust_7="13000.00000" pt_clust_8="13000.00000" pt_clust_9="143.95545"></scales>
<clustering>
<clus scale="   81.301">  5  6 -1 -1</clus>
<clus scale="   94.206">  7  8 -1 -1</clus>
<clus scale="  124.668">  1  7  2 -1</clus>
<clus scale="  143.955">  2  9  1 -1</clus>
<clus scale="  143.955">  2  5  1 -1</clus>
</clustering>
</event>
<event>
 9    2  0.5615294E-005  0.1578683E+03  0.7546771E-02  0.1214755E+00
         21   -1    0    0  501  502  0.00000000000E+00  0.00000000000E+00  0.60282846638E+03  0.60282846638E+03  0.00000000000E+00 0. -1.
         -3   -1    0    0    0  501 -0.00000000000E+00 -0.00000000000E+00 -0.64063749875E+02  0.64063749875E+02  0.00000000000E+00 0.  1.
         24    2    1    2    0    0 -0.92574779127E+00  0.47720515334E+02  0.87654144883E+02  0.12906344856E+03  0.81829212663E+02 0.  0.
         23    2    1    2    0    0  0.22449790656E+02 -0.15181040935E+03  0.34211078243E+03  0.38558243933E+03  0.89909046163E+02 0.  0.
        -11    1    3    3    0    0 -0.14665445271E+02  0.15651644517E+02  0.91484790825E+02  0.93965505444E+02  0.00000000000E+00 0.  1.
         12    1    3    3    0    0  0.13739697480E+02  0.32068870817E+02 -0.38306459415E+01  0.35097943111E+02  0.00000000000E+00 0. -1.
        -13    1    4    4    0    0  0.38179107711E+02 -0.18339169453E+02  0.10148621507E+03  0.10997009253E+03  0.00000000000E+00 0.  1.
         13    1    4    4    0    0 -0.15729317055E+02 -0.13347123989E+03  0.24062456735E+03  0.27561234680E+03  0.00000000000E+00 0. -1.
         -4    1    1    2    0  502 -0.21524042865E+02  0.10408989401E+03  0.10899978919E+03  0.15224632837E+03  0.00000000000E+00 0.  1.
<scales pt_clust_5="13000.00000" pt_clust_6="13000.00000" pt_clust_7="13000.00000" pt_clust_8="13000.00000" pt_clust_9="129.76434"></scales>
<clustering>
<clus scale="   81.829">  5  6 -1 -1</clus>
<clus scale="   89.909">  7  8 -1 -1</clus>
<clus scale="   94.732">  2  5  1 -1</clus>
<clus scale="  129.764">  1  9  2 -1</clus>
<clus scale="  129.764">  1  5  2 -1</clus>
</clustering>
</event>
<event>
 9    2  0.5615294E-005  0.9991194E+02  0.7546771E-02  0.1286536E+00
         21   -1    0    0  501  502  0.00000000000E+00  0.00000000000E+00  0.47289600494E+02  0.47289600494E+02  0.00000000000E+00 0.  1.
          2   -1    0    0  502    0 -0.00000000000E+00 -0.00000000000E+00 -0.37156180484E+03  0.37156180484E+03  0.00000000000E+00 0. -1.
         24    2    1    2    0    0 -0.23564873346E+02  0.31304740629E+02 -0.19949348829E+03  0.21873711842E+03  0.80703067271E+02 0.  0.
         23    2    1    2    0    0  0.47584910360E+02  0.53829601890E+00 -0.12170896648E+03  0.16010973062E+03  0.92506431469E+02 0.  0.
        -11    1    3    3    0    0  0.28244508784E+02  0.24469210328E+02 -0.87877567484E+02  0.95493253152E+02  0.00000000000E+00 0.  1.
         12    1    3    3    0    0 -0.51809382130E+02  0.68355303009E+01 -0.11161592080E+03  0.12324386527E+03  0.00000000000E+00 0. -1.
        -11    1    4    4    0    0 -0.21959325530E+02  0.15693484433E+02 -0.60448516240E+02  0.66200608358E+02  0.00000000000E+00 0. -1.
         11    1    4    4    0    0  0.69544235891E+02 -0.15155188414E+02 -0.61260450237E+02  0.93909122266E+02  0.00000000000E+00 0.  1.
          1    1    1    2  501    0 -0.24020037014E+02 -0.31843036648E+02 -0.30697495842E+01  0.40004556286E+02  0.00000000000E+00 0. -1.
<scales pt_clust_5="13000.00000" pt_clust_6="13000.00000" pt_clust_7="13000.00000" pt_clust_8="13000.00000" pt_clust_9="39.88660"></scales>
<clustering>
<clus scale="   39.887">  1  9  2 -1</clus>
<clus scale="   80.703">  5  6 -1 -1</clus>
<clus scale="   89.095">  2  5  1 -1</clus>
<clus scale="   92.506">  7  8 -1 -1</clus>
<clus scale="   39.887">  1  5  2 -1</clus>
</clustering>
</event>
<event>
 9    2  0.5615294E-005  0.1217523E+03  0.7546771E-02  0.1242965E+00
          2   -1    0    0  502    0 -0.00000000000E+00  0.00000000000E+00  0.10213171260E+04  0.10213171260E+04  0.00000000000E+00 0. -1.
         21   -1    0    0  501  502  0.00000000000E+00 -0.00000000000E+00 -0.41481687364E+02  0.41481687364E+02  0.00000000000E+00 0.  1.
         24    2    1    2    0    0  0.59872214405E+02 -0.49005638208E+02  0.81769972429E+03  0.82548628536E+03  0.82513838744E+02 0.  0.
         23    2    1    2    0    0 -0.91968737006E+02  0.47383502094E+02  0.14736407453E+03  0.20194277492E+03  0.91439974983E+02 0.  0.
        -11    1    3    3    0    0  0.27840306693E+02 -0.10234437300E+02  0.69076839256E+02  0.75176034114E+02  0.00000000000E+00 0.  1.
         12    1    3    3    0    0  0.32031907712E+02 -0.38771200908E+02  0.74862288503E+03  0.75031025124E+03  0.00000000000E+00 0. -1.
        -11    1    4    4    0    0 -0.74762190136E+02  0.67891237908E+01  0.38240371391E+02  0.84248461588E+02  0.00000000000E+00 0.  1.
         11    1    4    4    0    0 -0.17206546870E+02  0.40594378303E+02  0.10912370314E+03  0.11769431334E+03  0.00000000000E+00 0. -1.
          1    1    1    2  501    0  0.32096522600E+02  0.16221361142E+01  0.14771639784E+02  0.35369753046E+02  0.00000000000E+00 0. -1.
<scales pt_clust_5="13000.00000" pt_clust_6="13000.00000" pt_clust_7="13000.00000" pt_clust_8="13000.00000" pt_clust_9="32.13749"></scales>
<clustering>
<clus scale="   32.137">  2  9  1 -1</clus>
<clus scale="   82.514">  5  6 -1 -1</clus>
<clus scale="   91.440">  7  8 -1 -1</clus>
<clus scale="  115.199">  1  5  2 -1</clus>
<clus scale="   32.137">  2  5  1 -1</clus>
</clustering>
</event>
<event>
 9    2  0.5615294E-005  0.1790964E+03  0.7546771E-02  0.1169779E+00
          2   -1    0    0  502    0 -0.00000000000E+00  0.00000000000E+00  0.14274457461E+04  0.14274457461E+04  0.00000000000E+00 0. -1.
         21   -1    0    0  501  502  0.00000000000E+00 -0.00000000000E+00 -0.29914523952E+02  0.29914523952E+02  0.00000000000E+00 0. -1.
         24    2    1    2    0    0  0.17599025180E+03 -0.17366502850E+02  0.82696030099E+03  0.84957195498E+03  0.81455528523E+02 0.  0.
         23    2    1    2    0    0 -0.12342893020E+03  0.18918081048E+02  0.38078767937E+03  0.41085487762E+03  0.90608383178E+02 0.  0.
        -13    1    3    3    0    0  0.68694717606E+02 -0.55267034068E+00  0.16449810586E+03  0.17826636391E+03  0.00000000000E+00 0.  1.
         14    1    3    3    0    0  0.10729553420E+03 -0.16813832509E+02  0.66246219513E+03  0.67130559107E+03  0.00000000000E+00 0. -1.
        -13    1    4    4    0    0 -0.92438357228E+02 -0.29127263902E+02  0.22957202437E+03  0.24919181720E+03  0.00000000000E+00 0. -1.
         13    1    4    4    0    0 -0.30990572969E+02  0.48045344951E+02  0.15121565500E+03  0.16166306041E+03  0.00000000000E+00 0.  1.
          1    1    1    2  501    0 -0.52561321603E+02 -0.15515781988E+01  0.18978324178E+03  0.19693343745E+03  0.00000000000E+00 0. -1.
<scales pt_clust_5="13000.00000" pt_clust_6="13000.00000" pt_clust_7="13000.00000" pt_clust_8="13000.00000" pt_clust_9="52.58424"></scales>
<clustering>
<clus scale="   52.584">  2  9  1 -1</clus>
<clus scale="   81.456">  5  6 -1 -1</clus>
<clus scale="   90.608">  7  8 -1 -1</clus>
<clus scale="  174.644">  1  5  2 -1</clus>
<clus scale="   52.584">  2  5  1 -1</clus>
</clustering>
</event>
<event>
 9    2  0.5615294E-005  0.1575105E+03  0.7546771E-02  0.1218785E+00
         21   -1    0    0  501  502  0.00000000000E+00  0.00000000000E+00  0.96363812611E+02  0.96363812611E+02  0.00000000000E+00 0. -1.
          2   -1    0    0  502    0 -0.00000000000E+00 -0.00000000000E+00 -0.93834107004E+03  0.93834107004E+03  0.00000000000E+00 0. -1.
         24    2    1    2    0    0  0.20971723691E+02 -0.30181136321E+02 -0.19644364909E+03  0.21509000779E+03  0.79516602027E+02 0.  0.
         23    2    1    2    0    0 -0.14291311116E+03  0.25199882152E+02 -0.67226048947E+03  0.69467952739E+03  0.97909594366E+02 0.  0.
        -13    1    3    3    0    0  0.49383104294E+01 -0.37981566238E+02 -0.19320895036E+03  0.19696874062E+03  0.00000000000E+00 0.  1.
         14    1    3    3    0    0  0.16033413261E+02  0.78004299171E+01 -0.32346987292E+01  0.18121267162E+02  0.00000000000E+00 0. -1.
        -13    1    4    4    0    0 -0.10706077012E+03  0.45888133172E+02 -0.60172515356E+03  0.61289549655E+03  0.00000000000E+00 0. -1.
         13    1    4    4    0    0 -0.35852341044E+02 -0.20688251019E+02 -0.70535335918E+02  0.81784030847E+02  0.00000000000E+00 0.  1.
          1    1    1    2  501    0  0.12194138747E+03  0.49812541687E+01  0.26726881138E+02  0.12493534747E+03  0.00000000000E+00 0. -1.
<scales pt_clust_5="13000.00000" pt_clust_6="13000.00000" pt_clust_7="13000.00000" pt_clust_8="13000.00000" pt_clust_9="123.38258"></scales>
<clustering>
<clus scale="   79.517">  5  6 -1 -1</clus>
<clus scale="   87.599">  2  5  1 -1</clus>
<clus scale="   97.910">  7  8 -1 -1</clus>
<clus scale="  123.383">  1  9  2 -1</clus>
<clus scale="  123.383">  1  5  2 -1</clus>
</clustering>
</event>
<event>
 9    2  0.5615294E-005  0.1540358E+03  0.7546771E-02  0.1197481E+00
         -3   -1    0    0    0  501 -0.00000000000E+00  0.00000000000E+00  0.56503314460E+03  0.56503314460E+03  0.00000000000E+00 0.  1.
         21   -1    0    0  501  502  0.00000000000E+00 -0.00000000000E+00 -0.78530924697E+02  0.78530924697E+02  0.00000000000E+00 0.  1.
         24    2    1    2    0    0  0.14573661192E+03  0.27560848297E+02  0.20789133258E+03  0.26755961297E+03  0.79815912697E+02 0.  0.
         23    2    1    2    0    0 -0.96032353744E+02  0.42726928662E+02  0.81797016849E+02  0.16118689540E+03  0.90789095620E+02 0.  0.
        -11    1    3    3    0    0  0.13147100917E+03  0.50801549395E+02  0.17902368342E+03  0.22784842088E+03  0.00000000000E+00 0.  1.
         12    1    3    3    0    0  0.14265602755E+02 -0.23240701098E+02  0.28867649156E+02  0.39711192091E+02  0.00000000000E+00 0. -1.
        -13    1    4    4    0    0 -0.22045622777E+01  0.36627773131E+02  0.49814956102E+02  0.61870701554E+02  0.00000000000E+00 0. -1.
         13    1    4    4    0    0 -0.93827791467E+02  0.60991555310E+01  0.31982060748E+02  0.99316193842E+02  0.00000000000E+00 0.  1.
         -4    1    1    2    0  502 -0.49704258179E+02 -0.70287776959E+02  0.19681387047E+03  0.21481756092E+03  0.00000000000E+00 0.  1.
<scales pt_clust_5="13000.00000" pt_clust_6="13000.00000" pt_clust_7="13000.00000" pt_clust_8="13000.00000" pt_clust_9="86.08654"></scales>
<clustering>
<clus scale="   79.816">  5  6 -1 -1</clus>
<clus scale="   86.087">  2  9  1 -1</clus>
<clus scale="   90.789">  7  8 -1 -1</clus>
<clus scale="  147.834">  1  5  2 -1</clus>
<clus scale="   86.087">  2  5  1 -1</clus>
</clustering>
</event>
<event>
 9    2  0.5615294E-005  0.1429611E+03  0.7546771E-02  0.1223282E+00
          2   -1    0    0  502    0 -0.00000000000E+00  0.00000000000E+00  0.42287356778E+03  0.42287356778E+03  0.00000000000E+00 0. -1.
         21   -1    0    0  501  502  0.00000000000E+00 -0.00000000000E+00 -0.93486754640E+02  0.93486754640E+02  0.00000000000E+00 0. -1.
         24    2    1    2    0    0  0.68119317812E+02 -0.15551167599E+02  0.19173319098E+03  0.21938415837E+03  0.80533919242E+02 0.  0.
         23    2    1    2    0    0  0.61663318204E+01  0.10077391653E+03  0.11534917871E+03  0.18174264950E+03  0.97629666177E+02 0.  0.
        -13    1    3    3    0    0  0.72816927079E+02 -0.37075252155E+02  0.16905381157E+03  0.18776599904E+03  0.00000000000E+00 0.  1.
         14    1    3    3    0    0 -0.46976092667E+01  0.21524084556E+02  0.22679379414E+02  0.31618159329E+02  0.00000000000E+00 0. -1.
        -11    1    4    4    0    0 -0.35722930802E+01  0.11935649013E+03  0.99906492330E+02  0.15569213283E+03  0.00000000000E+00 0. -1.
         11    1    4    4    0    0  0.97386249006E+01 -0.18582573598E+02  0.15442686378E+02  0.26050516675E+02  0.00000000000E+00 0.  1.
          1    1    1    2  501    0 -0.74285649633E+02 -0.85222748935E+02  0.22304443456E+02  0.11523351455E+03  0.00000000000E+00 0. -1.
<scales pt_clust_5="13000.00000" pt_clust_6="13000.00000" pt_clust_7="13000.00000" pt_clust_8="13000.00000" pt_clust_9="104.43328"></scales>
<clustering>
<clus scale="   80.534">  5  6 -1 -1</clus>
<clus scale="   97.630">  7  8 -1 -1</clus>
<clus scale="  106.620">  1  5  2 -1</clus>
<clus scale="  104.433">  2  9  1 -1</clus>
<clus scale="  104.433">  2  5  1 -1</clus>
</clustering>
</event>
<event>
 9    2  0.5615294E-005  0.1600304E+03  0.7546771E-02  0.1207338E+00
         21   -1    0    0  501  502  0.00000000000E+00  0.00000000000E+00  0.11777112070E+03  0.11777112070E+03  0.00000000000E+00 0.  1.
          2   -1    0    0  502    0 -0.00000000000E+00 -0.00000000000E+00 -0.10320811747E+04  0.10320811747E+04  0.00000000000E+00 0. -1.
         24    2    1    2    0    0 -0.31952983353E+02 -0.62571551802E+02 -0.75009246665E+03  0.75761823607E+03  0.80065540951E+02 0.  0.
         23    2    1    2    0    0 -0.92086282348E+02 -0.58675395994E+02  0.72922606104E+01  0.14830335252E+03  0.10009006850E+03 0.  0.
        -13    1    3    3    0    0  0.17075990554E+02 -0.21920373024E+02 -0.83755393855E+02  0.88244309770E+02  0.00000000000E+00 0.  1.
         14    1    3    3    0    0 -0.49028973908E+02 -0.40651178779E+02 -0.66633707280E+03  0.66937392630E+03  0.00000000000E+00 0. -1.
        -11    1    4    4    0    0 -0.23722061164E+02 -0.16572159054E+02 -0.44266029033E+02  0.52885290658E+02  0.00000000000E+00 0. -1.
         11    1    4    4    0    0 -0.68364221183E+02 -0.42103236939E+02  0.51558289643E+02  0.95418061863E+02  0.00000000000E+00 0.  1.
          1    1    1    2  501    0  0.12403926570E+03  0.12124694780E+03 -0.17150984797E+03  0.24393070684E+03  0.00000000000E+00 0. -1.
<scales pt_clust_5="13000.00000" pt_clust_6="13000.00000" pt_clust_7="13000.00000" pt_clust_8="13000.00000" pt_clust_9="124.86686"></scales>
<clustering>
<clus scale="   80.066">  5  6 -1 -1</clus>
<clus scale="  100.090">  7  8 -1 -1</clus>
<clus scale="  106.521">  2  5  1 -1</clus>
<clus scale="  124.867">  1  9  2 -1</clus>
<clus scale="  124.867">  1  5  2 -1</clus>
</clustering>
</event>
<event>
 9    2  0.5615294E-005  0.1545385E+03  0.7546771E-02  0.1208622E+00
         21   -1    0    0  501  502  0.00000000000E+00  0.00000000000E+00  0.13048227210E+03  0.13048227210E+03  0.00000000000E+00 0. -1.
          2   -1    0    0  502    0 -0.00000000000E+00 -0.00000000000E+00 -0.32031621849E+03  0.32031621849E+03  0.00000000000E+00 0. -1.
         24    2    1    2    0    0 -0.20990772204E+02 -0.83717287720E+02 -0.54442414015E+02  0.12730417375E+03  0.76112938653E+02 0.  0.
         23    2    1    2    0    0  0.82044040821E+02 -0.55390513645E+02 -0.10122805934E+03  0.16778425005E+03  0.90028334043E+02 0.  0.
        -11    1    3    3    0    0  0.75210149414E+01 -0.65116863850E+02 -0.64342077962E+02  0.91851372444E+02  0.00000000000E+00 0.  1.
         12    1    3    3    0    0 -0.28511787146E+02 -0.18600423870E+02  0.98996639477E+01  0.35452801309E+02  0.00000000000E+00 0. -1.
        -11    1    4    4    0    0  0.12471128279E+02 -0.52537231777E+02 -0.13275707842E+02  0.55605163268E+02  0.00000000000E+00 0.  1.
         11    1    4    4    0    0  0.69572912542E+02 -0.28532818676E+01 -0.87952351497E+02  0.11217908678E+03  0.00000000000E+00 0. -1.
          1    1    1    2  501    0 -0.61053268616E+02  0.13910780137E+03 -0.34163473034E+02  0.15571006679E+03  0.00000000000E+00 0. -1.
<scales pt_clust_5="13000.00000" pt_clust_6="13000.00000" pt_clust_7="13000.00000" pt_clust_8="13000.00000" pt_clust_9="125.60672"></scales>
<clustering>
<clus scale="   76.113">  5  6 -1 -1</clus>
<clus scale="   90.028">  7  8 -1 -1</clus>
<clus scale="  115.076">  2  5  1 -1</clus>
<clus scale="  125.607">  1  9  2 -1</clus>
<clus scale="  125.607">  1  5  2 -1</clus>
</clustering>
</event>
<event>
 9    2  0.5615294E-005  0.2027468E+03  0.7546771E-02  0.1148592E+00
         21   -1    0    0  501  502  0.00000000000E+00  0.00000000000E+00  0.16880892060E+03  0.16880892060E+03  0.00000000000E+00 0. -1.
          2   -1    0    0  502    0 -0.00000000000E+00 -0.00000000000E+00 -0.74677397353E+03  0.74677397353E+03  0.00000000000E+00 0. -1.
         24    2    1    2    0    0 -0.15494080375E+03  0.27565593647E+02 -0.28204247517E+02  0.17886016560E+03  0.80180824643E+02 0.  0.
         23    2    1    2    0    0  0.20010252857E+03  0.10700517439E+03 -0.99451869389E+02  0.26457125827E+03  0.92823203422E+02 0.  0.
        -11    1    3    3    0    0 -0.64789858444E+02 -0.20581561787E+02 -0.34944133413E+02  0.76435717455E+02  0.00000000000E+00 0.  1.
         12    1    3    3    0    0 -0.90150945305E+02  0.48147155434E+02  0.67398858962E+01  0.10242444814E+03  0.00000000000E+00 0. -1.
        -11    1    4    4    0    0  0.69636902059E+02  0.35643660266E+02  0.11451987258E+02  0.79062738744E+02  0.00000000000E+00 0.  1.
         11    1    4    4    0    0  0.13046562651E+03  0.71361514119E+02 -0.11090385665E+03  0.18550851953E+03  0.00000000000E+00 0. -1.
          1    1    1    2  501    0 -0.45161724823E+02 -0.13457076803E+03 -0.45030893603E+03  0.47215147025E+03  0.00000000000E+00 0. -1.
<scales pt_clust_5="13000.00000" pt_clust_6="13000.00000" pt_clust_7="13000.00000" pt_clust_8="13000.00000" pt_clust_9="141.94680"></scales>
<clustering>
<clus scale="   80.181">  5  6 -1 -1</clus>
<clus scale="   92.823">  7  8 -1 -1</clus>
<clus scale="  141.947">  1  9  2 -1</clus>
<clus scale="  197.279">  2  5  1 -1</clus>
<clus scale="  141.947">  1  5  2 -1</clus>
</clustering>
</event>
<event>
 9    2  0.5615294E-005  0.1033385E+03  0.7546771E-02  0.1278381E+00
         21   -1    0    0  501  502  0.00000000000E+00  0.00000000000E+00  0.26900382298E+03  0.26900382298E+03  0.00000000000E+00 0. -1.
         -1   -1    0    0    0  501 -0.00000000000E+00 -0.00000000000E+00 -0.97700757867E+02  0.97700757867E+02  0.00000000000E+00 0.  1.
         24    2    1    2    0    0  0.17291506031E+02  0.44032624343E+02 -0.43696551746E+02  0.10245674783E+03  0.79687692611E+02 0.  0.
         23    2    1    2    0    0 -0.24746968326E+02 -0.64843466561E+02  0.21353280545E+03  0.24209322610E+03  0.90530566797E+02 0.  0.
        -11    1    3    3    0    0  0.12387708174E+02  0.64692922096E+02 -0.47067368154E+02  0.80956572482E+02  0.00000000000E+00 0.  1.
         12    1    3    3    0    0  0.49037978574E+01 -0.20660297752E+02  0.33708164082E+01  0.21500175346E+02  0.00000000000E+00 0. -1.
        -11    1    4    4    0    0  0.22044870042E+02  0.10835964850E+02  0.56409722407E+02  0.61526020604E+02  0.00000000000E+00 0.  1.
         11    1    4    4    0    0 -0.46791838368E+02 -0.75679431411E+02  0.15712308304E+03  0.18056720550E+03  0.00000000000E+00 0. -1.
         -2    1    1    2    0  502  0.74554622951E+01  0.20810842218E+02  0.14668114093E+01  0.22154606916E+02  0.00000000000E+00 0.  1.
<scales pt_clust_5="13000.00000" pt_clust_6="13000.00000" pt_clust_7="13000.00000" pt_clust_8="13000.00000" pt_clust_9="22.10601"></scales>
<clustering>
<clus scale="   22.106">  1  9  2 -1</clus>
<clus scale="   79.688">  5  6 -1 -1</clus>
<clus scale="   90.531">  7  8 -1 -1</clus>
<clus scale="   93.985">  2  5  1 -1</clus>
<clus scale="   22.106">  1  5  2 -1</clus>
</clustering>
</event>
<event>
 9    2  0.5615294E-005  0.1107502E+03  0.7546771E-02  0.1266603E+00
          2   -1    0    0  502    0 -0.00000000000E+00  0.00000000000E+00  0.37618030934E+03  0.37618030934E+03  0.00000000000E+00 0. -1.
         21   -1    0    0  501  502  0.00000000000E+00 -0.00000000000E+00 -0.14696459049E+03  0.14696459049E+03  0.00000000000E+00 0. -1.
         24    2    1    2    0    0 -0.24364502028E+02 -0.53193620331E+02  0.24563331325E+03  0.26461116961E+03  0.79121149515E+02 0.  0.
         23    2    1    2    0    0  0.81946620534E+02 -0.11481114434E+02  0.62131681387E+02  0.14162132534E+03  0.96691206181E+02 0.  0.
        -13    1    3    3    0    0 -0.12396857036E+02  0.16523596287E+02  0.22548846378E+02  0.30580414837E+02  0.00000000000E+00 0.  1.
         14    1    3    3    0    0 -0.11967644992E+02 -0.69717216618E+02  0.22308446687E+03  0.23403075477E+03  0.00000000000E+00 0. -1.
        -11    1    4    4    0    0  0.80147090424E+02  0.21501475596E+02  0.15406000845E+02  0.84399137544E+02  0.00000000000E+00 0. -1.
         11    1    4    4    0    0  0.17995301108E+01 -0.32982590030E+02  0.46725680543E+02  0.57222187794E+02  0.00000000000E+00 0.  1.
          1    1    1    2  501    0 -0.57582118507E+02  0.64674734765E+02 -0.78549275784E+02  0.11691240488E+03  0.00000000000E+00 0. -1.
<scales pt_clust_5="13000.00000" pt_clust_6="13000.00000" pt_clust_7="13000.00000" pt_clust_8="13000.00000" pt_clust_9="86.59400"></scales>
<clustering>
<clus scale="   79.121">  5  6 -1 -1</clus>
<clus scale="   86.594">  2  9  1 -1</clus>
<clus scale="   95.794">  1  5  2 -1</clus>
<clus scale="   96.691">  7  8 -1 -1</clus>
<clus scale="   86.594">  2  5  1 -1</clus>
</clustering>
</event>
<event>
 9    2  0.5615294E-005  0.9630781E+02  0.7546771E-02  0.1291877E+00
          2   -1    0    0  502    0 -0.00000000000E+00  0.00000000000E+00  0.26409049051E+03  0.26409049051E+03  0.00000000000E+00 0. -1.
         21   -1    0    0  501  502  0.00000000000E+00 -0.00000000000E+00 -0.55455869058E+02  0.55455869058E+02  0.00000000000E+00 0.  1.
         24    2    1    2    0    0 -0.46226514654E+02 -0.36333712467E+01  0.11265510343E+03  0.14713929420E+03  0.82514892739E+02 0.  0.
         23    2    1    2    0    0  0.13619819596E+02  0.32827259614E+02  0.82237213427E+02  0.12653408186E+03  0.89357630567E+02 0.  0.
        -13    1    3    3    0    0 -0.58580700810E+02  0.22675389478E+02  0.92331202469E+02  0.11167328573E+03  0.00000000000E+00 0.  1.
         14    1    3    3    0    0  0.12354186157E+02 -0.26308760725E+02  0.20323900962E+02  0.35466008470E+02  0.00000000000E+00 0. -1.
        -11    1    4    4    0    0 -0.30749167703E+02  0.39717201823E+02  0.52620539072E+02  0.72745368013E+02  0.00000000000E+00 0.  1.
         11    1    4    4    0    0  0.44368987299E+02 -0.68899422088E+01  0.29616674355E+02  0.53788713848E+02  0.00000000000E+00 0. -1.
          1    1    1    2  501    0  0.32606695057E+02 -0.29193888367E+02  0.13742304593E+02  0.45872983510E+02  0.00000000000E+00 0. -1.
<scales pt_clust_5="13000.00000" pt_clust_6="13000.00000" pt_clust_7="13000.00000" pt_clust_8="13000.00000" pt_clust_9="43.76619"></scales>
<clustering>
<clus scale="   43.766">  2  9  1 -1</clus>
<clus scale="   82.515">  5  6 -1 -1</clus>
<clus scale="   89.358">  7  8 -1 -1</clus>
<clus scale="   89.995">  1  5  2 -1</clus>
<clus scale="   43.766">  2  5  1 -1</clus>
</clustering>
</event>
<event>
 9    2  0.5615294E-005  0.1323081E+03  0.7546771E-02  0.1227280E+00
         21   -1    0    0  501  502  0.00000000000E+00  0.00000000000E+00  0.40418677608E+02  0.40418677608E+02  0.00000000000E+00 0. -1.
          2   -1    0    0  502    0 -0.00000000000E+00 -0.00000000000E+00 -0.82062031726E+03  0.82062031726E+03  0.00000000000E+00 0. -1.
         24    2    1    2    0    0 -0.10826483583E+03 -0.60884949461E+02 -0.38137248472E+03  0.40890079839E+03  0.79540172713E+02 0.  0.
         23    2    1    2    0    0  0.34414182146E+02  0.37178498203E+02 -0.10669110271E+03  0.14987910821E+03  0.92272309064E+02 0.  0.
        -11    1    3    3    0    0 -0.46059188153E+02 -0.21474901333E+02 -0.57397501669E+02  0.76662203193E+02  0.00000000000E+00 0.  1.
         12    1    3    3    0    0 -0.62205647679E+02 -0.39410048128E+02 -0.32397498305E+03  0.33223859520E+03  0.00000000000E+00 0. -1.
        -13    1    4    4    0    0  0.27055005145E+02 -0.24687344663E+02 -0.16280609931E+02  0.40081124605E+02  0.00000000000E+00 0.  1.
         13    1    4    4    0    0  0.73591770008E+01  0.61865842867E+02 -0.90410492781E+02  0.10979798361E+03  0.00000000000E+00 0. -1.
          1    1    1    2  501    0  0.73850653686E+02  0.23706451258E+02 -0.29213805222E+03  0.30225908826E+03  0.00000000000E+00 0. -1.
<scales pt_clust_5="13000.00000" pt_clust_6="13000.00000" pt_clust_7="13000.00000" pt_clust_8="13000.00000" pt_clust_9="77.56237"></scales>
<clustering>
<clus scale="   77.562">  1  9  2 -1</clus>
<clus scale="   79.540">  5  6 -1 -1</clus>
<clus scale="   92.272">  7  8 -1 -1</clus>
<clus scale="  123.765">  2  5  1 -1</clus>
<clus scale="   77.562">  1  5  2 -1</clus>
</clustering>
</event>
<event>
 9    2  0.5615294E-005  0.1008288E+03  0.7546771E-02  0.1279169E+00
         21   -1    0    0  501  502  0.00000000000E+00  0.00000000000E+00  0.25014521053E+02  0.25014521053E+02  0.00000000000E+00 0. -1.
          2   -1    0    0  502    0 -0.00000000000E+00 -0.00000000000E+00 -0.64109088465E+03  0.64109088465E+03  0.00000000000E+00 0. -1.
         24    2    1    2    0    0  0.20304504522E+02 -0.59243269693E+02 -0.20717367609E+03  0.23033986190E+03  0.78825643091E+02 0.  0.
         23    2    1    2    0    0  0.15951620384E+02  0.66449515451E+02 -0.21644835176E+03  0.23979333169E+03  0.77336670784E+02 0.  0.
        -11    1    3    3    0    0  0.32421983296E+02  0.71291209530E+01 -0.69800795928E+02  0.77292693566E+02  0.00000000000E+00 0.  1.
         12    1    3    3    0    0 -0.12117478775E+02 -0.66372390646E+02 -0.13737288016E+03  0.15304716834E+03  0.00000000000E+00 0. -1.
        -11    1    4    4    0    0 -0.25471530108E+02  0.43558907826E+02 -0.14965145039E+03  0.15792952195E+03  0.00000000000E+00 0.  1.
         11    1    4    4    0    0  0.41423150492E+02  0.22890607624E+02 -0.66796901368E+02  0.81863809748E+02  0.00000000000E+00 0. -1.
          1    1    1    2  501    0 -0.36256124906E+02 -0.72062457572E+01 -0.19245433575E+03  0.19597221211E+03  0.00000000000E+00 0. -1.
<scales pt_clust_5="13000.00000" pt_clust_6="13000.00000" pt_clust_7="13000.00000" pt_clust_8="13000.00000" pt_clust_9="36.96536"></scales>
<clustering>
<clus scale="   36.965">  1  9  2 -1</clus>
<clus scale="   77.337">  7  8 -1 -1</clus>
<clus scale="   78.826">  5  6 -1 -1</clus>
<clus scale="   99.669">  1  7  2 -1</clus>
<clus scale="   36.965">  1  5  2 -1</clus>
</clustering>
</event>
<event>
 9    2  0.5615294E-005  0.1135448E+03  0.7546771E-02  0.1258967E+00
         21   -1    0    0  501  502  0.00000000000E+00  0.00000000000E+00  0.15841383765E+03  0.15841383765E+03  0.00000000000E+00 0. -1.
         -1   -1    0    0    0  501 -0.00000000000E+00 -0.00000000000E+00 -0.10446721561E+03  0.10446721561E+03  0.00000000000E+00 0.  1.
         24    2    1    2    0    0 -0.70236088116E+02  0.29215896140E+02 -0.42195535353E+01  0.11012108981E+03  0.79512094217E+02 0.  0.
         23    2    1    2    0    0  0.53917068309E+02  0.17571017606E+00  0.38418876984E+02  0.11377108387E+03  0.92524419950E+02 0.  0.
        -11    1    3    3    0    0 -0.15334249625E+02 -0.27159612605E+02  0.14675264586E+01  0.31223987610E+02  0.00000000000E+00 0.  1.
         12    1    3    3    0    0 -0.54901838491E+02  0.56375508745E+02 -0.56870799938E+01  0.78897102195E+02  0.00000000000E+00 0. -1.
        -13    1    4    4    0    0  0.31999450660E+02 -0.11072305045E+02 -0.27358246830E+02  0.43531993421E+02  0.00000000000E+00 0.  1.
         13    1    4    4    0    0  0.21917617649E+02  0.11248015221E+02  0.65777123814E+02  0.70239090449E+02  0.00000000000E+00 0. -1.
         -2    1    1    2    0  502  0.16319019807E+02 -0.29391606316E+02  0.19747298591E+02  0.38988879581E+02  0.00000000000E+00 0.  1.
<scales pt_clust_5="13000.00000" pt_clust_6="13000.00000" pt_clust_7="13000.00000" pt_clust_8="13000.00000" pt_clust_9="33.61810"></scales>
<clustering>
<clus scale="   33.618">  1  9  2 -1</clus>
<clus scale="   79.512">  5  6 -1 -1</clus>
<clus scale="   92.524">  7  8 -1 -1</clus>
<clus scale="  103.217">  2  5  1 -1</clus>
<clus scale="   33.618">  1  5  2 -1</clus>
</clustering>
</event>
<event>
 9    2  0.5615294E-005  0.2076281E+03  0.7546771E-02  0.1164985E+00
         21   -1    0    0  501  502  0.00000000000E+00  0.00000000000E+00  0.16619974422E+03  0.16619974422E+03  0.00000000000E+00 0.  1.
          2   -1    0    0  502    0 -0.00000000000E+00 -0.00000000000E+00 -0.71467479819E+03  0.71467479819E+03  0.00000000000E+00 0. -1.
         23    2    1    2    0    0  0.52117216494E+02  0.87450641602E+02 -0.23272272347E+02  0.12728747995E+03  0.72778327267E+02 0.  0.
         24    2    1    2    0    0  0.17811553119E+03 -0.61398196323E+02 -0.28236216312E+02  0.20526086845E+03  0.76418971724E+02 0.  0.
        -13    1    4    4    0    0  0.73504511309E+02 -0.64076789548E+02 -0.27254538174E+01  0.97550890514E+02  0.00000000000E+00 0.  1.
         14    1    4    4    0    0  0.10461101989E+03  0.26785932250E+01 -0.25510762495E+02  0.10770997793E+03  0.00000000000E+00 0. -1.
        -11    1    3    3    0    0  0.21502820381E+02  0.26190716037E+02  0.26174474763E+02  0.42818547616E+02  0.00000000000E+00 0. -1.
         11    1    3    3    0    0  0.30614396113E+02  0.61259925565E+02 -0.49446747110E+02  0.84468932332E+02  0.00000000000E+00 0.  1.
          1    1    1    2  501    0 -0.23023274769E+03 -0.26052445279E+02 -0.49696656530E+03  0.54832619401E+03  0.00000000000E+00 0. -1.
<scales pt_clust_5="13000.00000" pt_clust_6="13000.00000" pt_clust_7="13000.00000" pt_clust_8="13000.00000" pt_clust_9="193.05342"></scales>
<clustering>
<clus scale="   72.778">  7  8 -1 -1</clus>
<clus scale="   76.419">  5  6 -1 -1</clus>
<clus scale="  125.142">  2  7  1 -1</clus>
<clus scale="  193.053">  1  9  2 -1</clus>
<clus scale="  193.053">  1  5  2 -1</clus>
</clustering>
</event>
<event>
 9    2  0.5615294E-005  0.1003774E+03  0.7546771E-02  0.1283790E+00
         21   -1    0    0  501  502  0.00000000000E+00  0.00000000000E+00  0.25326914390E+02  0.25326914390E+02  0.00000000000E+00 0.  1.
          2   -1    0    0  502    0 -0.00000000000E+00 -0.00000000000E+00 -0.79353960527E+03  0.79353960527E+03  0.00000000000E+00 0. -1.
         24    2    1    2    0    0 -0.94049233677E+01 -0.34504241027E+02 -0.43740158742E+03  0.44644846806E+03  0.81957859429E+02 0.  0.
         23    2    1    2    0    0  0.63367481697E+01  0.56275647691E+02 -0.33353744387E+03  0.35026312485E+03  0.90718946579E+02 0.  0.
        -13    1    3    3    0    0  0.17033666822E+02  0.21314257980E+02 -0.11593213156E+03  0.11909954881E+03  0.00000000000E+00 0.  1.
         14    1    3    3    0    0 -0.26438590189E+02 -0.55818499007E+02 -0.32146945586E+03  0.32734891925E+03  0.00000000000E+00 0. -1.
        -13    1    4    4    0    0 -0.28127674215E+02  0.60895534520E+02 -0.26565570389E+03  0.27399340355E+03  0.00000000000E+00 0.  1.
         13    1    4    4    0    0  0.34464422385E+02 -0.46198868282E+01 -0.67881739985E+02  0.76269721306E+02  0.00000000000E+00 0. -1.
          1    1    1    2  501    0  0.30681751979E+01 -0.21771406665E+02  0.27263404093E+01  0.22154926749E+02  0.00000000000E+00 0. -1.
<scales pt_clust_5="13000.00000" pt_clust_6="13000.00000" pt_clust_7="13000.00000" pt_clust_8="13000.00000" pt_clust_9="21.98654"></scales>
<clustering>
<clus scale="   21.987">  1  9  2 -1</clus>
<clus scale="   81.958">  5  6 -1 -1</clus>
<clus scale="   90.719">  7  8 -1 -1</clus>
<clus scale="   92.535">  2  5  1 -1</clus>
<clus scale="   21.987">  1  5  2 -1</clus>
</clustering>
</event>
<event>
 9    2  0.5615294E-005  0.1600262E+03  0.7546771E-02  0.1188944E+00
         21   -1    0    0  501  502  0.00000000000E+00  0.00000000000E+00  0.41739630921E+02  0.41739630921E+02  0.00000000000E+00 0.  1.
          2   -1    0    0  502    0 -0.00000000000E+00 -0.00000000000E+00 -0.12229209801E+04  0.12229209801E+04  0.00000000000E+00 0. -1.
         24    2    1    2    0    0  0.12344622282E+03 -0.53949240902E+02 -0.86123512679E+03  0.87670234769E+03  0.93442882597E+02 0.  0.
         23    2    1    2    0    0 -0.10105733378E+03  0.57967596819E+02 -0.33033082124E+03  0.36295327518E+03  0.95098903834E+02 0.  0.
        -11    1    3    3    0    0  0.69423456880E+02 -0.77091695642E+02 -0.60344054481E+03  0.61229342396E+03  0.00000000000E+00 0.  1.
         12    1    3    3    0    0  0.54022765943E+02  0.23142454740E+02 -0.25779458198E+03  0.26440892374E+03  0.00000000000E+00 0. -1.
        -13    1    4    4    0    0 -0.48028110871E+01  0.47223448157E+02 -0.64912711602E+02  0.80416299204E+02  0.00000000000E+00 0.  1.
         13    1    4    4    0    0 -0.96254522693E+02  0.10744148662E+02 -0.26541810964E+03  0.28253697598E+03  0.00000000000E+00 0. -1.
          1    1    1    2  501    0 -0.22388889043E+02 -0.40183559172E+01  0.10384598883E+02  0.25004988119E+02  0.00000000000E+00 0. -1.
<scales pt_clust_5="13000.00000" pt_clust_6="13000.00000" pt_clust_7="13000.00000" pt_clust_8="13000.00000" pt_clust_9="22.74664"></scales>
<clustering>
<clus scale="   22.747">  1  9  2 -1</clus>
<clus scale="   93.443">  5  6 -1 -1</clus>
<clus scale="   95.099">  7  8 -1 -1</clus>
<clus scale="  159.048">  2  5  1 -1</clus>
<clus scale="   22.747">  1  5  2 -1</clus>
</clustering>
</event>
<event>
 9    2  0.5615294E-005  0.9418127E+02  0.7546771E-02  0.1299800E+00
         21   -1    0    0  501  502  0.00000000000E+00  0.00000000000E+00  0.25376926297E+03  0.25376926297E+03  0.00000000000E+00 0. -1.
          2   -1    0    0  502    0 -0.00000000000E+00 -0.00000000000E+00 -0.93729075405E+02  0.93729075405E+02  0.00000000000E+00 0. -1.
         23    2    1    2    0    0 -0.21950968806E+02 -0.19432842249E+02 -0.36230797714E+02  0.10321560093E+03  0.92094023601E+02 0.  0.
         24    2    1    2    0    0 -0.12099931686E+02  0.77688911513E+01  0.55520938415E+02  0.99003395238E+02  0.80699031280E+02 0.  0.
        -11    1    4    4    0    0  0.31393244599E+02 -0.11236961603E+02  0.14865189682E+02  0.36507245538E+02  0.00000000000E+00 0.  1.
         12    1    4    4    0    0 -0.43493176284E+02  0.19005852754E+02  0.40655748733E+02  0.62496149700E+02  0.00000000000E+00 0. -1.
        -11    1    3    3    0    0 -0.33177991963E+02  0.14968318148E+02 -0.52220263670E+02  0.63653638047E+02  0.00000000000E+00 0. -1.
         11    1    3    3    0    0  0.11227023158E+02 -0.34401160397E+02  0.15989465956E+02  0.39561962883E+02  0.00000000000E+00 0.  1.
          1    1    1    2  501    0  0.34050900491E+02  0.11663951097E+02  0.14075004686E+03  0.14527934221E+03  0.00000000000E+00 0. -1.
<scales pt_clust_5="13000.00000" pt_clust_6="13000.00000" pt_clust_7="13000.00000" pt_clust_8="13000.00000" pt_clust_9="35.99322"></scales>
<clustering>
<clus scale="   35.993">  1  9  2 -1</clus>
<clus scale="   80.699">  5  6 -1 -1</clus>
<clus scale="   83.073">  1  5  2 -1</clus>
<clus scale="   92.094">  7  8 -1 -1</clus>
<clus scale="   35.993">  1  5  2 -1</clus>
</clustering>
</event>
<event>
 9    2  0.5615294E-005  0.1609858E+03  0.7546771E-02  0.1189069E+00
         21   -1    0    0  501  502  0.00000000000E+00  0.00000000000E+00  0.62618388663E+02  0.62618388663E+02  0.00000000000E+00 0.  1.
          4   -1    0    0  502    0 -0.00000000000E+00 -0.00000000000E+00 -0.73627978075E+03  0.73627978075E+03  0.00000000000E+00 0. -1.
         24    2    1    2    0    0 -0.13189569675E+01 -0.16797541630E+03 -0.29238386599E+03  0.34677762293E+03  0.80925364075E+02 0.  0.
         23    2    1    2    0    0  0.12143219581E+02  0.93921082182E+02 -0.11111857270E+03  0.17178669343E+03  0.90524600974E+02 0.  0.
        -13    1    3    3    0    0  0.29057142496E+02 -0.13470205863E+03 -0.18807582137E+03  0.23315547756E+03  0.00000000000E+00 0.  1.
         14    1    3    3    0    0 -0.30376099463E+02 -0.33273357665E+02 -0.10430804461E+03  0.11362214538E+03  0.00000000000E+00 0. -1.
        -13    1    4    4    0    0 -0.24343053523E+02  0.75361113096E+02 -0.10321196486E+03  0.13009454759E+03  0.00000000000E+00 0.  1.
         13    1    4    4    0    0  0.36486273104E+02  0.18559969086E+02 -0.79066078393E+01  0.41692145844E+02  0.00000000000E+00 0. -1.
          3    1    1    2  501    0 -0.10824262614E+02  0.74054334114E+02 -0.27015895340E+03  0.28033385305E+03  0.00000000000E+00 0. -1.
<scales pt_clust_5="13000.00000" pt_clust_6="13000.00000" pt_clust_7="13000.00000" pt_clust_8="13000.00000" pt_clust_9="74.84126"></scales>
<clustering>
<clus scale="   74.841">  1  9  2 -1</clus>
<clus scale="   80.925">  5  6 -1 -1</clus>
<clus scale="   90.525">  7  8 -1 -1</clus>
<clus scale="  155.790">  2  5  1 -1</clus>
<clus scale="   74.841">  1  5  2 -1</clus>
</clustering>
</event>
<event>
 9    2  0.5615294E-005  0.9179915E+02  0.7546771E-02  0.1304667E+00
          2   -1    0    0  502    0 -0.00000000000E+00  0.00000000000E+00  0.17772980353E+03  0.17772980353E+03  0.00000000000E+00 0. -1.
         21   -1    0    0  501  502  0.00000000000E+00 -0.00000000000E+00 -0.82239738847E+02  0.82239738847E+02  0.00000000000E+00 0.  1.
         23    2    1    2    0    0  0.18068265753E+02 -0.25911487476E+02  0.64703463949E+02  0.11563995663E+03  0.90488639683E+02 0.  0.
         24    2    1    2    0    0  0.29133576569E+02 -0.37463029687E+00  0.92656804685E+01  0.86173554976E+02  0.80567506546E+02 0.  0.
        -13    1    4    4    0    0  0.32096552216E+02 -0.30783760312E+02 -0.15235155141E+02  0.47009983145E+02  0.00000000000E+00 0.  1.
         14    1    4    4    0    0 -0.29629756476E+01  0.30409130015E+02  0.24500835610E+02  0.39163571831E+02  0.00000000000E+00 0. -1.
        -13    1    3    3    0    0  0.14976370691E+01  0.31997476032E+02  0.82294575940E+01  0.33072728365E+02  0.00000000000E+00 0. -1.
         13    1    3    3    0    0  0.16570628683E+02 -0.57908963508E+02  0.56474006355E+02  0.82567228265E+02  0.00000000000E+00 0.  1.
          1    1    1    2  501    0 -0.47201842321E+02  0.26286117773E+02  0.21520920266E+02  0.58156030772E+02  0.00000000000E+00 0. -1.
<scales pt_clust_5="13000.00000" pt_clust_6="13000.00000" pt_clust_7="13000.00000" pt_clust_8="13000.00000" pt_clust_9="54.02756"></scales>
<clustering>
<clus scale="   54.028">  2  9  1 -1</clus>
<clus scale="   80.568">  5  6 -1 -1</clus>
<clus scale="   82.037">  2  5  1 -1</clus>
<clus scale="   90.489">  7  8 -1 -1</clus>
<clus scale="   54.028">  2  5  1 -1</clus>
</clustering>
</event>
<event>
 9    2  0.5615294E-005  0.9689968E+02  0.7546771E-02  0.1292522E+00
         21   -1    0    0  501  502  0.00000000000E+00  0.00000000000E+00  0.46520117951E+02  0.46520117951E+02  0.00000000000E+00 0. -1.
          2   -1    0    0  502    0 -0.00000000000E+00 -0.00000000000E+00 -0.91330224034E+03  0.91330224034E+03  0.00000000000E+00 0. -1.
         24    2    1    2    0    0  0.34532876699E+02  0.20542480265E+02 -0.71798566489E+03  0.72359684389E+03  0.80464056819E+02 0.  0.
         23    2    1    2    0    0 -0.13184059364E+02  0.81435280041E+01 -0.17093471459E+03  0.19416886809E+03  0.90789515990E+02 0.  0.
        -13    1    3    3    0    0 -0.19777471678E+02  0.24921715170E+02 -0.17361070382E+03  0.17650188881E+03  0.00000000000E+00 0.  1.
         14    1    3    3    0    0  0.54310348377E+02 -0.43792349045E+01 -0.54437496107E+03  0.54709495508E+03  0.00000000000E+00 0. -1.
        -13    1    4    4    0    0  0.65983940877E+01 -0.36790746032E+02 -0.42110633869E+02  0.56306334306E+02  0.00000000000E+00 0.  1.
         13    1    4    4    0    0 -0.19782453451E+02  0.44934274036E+02 -0.12882408072E+03  0.13786253378E+03  0.00000000000E+00 0. -1.
          1    1    1    2  501    0 -0.21348817335E+02 -0.28686008269E+02  0.22138257087E+02  0.42056646310E+02  0.00000000000E+00 0. -1.
<scales pt_clust_5="13000.00000" pt_clust_6="13000.00000" pt_clust_7="13000.00000" pt_clust_8="13000.00000" pt_clust_9="35.75834"></scales>
<clustering>
<clus scale="   35.758">  1  9  2 -1</clus>
<clus scale="   80.464">  5  6 -1 -1</clus>
<clus scale="   87.300">  2  5  1 -1</clus>
<clus scale="   90.790">  7  8 -1 -1</clus>
<clus scale="   35.758">  1  5  2 -1</clus>
</clustering>
</event>
<event>
 9    2  0.5615294E-005  0.9255928E+02  0.7546771E-02  0.1301604E+00
         21   -1    0    0  501  502  0.00000000000E+00  0.00000000000E+00  0.58413540089E+02  0.58413540089E+02  0.00000000000E+00 0.  1.
          2   -1    0    0  502    0 -0.00000000000E+00 -0.00000000000E+00 -0.37018318325E+03  0.37018318325E+03  0.00000000000E+00 0. -1.
         24    2    1    2    0    0 -0.36660434280E+02 -0.63378074662E+01 -0.15775006850E+03  0.18072294928E+03  0.79947139033E+02 0.  0.
         23    2    1    2    0    0 -0.12203559779E+02  0.19525298562E+02 -0.59790074517E+01  0.91420556205E+02  0.88271203750E+02 0.  0.
        -11    1    3    3    0    0  0.13306306516E+02  0.16153913113E+02 -0.10110533561E+02  0.23242839560E+02  0.00000000000E+00 0.  1.
         12    1    3    3    0    0 -0.49966740796E+02 -0.22491720579E+02 -0.14763953493E+03  0.15748010972E+03  0.00000000000E+00 0. -1.
        -11    1    4    4    0    0 -0.35721509241E+02  0.36904463809E+02  0.17137207961E+02  0.54144709513E+02  0.00000000000E+00 0.  1.
         11    1    4    4    0    0  0.23517949463E+02 -0.17379165247E+02 -0.23116215413E+02  0.37275846692E+02  0.00000000000E+00 0. -1.
          1    1    1    2  501    0  0.48863994059E+02 -0.13187491096E+02 -0.14804056721E+03  0.15645321785E+03  0.00000000000E+00 0. -1.
<scales pt_clust_5="13000.00000" pt_clust_6="13000.00000" pt_clust_7="13000.00000" pt_clust_8="13000.00000" pt_clust_9="50.61228"></scales>
<clustering>
<clus scale="   50.612">  1  9  2 -1</clus>
<clus scale="   79.947">  5  6 -1 -1</clus>
<clus scale="   84.658">  2  5  1 -1</clus>
<clus scale="   88.271">  7  8 -1 -1</clus>
<clus scale="   50.612">  1  5  2 -1</clus>
</clustering>
</event>
<event>
 9    2  0.5615294E-005  0.1577053E+03  0.7546771E-02  0.1192712E+00
          2   -1    0    0  502    0 -0.00000000000E+00  0.00000000000E+00  0.32085077654E+03  0.32085077654E+03  0.00000000000E+00 0. -1.
         21   -1    0    0  501  502  0.00000000000E+00 -0.00000000000E+00 -0.28747300417E+03  0.28747300417E+03  0.00000000000E+00 0.  1.
         23    2    1    2    0    0 -0.12494932358E+03  0.57016555980E+02  0.26463489075E+03  0.31107972975E+03  0.88745432206E+02 0.  0.
         24    2    1    2    0    0  0.75549456741E+02 -0.53007807188E+02 -0.10296774858E+03  0.15971376588E+03  0.79928603937E+02 0.  0.
        -11    1    4    4    0    0  0.23423643002E+02 -0.12714302875E+02 -0.88276327420E+02  0.92211878475E+02  0.00000000000E+00 0.  1.
         12    1    4    4    0    0  0.52125813739E+02 -0.40293504313E+02 -0.14691421163E+02  0.67501887407E+02  0.00000000000E+00 0. -1.
        -13    1    3    3    0    0 -0.82622624864E+02  0.56468001100E+02  0.24453342484E+03  0.26421909308E+03  0.00000000000E+00 0. -1.
         13    1    3    3    0    0 -0.42326698714E+02  0.54855487973E+00  0.20101465915E+02  0.46860636662E+02  0.00000000000E+00 0.  1.
          1    1    1    2  501    0  0.49399866837E+02 -0.40087487918E+01 -0.12828936980E+03  0.13753028508E+03  0.00000000000E+00 0. -1.
<scales pt_clust_5="13000.00000" pt_clust_6="13000.00000" pt_clust_7="13000.00000" pt_clust_8="13000.00000" pt_clust_9="49.56225"></scales>
<clustering>
<clus scale="   49.562">  2  9  1 -1</clus>
<clus scale="   79.929">  5  6 -1 -1</clus>
<clus scale="   88.745">  7  8 -1 -1</clus>
<clus scale="  152.918">  2  5  1 -1</clus>
<clus scale="   49.562">  2  5  1 -1</clus>
</clustering>
</event>
<event>
 9    2  0.5615294E-005  0.9538344E+02  0.7546771E-02  0.1298703E+00
          2   -1    0    0  502    0 -0.00000000000E+00  0.00000000000E+00  0.41818783963E+03  0.41818783963E+03  0.00000000000E+00 0. -1.
         21   -1    0    0  501  502  0.00000000000E+00 -0.00000000000E+00 -0.36124135879E+02  0.36124135879E+02  0.00000000000E+00 0. -1.
         23    2    1    2    0    0 -0.21903202350E+02  0.27781299573E+02  0.12340086020E+03  0.15727968344E+03  0.90871203604E+02 0.  0.
         24    2    1    2    0    0 -0.91261794908E+01 -0.28600776990E+02  0.76121681587E+02  0.11187082229E+03  0.76284198078E+02 0.  0.
        -13    1    4    4    0    0 -0.62123313131E+01  0.25018802137E+02  0.38387266169E+02  0.46239763458E+02  0.00000000000E+00 0.  1.
         14    1    4    4    0    0 -0.29138481777E+01 -0.53619579127E+02  0.37734415418E+02  0.65631058835E+02  0.00000000000E+00 0. -1.
        -11    1    3    3    0    0  0.13275351383E+02  0.48498819937E+02  0.39390553516E+02  0.63874769635E+02  0.00000000000E+00 0. -1.
         11    1    3    3    0    0 -0.35178553733E+02 -0.20717520364E+02  0.84010306688E+02  0.93404913804E+02  0.00000000000E+00 0.  1.
          1    1    1    2  501    0  0.31029381841E+02  0.81947741706E+00  0.18254116196E+03  0.18516146977E+03  0.00000000000E+00 0. -1.
<scales pt_clust_5="13000.00000" pt_clust_6="13000.00000" pt_clust_7="13000.00000" pt_clust_8="13000.00000" pt_clust_9="31.04022"></scales>
<clustering>
<clus scale="   31.040">  2  9  1 -1</clus>
<clus scale="   76.284">  5  6 -1 -1</clus>
<clus scale="   81.607">  2  5  1 -1</clus>
<clus scale="   90.871">  7  8 -1 -1</clus>
<clus scale="   31.040">  2  5  1 -1</clus>
</clustering>
</event>
<event>
 9    2  0.5615294E-005  0.1049907E+03  0.7546771E-02  0.1273027E+00
          2   -1    0    0  502    0 -0.00000000000E+00  0.00000000000E+00  0.18352427478E+03  0.18352427478E+03  0.00000000000E+00 0. -1.
         21   -1    0    0  501  502  0.00000000000E+00 -0.00000000000E+00 -0.13279076666E+03  0.13279076666E+03  0.00000000000E+00 0. -1.
         24    2    1    2    0    0 -0.41284512437E+02 -0.10716712134E+02  0.11068103030E+03  0.14720028205E+03  0.87168650794E+02 0.  0.
         23    2    1    2    0    0  0.68089676535E+02 -0.45993244760E+01 -0.18301650327E+02  0.11727388322E+03  0.93599441471E+02 0.  0.
        -13    1    3    3    0    0  0.92020815359E+01 -0.24467118501E+02  0.15655031428E+01  0.26187191381E+02  0.00000000000E+00 0.  1.
         14    1    3    3    0    0 -0.50486593973E+02  0.13750406367E+02  0.10911552716E+03  0.12101309067E+03  0.00000000000E+00 0. -1.
        -11    1    4    4    0    0  0.47990844523E+02  0.23179421699E+02 -0.48142174894E+02  0.71819744860E+02  0.00000000000E+00 0.  1.
         11    1    4    4    0    0  0.20098832012E+02 -0.27778746175E+02  0.29840524567E+02  0.45454138356E+02  0.00000000000E+00 0. -1.
          1    1    1    2  501    0 -0.26805164098E+02  0.15316036610E+02 -0.41645871852E+02  0.51840876170E+02  0.00000000000E+00 0. -1.
<scales pt_clust_5="13000.00000" pt_clust_6="13000.00000" pt_clust_7="13000.00000" pt_clust_8="13000.00000" pt_clust_9="30.87228"></scales>
<clustering>
<clus scale="   30.872">  2  9  1 -1</clus>
<clus scale="   87.169">  5  6 -1 -1</clus>
<clus scale="   93.599">  7  8 -1 -1</clus>
<clus scale="   99.300">  1  5  2 -1</clus>
<clus scale="   30.872">  2  5  1 -1</clus>
</clustering>
</event>
<event>
 9    2  0.5615294E-005  0.2029347E+03  0.7546771E-02  0.1171269E+00
          2   -1    0    0  502    0 -0.00000000000E+00  0.00000000000E+00  0.80403448233E+03  0.80403448233E+03  0.00000000000E+00 0. -1.
         21   -1    0    0  501  502  0.00000000000E+00 -0.00000000000E+00 -0.95969663354E+02  0.95969663354E+02  0.00000000000E+00 0. -1.
         23    2    1    2    0    0 -0.55890615460E+02 -0.49438967892E+02  0.39240239745E+02  0.12248322299E+03  0.88850273242E+02 0.  0.
         24    2    1    2    0    0 -0.10633247045E+03 -0.10037270452E+03  0.37050603554E+03  0.40636890492E+03  0.80496524308E+02 0.  0.
        -13    1    4    4    0    0 -0.31810080964E+01 -0.48783348897E+02  0.14606457644E+03  0.15402855070E+03  0.00000000000E+00 0.  1.
         14    1    4    4    0    0 -0.10315146235E+03 -0.51589355623E+02  0.22444145911E+03  0.25234035421E+03  0.00000000000E+00 0. -1.
        -11    1    3    3    0    0  0.76907592407E+01 -0.47980890612E+02  0.16809282731E+01  0.48622414188E+02  0.00000000000E+00 0. -1.
         11    1    3    3    0    0 -0.63581374701E+02 -0.14580772808E+01  0.37559311472E+02  0.73860808799E+02  0.00000000000E+00 0.  1.
          1    1    1    2  501    0  0.16222308591E+03  0.14981167241E+03  0.29831854369E+03  0.37115201778E+03  0.00000000000E+00 0. -1.
<scales pt_clust_5="13000.00000" pt_clust_6="13000.00000" pt_clust_7="13000.00000" pt_clust_8="13000.00000" pt_clust_9="186.28690"></scales>
<clustering>
<clus scale="   80.497">  5  6 -1 -1</clus>
<clus scale="   88.850">  7  8 -1 -1</clus>
<clus scale="  116.027">  1  7  2 -1</clus>
<clus scale="  186.287">  2  9  1 -1</clus>
<clus scale="  186.287">  2  5  1 -1</clus>
</clustering>
</event>
<event>
 9    2  0.5615294E-005  0.1700539E+03  0.7546771E-02  0.1179649E+00
          2   -1    0    0  502    0 -0.00000000000E+00  0.00000000000E+00  0.17817396465E+03  0.17817396465E+03  0.00000000000E+00 0. -1.
         21   -1    0    0  501  502  0.00000000000E+00 -0.00000000000E+00 -0.41942866220E+03  0.41942866220E+03  0.00000000000E+00 0. -1.
         23    2    1    2    0    0 -0.66122567337E+02 -0.10383435510E+03 -0.13162527479E+02  0.15368681721E+03  0.91063815231E+02 0.  0.
         24    2    1    2    0    0  0.19191918041E+03  0.60214734404E+02 -0.49384582412E+02  0.22106190894E+03  0.77270593075E+02 0.  0.
        -13    1    4    4    0    0  0.55925588419E+02 -0.89381358579E+01  0.96897320769E+01  0.57458268512E+02  0.00000000000E+00 0.  1.
         14    1    4    4    0    0  0.13599359199E+03  0.69152870262E+02 -0.59074314489E+02  0.16360364042E+03  0.00000000000E+00 0. -1.
        -11    1    3    3    0    0 -0.27132822619E+02  0.12896461095E+02 -0.32842882865E+01  0.30220776324E+02  0.00000000000E+00 0.  1.
         11    1    3    3    0    0 -0.38989744717E+02 -0.11673081619E+03 -0.98782391924E+01  0.12346604089E+03  0.00000000000E+00 0. -1.
          1    1    1    2  501    0 -0.12579661307E+03  0.43619620695E+02 -0.17870758766E+03  0.22285390070E+03  0.00000000000E+00 0. -1.
<scales pt_clust_5="13000.00000" pt_clust_6="13000.00000" pt_clust_7="13000.00000" pt_clust_8="13000.00000" pt_clust_9="133.14450"></scales>
<clustering>
<clus scale="   77.271">  5  6 -1 -1</clus>
<clus scale="   91.064">  7  8 -1 -1</clus>
<clus scale="  133.145">  2  9  1 -1</clus>
<clus scale="  163.084">  2  5  1 -1</clus>
<clus scale="  133.145">  2  5  1 -1</clus>
</clustering>
</event>
<event>
 9    2  0.5615294E-005  0.1173212E+03  0.7546771E-02  0.1255596E+00
         21   -1    0    0  501  502  0.00000000000E+00  0.00000000000E+00  0.30448025861E+03  0.30448025861E+03  0.00000000000E+00 0. -1.
         -1   -1    0    0    0  501 -0.00000000000E+00 -0.00000000000E+00 -0.14071980386E+03  0.14071980386E+03  0.00000000000E+00 0.  1.
         24    2    1    2    0    0 -0.49516040115E+02 -0.82368686304E+01 -0.88789524980E+02  0.14739330588E+03  0.10640264395E+03 0.  0.
         23    2    1    2    0    0  0.38402748154E+02  0.38443570634E+02  0.10487016296E+03  0.14666021053E+03  0.86941285276E+02 0.  0.
        -13    1    3    3    0    0 -0.23921245436E+02 -0.56681534984E+02 -0.35850477652E+02  0.71205892588E+02  0.00000000000E+00 0.  1.
         14    1    3    3    0    0 -0.25594794678E+02  0.48444666354E+02 -0.52939047328E+02  0.76187413296E+02  0.00000000000E+00 0. -1.
        -13    1    4    4    0    0  0.12850441785E+02 -0.23053738002E+02  0.53751545570E+01  0.26935125328E+02  0.00000000000E+00 0.  1.
         13    1    4    4    0    0  0.25552306369E+02  0.61497308636E+02  0.99495008400E+02  0.11972508520E+03  0.00000000000E+00 0. -1.
         -2    1    1    2    0  502  0.11113291961E+02 -0.30206702004E+02  0.14767981677E+03  0.15114654606E+03  0.00000000000E+00 0.  1.
<scales pt_clust_5="13000.00000" pt_clust_6="13000.00000" pt_clust_7="13000.00000" pt_clust_8="13000.00000" pt_clust_9="32.18618"></scales>
<clustering>
<clus scale="   32.186">  1  9  2 -1</clus>
<clus scale="   86.941">  7  8 -1 -1</clus>
<clus scale="  100.008">  1  7  2 -1</clus>
<clus scale="  106.403">  5  6 -1 -1</clus>
<clus scale="   32.186">  1  5  2 -1</clus>
</clustering>
</event>
<event>
 9    2  0.5615294E-005  0.1404789E+03  0.7546771E-02  0.1215887E+00
         21   -1    0    0  501  502  0.00000000000E+00  0.00000000000E+00  0.85286048175E+02  0.85286048175E+02  0.00000000000E+00 0.  1.
          2   -1    0    0  502    0 -0.00000000000E+00 -0.00000000000E+00 -0.41509011309E+03  0.41509011309E+03  0.00000000000E+00 0. -1.
         24    2    1    2    0    0  0.91300942138E+02 -0.64353570523E+02 -0.31853784845E+03  0.34573055629E+03  0.74739631942E+02 0.  0.
         23    2    1    2    0    0 -0.66476992960E+02  0.64434529007E+02 -0.13167384896E+02  0.12974882912E+03  0.89946536959E+02 0.  0.
        -13    1    3    3    0    0  0.76194227631E+02 -0.34947682996E+02 -0.13258584711E+03  0.15686270342E+03  0.00000000000E+00 0.  1.
         14    1    3    3    0    0  0.15106714507E+02 -0.29405887528E+02 -0.18595200134E+03  0.18886785286E+03  0.00000000000E+00 0. -1.
        -11    1    4    4    0    0 -0.38556218148E+02 -0.15336771624E+02  0.88146718943E+01  0.42420478101E+02  0.00000000000E+00 0. -1.
         11    1    4    4    0    0 -0.27920774812E+02  0.79771300631E+02 -0.21982056791E+02  0.87328351016E+02  0.00000000000E+00 0.  1.
          1    1    1    2  501    0 -0.24823949178E+02 -0.80958483188E-01  0.19011684251E+01  0.24896775864E+02  0.00000000000E+00 0. -1.
<scales pt_clust_5="13000.00000" pt_clust_6="13000.00000" pt_clust_7="13000.00000" pt_clust_8="13000.00000" pt_clust_9="24.82408"></scales>
<clustering>
<clus scale="   24.824">  1  9  2 -1</clus>
<clus scale="   74.740">  5  6 -1 -1</clus>
<clus scale="   89.947">  7  8 -1 -1</clus>
<clus scale="  131.263">  2  5  1 -1</clus>
<clus scale="   24.824">  1  5  2 -1</clus>
</clustering>
</event>
<event>
 9    2  0.5615294E-005  0.1254920E+03  0.7546771E-02  0.1237035E+00
          4   -1    0    0  502    0 -0.00000000000E+00  0.00000000000E+00  0.65166356945E+02  0.65166356945E+02  0.00000000000E+00 0. -1.
         21   -1    0    0  501  502  0.00000000000E+00 -0.00000000000E+00 -0.32179729583E+03  0.32179729583E+03  0.00000000000E+00 0. -1.
         23    2    1    2    0    0  0.10306808042E+03  0.88639313831E+01 -0.86544008175E+02  0.16343746214E+03  0.92305688872E+02 0.  0.
         24    2    1    2    0    0 -0.62745868871E+02 -0.59647603407E+01 -0.13097002614E+03  0.16727302930E+03  0.82791884606E+02 0.  0.
        -11    1    4    4    0    0 -0.38197007576E+02  0.26100321808E+02 -0.22329459493E+02  0.51369669529E+02  0.00000000000E+00 0.  1.
         12    1    4    4    0    0 -0.24548861295E+02 -0.32065082149E+02 -0.10864056665E+03  0.11590335977E+03  0.00000000000E+00 0. -1.
        -13    1    3    3    0    0  0.26237276021E+02  0.22290401982E+02  0.13154714599E+02  0.36855165034E+02  0.00000000000E+00 0.  1.
         13    1    3    3    0    0  0.76830804404E+02 -0.13426470599E+02 -0.99698722775E+02  0.12658229711E+03  0.00000000000E+00 0. -1.
          3    1    1    2  501    0 -0.40322211553E+02 -0.28991710425E+01 -0.39116904574E+02  0.56253161340E+02  0.00000000000E+00 0. -1.
<scales pt_clust_5="13000.00000" pt_clust_6="13000.00000" pt_clust_7="13000.00000" pt_clust_8="13000.00000" pt_clust_9="40.42630"></scales>
<clustering>
<clus scale="   40.426">  2  9  1 -1</clus>
<clus scale="   82.792">  5  6 -1 -1</clus>
<clus scale="   92.306">  7  8 -1 -1</clus>
<clus scale="  118.669">  2  5  1 -1</clus>
<clus scale="   40.426">  2  5  1 -1</clus>
</clustering>
</event>
<event>
 9    2  0.5615294E-005  0.9822789E+02  0.7546771E-02  0.1289045E+00
          4   -1    0    0  502    0 -0.00000000000E+00  0.00000000000E+00  0.71675778056E+02  0.71675778056E+02  0.00000000000E+00 0. -1.
         21   -1    0    0  501  502  0.00000000000E+00 -0.00000000000E+00 -0.28213754023E+03  0.28213754023E+03  0.00000000000E+00 0.  1.
         24    2    1    2    0    0  0.41542415899E+01  0.42781954448E+02 -0.82004503832E+01  0.89076617682E+02  0.77587647739E+02 0.  0.
         23    2    1    2    0    0  0.22882453443E+02 -0.46542634542E+02 -0.56439546044E+02  0.11638201427E+03  0.87575837884E+02 0.  0.
        -11    1    3    3    0    0  0.23751082211E+00 -0.22514208683E+02 -0.72577094801E+01  0.23656296222E+02  0.00000000000E+00 0.  1.
         12    1    3    3    0    0  0.39167307678E+01  0.65296163132E+02 -0.94274090313E+00  0.65420321461E+02  0.00000000000E+00 0. -1.
        -11    1    4    4    0    0 -0.21084848449E+02  0.14981259950E+02 -0.10595240394E+02  0.27951173550E+02  0.00000000000E+00 0. -1.
         11    1    4    4    0    0  0.43967301892E+02 -0.61523894492E+02 -0.45844305649E+02  0.88430840715E+02  0.00000000000E+00 0.  1.
          3    1    1    2  501    0 -0.27036695033E+02  0.37606800939E+01 -0.14582176575E+03  0.14835468634E+03  0.00000000000E+00 0. -1.
<scales pt_clust_5="13000.00000" pt_clust_6="13000.00000" pt_clust_7="13000.00000" pt_clust_8="13000.00000" pt_clust_9="27.29699"></scales>
<clustering>
<clus scale="   27.297">  2  9  1 -1</clus>
<clus scale="   77.588">  5  6 -1 -1</clus>
<clus scale="   87.576">  7  8 -1 -1</clus>
<clus scale="   89.437">  1  5  2 -1</clus>
<clus scale="   27.297">  2  5  1 -1</clus>
</clustering>
</event>
<event>
 9    2  0.5615294E-005  0.1238158E+03  0.7546771E-02  0.1238383E+00
          2   -1    0    0  502    0 -0.00000000000E+00  0.00000000000E+00  0.78743800072E+03  0.78743800072E+03  0.00000000000E+00 0. -1.
         21   -1    0    0  501  502  0.00000000000E+00 -0.00000000000E+00 -0.45503036181E+02  0.45503036181E+02  0.00000000000E+00 0. -1.
         23    2    1    2    0    0 -0.10984515531E+03 -0.87144353777E+01  0.44925893389E+03  0.47060672341E+03  0.86574816812E+02 0.  0.
         24    2    1    2    0    0  0.30858246792E+02 -0.64525441755E+01  0.37786766132E+02  0.95056356766E+02  0.81326530391E+02 0.  0.
        -11    1    4    4    0    0  0.27785887096E+02 -0.11307713672E+02  0.62690545897E+02  0.69498377356E+02  0.00000000000E+00 0.  1.
         12    1    4    4    0    0  0.30723596959E+01  0.48551694964E+01 -0.24903779765E+02  0.25557979410E+02  0.00000000000E+00 0. -1.
        -11    1    3    3    0    0 -0.46043910823E+02 -0.29617307676E+02  0.32300427476E+03  0.32761103179E+03  0.00000000000E+00 0. -1.
         11    1    3    3    0    0 -0.63801244490E+02  0.20902872298E+02  0.12625465913E+03  0.14299569162E+03  0.00000000000E+00 0.  1.
          1    1    1    2  501    0  0.78986908520E+02  0.15166979553E+02  0.25488926452E+03  0.26727795673E+03  0.00000000000E+00 0. -1.
<scales pt_clust_5="13000.00000" pt_clust_6="13000.00000" pt_clust_7="13000.00000" pt_clust_8="13000.00000" pt_clust_9="80.42994"></scales>
<clustering>
<clus scale="   80.430">  2  9  1 -1</clus>
<clus scale="   81.327">  5  6 -1 -1</clus>
<clus scale="   86.575">  7  8 -1 -1</clus>
<clus scale="  120.205">  2  5  1 -1</clus>
<clus scale="   80.430">  2  5  1 -1</clus>
</clustering>
</event>
<event>
 9    2  0.7469988E-005  0.8205625E+02  0.7546771E-02  0.1323401E+00
          2   -1    0    0  502    0 -0.00000000000E+00  0.00000000000E+00  0.12317549133E+04  0.12317549133E+04  0.00000000000E+00 0. -1.
         21   -1    0    0  501  502  0.00000000000E+00 -0.00000000000E+00 -0.49832906305E+02  0.49832906305E+02  0.00000000000E+00 0. -1.
         24    2    1    2    0    0  0.25669529662E+02 -0.16139445205E+01  0.85647626459E+03  0.86053077429E+03  0.79373119588E+02 0.  0.
         23    2    1    2    0    0  0.19420862803E+02  0.56109004673E+02  0.33532498759E+03  0.34963957852E+03  0.79243909866E+02 0.  0.
        -11    1    3    3    0    0 -0.23846711677E+02 -0.13277196132E+01  0.11780597969E+03  0.12020265116E+03  0.00000000000E+00 0.  1.
         12    1    3    3    0    0  0.49516241338E+02 -0.28622490722E+00  0.73867028491E+03  0.74032812312E+03  0.00000000000E+00 0. -1.
        -13    1    4    4    0    0 -0.28414303519E+02  0.35406811715E+02  0.12621577826E+03  0.13413216483E+03  0.00000000000E+00 0.  1.
         13    1    4    4    0    0  0.47835166322E+02  0.20702192958E+02  0.20910920932E+03  0.21550741369E+03  0.00000000000E+00 0. -1.
          1    1    1    2  501    0 -0.45090392464E+02 -0.54495060153E+02 -0.98792452146E+01  0.71417466769E+02  0.00000000000E+00 0. -1.
<scales pt_clust_5="13000.00000" pt_clust_6="13000.00000" pt_clust_7="13000.00000" pt_clust_8="13000.00000" pt_clust_9="70.73086"></scales>
<clustering>
<clus scale="   70.731">  2  9  1 -1</clus>
<clus scale="   79.244">  7  8 -1 -1</clus>
<clus scale="   79.373">  5  6 -1 -1</clus>
<clus scale="   81.931">  2  7  1 -1</clus>
<clus scale="   70.731">  2  5  1 -1</clus>
</clustering>
</event>
<event>
 9    2  0.5615294E-005  0.9822754E+02  0.7546771E-02  0.1291972E+00
          2   -1    0    0  502    0 -0.00000000000E+00  0.00000000000E+00  0.17667789519E+03  0.17667789519E+03  0.00000000000E+00 0. -1.
         21   -1    0    0  501  502  0.00000000000E+00 -0.00000000000E+00 -0.98287372342E+02  0.98287372342E+02  0.00000000000E+00 0. -1.
         24    2    1    2    0    0 -0.36305893015E+02  0.69129763255E+01  0.89425511675E+02  0.12574774207E+03  0.80309808793E+02 0.  0.
         23    2    1    2    0    0 -0.68947738157E+01 -0.25301730207E+02  0.83530772568E+01  0.98420468554E+02  0.94493911303E+02 0.  0.
        -11    1    3    3    0    0  0.10530801475E+02  0.33054323665E+02  0.32586931198E+02  0.47596157172E+02  0.00000000000E+00 0.  1.
         12    1    3    3    0    0 -0.46836694490E+02 -0.26141347340E+02  0.56838580477E+02  0.78151584899E+02  0.00000000000E+00 0. -1.
        -11    1    4    4    0    0 -0.10890234555E+02  0.34689625228E+02 -0.53610179009E+01  0.36751977090E+02  0.00000000000E+00 0. -1.
         11    1    4    4    0    0  0.39954607392E+01 -0.59991355434E+02  0.13714095158E+02  0.61668491463E+02  0.00000000000E+00 0.  1.
          1    1    1    2  501    0  0.43200666831E+02  0.18388753881E+02 -0.19388066084E+02  0.50797056907E+02  0.00000000000E+00 0. -1.
<scales pt_clust_5="13000.00000" pt_clust_6="13000.00000" pt_clust_7="13000.00000" pt_clust_8="13000.00000" pt_clust_9="46.95151"></scales>
<clustering>
<clus scale="   46.952">  2  9  1 -1</clus>
<clus scale="   80.310">  5  6 -1 -1</clus>
<clus scale="   84.671">  1  5  2 -1</clus>
<clus scale="   94.494">  7  8 -1 -1</clus>
<clus scale="   46.952">  2  5  1 -1</clus>
</clustering>
</event>
<event>
 9    2  0.5615294E-005  0.1572098E+03  0.7546771E-02  0.1193238E+00
          2   -1    0    0  502    0 -0.00000000000E+00  0.00000000000E+00  0.17194529399E+04  0.17194529399E+04  0.00000000000E+00 0. -1.
         21   -1    0    0  501  502  0.00000000000E+00 -0.00000000000E+00 -0.22889974882E+02  0.22889974882E+02  0.00000000000E+00 0.  1.
         24    2    1    2    0    0  0.92963910332E+02  0.62235426888E+02  0.82118775273E+03  0.83270084997E+03  0.80782691958E+02 0.  0.
         23    2    1    2    0    0 -0.14046175617E+03 -0.92459525445E+02  0.70238281085E+03  0.72771924479E+03  0.89193146924E+02 0.  0.
        -13    1    3    3    0    0 -0.46911916762E+00  0.39346552414E+02  0.17333800837E+03  0.17774823882E+03  0.00000000000E+00 0.  1.
         14    1    3    3    0    0  0.93433029500E+02  0.22888874474E+02  0.64784974436E+03  0.65495261115E+03  0.00000000000E+00 0. -1.
        -13    1    4    4    0    0 -0.19799977844E+02 -0.30038999432E+01  0.17615250123E+02  0.26671324946E+02  0.00000000000E+00 0.  1.
         13    1    4    4    0    0 -0.12066177832E+03 -0.89455625502E+02  0.68476756073E+03  0.70104791984E+03  0.00000000000E+00 0. -1.
          1    1    1    2  501    0  0.47497845835E+02  0.30224098557E+02  0.17299240143E+03  0.18192282002E+03  0.00000000000E+00 0. -1.
<scales pt_clust_5="13000.00000" pt_clust_6="13000.00000" pt_clust_7="13000.00000" pt_clust_8="13000.00000" pt_clust_9="56.29868"></scales>
<clustering>
<clus scale="   56.299">  2  9  1 -1</clus>
<clus scale="   80.783">  5  6 -1 -1</clus>
<clus scale="   89.193">  7  8 -1 -1</clus>
<clus scale="  152.595">  1  5  2 -1</clus>
<clus scale="   56.299">  2  5  1 -1</clus>
</clustering>
</event>
<event>
 9    2  0.5615294E-005  0.1200871E+03  0.7546771E-02  0.1245933E+00
         21   -1    0    0  501  502  0.00000000000E+00  0.00000000000E+00  0.19108984093E+03  0.19108984093E+03  0.00000000000E+00 0.  1.
         -1   -1    0    0    0  501 -0.00000000000E+00 -0.00000000000E+00 -0.11918068113E+03  0.11918068113E+03  0.00000000000E+00 0.  1.
         23    2    1    2    0    0 -0.50924782008E+02 -0.54125118935E+02 -0.14879615612E+02  0.11868841156E+03  0.91338240375E+02 0.  0.
         24    2    1    2    0    0  0.34477225788E+02  0.78433851678E+02  0.22142573675E+02  0.12058515287E+03  0.81914207172E+02 0.  0.
        -11    1    4    4    0    0  0.48101539322E+02  0.26079345482E+02  0.35035097046E+02  0.64971904473E+02  0.00000000000E+00 0.  1.
         12    1    4    4    0    0 -0.13624313534E+02  0.52354506196E+02 -0.12892523370E+02  0.55613248396E+02  0.00000000000E+00 0. -1.
        -11    1    3    3    0    0 -0.39032849175E+02 -0.40334290017E+01 -0.44469143849E+02  0.59307138009E+02  0.00000000000E+00 0.  1.
         11    1    3    3    0    0 -0.11891932833E+02 -0.50091689933E+02  0.29589528237E+02  0.59381273547E+02  0.00000000000E+00 0. -1.
         -2    1    1    2    0  502  0.16447556220E+02 -0.24308732744E+02  0.64646201736E+02  0.70996957625E+02  0.00000000000E+00 0.  1.
<scales pt_clust_5="13000.00000" pt_clust_6="13000.00000" pt_clust_7="13000.00000" pt_clust_8="13000.00000" pt_clust_9="29.35024"></scales>
<clustering>
<clus scale="   29.350">  1  9  2 -1</clus>
<clus scale="   81.914">  5  6 -1 -1</clus>
<clus scale="   91.338">  7  8 -1 -1</clus>
<clus scale="  113.085">  1  5  2 -1</clus>
<clus scale="   29.350">  1  5  2 -1</clus>
</clustering>
</event>
<event>
 9    2  0.5615294E-005  0.1662746E+03  0.7546771E-02  0.1183275E+00
         21   -1    0    0  501  502  0.00000000000E+00  0.00000000000E+00  0.23515368157E+03  0.23515368157E+03  0.00000000000E+00 0. -1.
          2   -1    0    0  502    0 -0.00000000000E+00 -0.00000000000E+00 -0.73101640467E+03  0.73101640467E+03  0.00000000000E+00 0. -1.
         24    2    1    2    0    0 -0.12201300779E+03  0.33778061123E+02 -0.36769157142E+03  0.39692275628E+03  0.79513843325E+02 0.  0.
         23    2    1    2    0    0  0.16399430508E+03 -0.12846871015E+02 -0.32047664233E+03  0.37130303028E+03  0.90008265300E+02 0.  0.
        -13    1    3    3    0    0 -0.37053437724E+02  0.50709832585E+02 -0.16037981627E+03  0.17223858404E+03  0.00000000000E+00 0.  1.
         14    1    3    3    0    0 -0.84959570061E+02 -0.16931771463E+02 -0.20731175515E+03  0.22468417224E+03  0.00000000000E+00 0. -1.
        -11    1    4    4    0    0  0.69016152553E+02  0.17658364383E+02 -0.62716859907E+02  0.94912863525E+02  0.00000000000E+00 0.  1.
         11    1    4    4    0    0  0.94978152526E+02 -0.30505235397E+02 -0.25775978242E+03  0.27639016675E+03  0.00000000000E+00 0. -1.
          1    1    1    2  501    0 -0.41981297294E+02 -0.20931190108E+02  0.19230549065E+03  0.19794429968E+03  0.00000000000E+00 0. -1.
<scales pt_clust_5="13000.00000" pt_clust_6="13000.00000" pt_clust_7="13000.00000" pt_clust_8="13000.00000" pt_clust_9="46.90996"></scales>
<clustering>
<clus scale="   46.910">  1  9  2 -1</clus>
<clus scale="   79.514">  5  6 -1 -1</clus>
<clus scale="   90.008">  7  8 -1 -1</clus>
<clus scale="  160.836">  2  5  1 -1</clus>
<clus scale="   46.910">  1  5  2 -1</clus>
</clustering>
</event>
<event>
 9    2  0.5615294E-005  0.9919887E+02  0.7546771E-02  0.1289373E+00
         -3   -1    0    0    0  501 -0.00000000000E+00  0.00000000000E+00  0.26584636753E+03  0.26584636753E+03  0.00000000000E+00 0.  1.
         21   -1    0    0  501  502  0.00000000000E+00 -0.00000000000E+00 -0.12430829594E+03  0.12430829594E+03  0.00000000000E+00 0. -1.
         24    2    1    2    0    0 -0.74803114177E+01 -0.33715821103E+02  0.18594371565E+03  0.20524946740E+03  0.79746892274E+02 0.  0.
         23    2    1    2    0    0  0.44152293901E+02  0.12320736915E+02  0.21630207855E+02  0.10639839595E+03  0.93549597297E+02 0.  0.
        -11    1    3    3    0    0 -0.31038722320E+02 -0.33375875271E+02  0.17185801814E+03  0.17779912748E+03  0.00000000000E+00 0.  1.
         12    1    3    3    0    0  0.23558410903E+02 -0.33994583196E+00  0.14085697506E+02  0.27450339919E+02  0.00000000000E+00 0. -1.
        -13    1    4    4    0    0  0.24518814961E+02 -0.59569627467E+01  0.56808349414E+02  0.62159844396E+02  0.00000000000E+00 0.  1.
         13    1    4    4    0    0  0.19633478940E+02  0.18277699662E+02 -0.35178141558E+02  0.44238551555E+02  0.00000000000E+00 0. -1.
         -4    1    1    2    0  502 -0.36671982483E+02  0.21395084188E+02 -0.66035851911E+02  0.78506800114E+02  0.00000000000E+00 0.  1.
<scales pt_clust_5="13000.00000" pt_clust_6="13000.00000" pt_clust_7="13000.00000" pt_clust_8="13000.00000" pt_clust_9="42.45685"></scales>
<clustering>
<clus scale="   42.457">  2  9  1 -1</clus>
<clus scale="   79.747">  5  6 -1 -1</clus>
<clus scale="   86.304">  1  5  2 -1</clus>
<clus scale="   93.550">  7  8 -1 -1</clus>
<clus scale="   42.457">  2  5  1 -1</clus>
</clustering>
</event>
<event>
 9    2  0.5615294E-005  0.2670110E+03  0.7546771E-02  0.1103003E+00
         21   -1    0    0  501  502  0.00000000000E+00  0.00000000000E+00  0.36606169135E+03  0.36606169135E+03  0.00000000000E+00 0. -1.
          2   -1    0    0  502    0 -0.00000000000E+00 -0.00000000000E+00 -0.33909325518E+03  0.33909325518E+03  0.00000000000E+00 0. -1.
         24    2    1    2    0    0 -0.84521090737E+02 -0.60634194326E+02 -0.12244082599E+03  0.18018625353E+03  0.81578243379E+02 0.  0.
         23    2    1    2    0    0 -0.95086322373E+02  0.30127659821E+02 -0.13271465087E+03  0.18913633335E+03  0.90610647538E+02 0.  0.
        -13    1    3    3    0    0  0.10960845768E+02 -0.29426340448E+02 -0.34832828698E+02  0.46897501076E+02  0.00000000000E+00 0.  1.
         14    1    3    3    0    0 -0.95481936505E+02 -0.31207853879E+02 -0.87607997287E+02  0.13328875246E+03  0.00000000000E+00 0. -1.
        -11    1    4    4    0    0 -0.33013038996E+02  0.15292114941E+00  0.66314028933E+01  0.33672832268E+02  0.00000000000E+00 0. -1.
         11    1    4    4    0    0 -0.62073283377E+02  0.29974738672E+02 -0.13934605377E+03  0.15546350108E+03  0.00000000000E+00 0.  1.
          1    1    1    2  501    0  0.17960741311E+03  0.30506534505E+02  0.28212391302E+03  0.33583235965E+03  0.00000000000E+00 0. -1.
<scales pt_clust_5="13000.00000" pt_clust_6="13000.00000" pt_clust_7="13000.00000" pt_clust_8="13000.00000" pt_clust_9="182.17978"></scales>
<clustering>
<clus scale="   81.578">  5  6 -1 -1</clus>
<clus scale="   90.611">  7  8 -1 -1</clus>
<clus scale="  127.638">  5  7 -1 -1</clus>
<clus scale="  182.180">  1  9  2 -1</clus>
<clus scale="  182.180">  1  5  2 -1</clus>
</clustering>
</event>
<event>
 9    2  0.5615294E-005  0.1223369E+03  0.7546771E-02  0.1253318E+00
          2   -1    0    0  502    0 -0.00000000000E+00  0.00000000000E+00  0.33170834282E+03  0.33170834282E+03  0.00000000000E+00 0. -1.
         21   -1    0    0  501  502  0.00000000000E+00 -0.00000000000E+00 -0.79992996182E+02  0.79992996182E+02  0.00000000000E+00 0.  1.
         24    2    1    2    0    0  0.46739626910E+02 -0.18344196116E+01  0.13803880839E+03  0.16604276712E+03  0.79545773435E+02 0.  0.
         23    2    1    2    0    0  0.32646865611E+02 -0.48740528019E+02  0.10657877747E+03  0.15126355755E+03  0.89889772106E+02 0.  0.
        -11    1    3    3    0    0  0.24402769843E+02 -0.35149840076E+02  0.34368587323E+02  0.54883569745E+02  0.00000000000E+00 0.  1.
         12    1    3    3    0    0  0.22336857068E+02  0.33315420465E+02  0.10367022107E+03  0.11115919738E+03  0.00000000000E+00 0. -1.
        -11    1    4    4    0    0 -0.49808187747E+01 -0.56416770694E+02  0.26660769640E+02  0.62597581495E+02  0.00000000000E+00 0.  1.
         11    1    4    4    0    0  0.37627684386E+02  0.76762426758E+01  0.79918007830E+02  0.88665976053E+02  0.00000000000E+00 0. -1.
          1    1    1    2  501    0 -0.79386492521E+02  0.50574947630E+02  0.70977607725E+01  0.94395014331E+02  0.00000000000E+00 0. -1.
<scales pt_clust_5="13000.00000" pt_clust_6="13000.00000" pt_clust_7="13000.00000" pt_clust_8="13000.00000" pt_clust_9="82.98282"></scales>
<clustering>
<clus scale="   79.546">  5  6 -1 -1</clus>
<clus scale="   89.890">  7  8 -1 -1</clus>
<clus scale="   92.279">  1  5  2 -1</clus>
<clus scale="   82.983">  2  9  1 -1</clus>
<clus scale="   82.983">  2  5  1 -1</clus>
</clustering>
</event>
<event>
 9    2  0.5615294E-005  0.9247355E+02  0.7546771E-02  0.1300525E+00
          2   -1    0    0  502    0 -0.00000000000E+00  0.00000000000E+00  0.13491658191E+04  0.13491658191E+04  0.00000000000E+00 0. -1.
         21   -1    0    0  501  502  0.00000000000E+00 -0.00000000000E+00 -0.21297097680E+02  0.21297097680E+02  0.00000000000E+00 0. -1.
         24    2    1    2    0    0 -0.49622082211E+02 -0.11297960688E+02  0.10838565968E+04  0.10882205066E+04  0.82998516300E+02 0.  0.
         23    2    1    2    0    0 -0.12597296258E+02 -0.16651922010E+01  0.11860784854E+03  0.14165248571E+03  0.76394634856E+02 0.  0.
        -11    1    3    3    0    0 -0.11198240248E+02 -0.31912170972E+02  0.17040014614E+03  0.17372391040E+03  0.00000000000E+00 0.  1.
         12    1    3    3    0    0 -0.38423841963E+02  0.20614210284E+02  0.91345645065E+03  0.91449659624E+03  0.00000000000E+00 0. -1.
        -11    1    4    4    0    0  0.12049535779E+02  0.32037209213E+02  0.67286917699E+02  0.75492406109E+02  0.00000000000E+00 0.  1.
         11    1    4    4    0    0 -0.24646832037E+02 -0.33702401414E+02  0.51320930840E+02  0.66160079601E+02  0.00000000000E+00 0. -1.
          1    1    1    2  501    0  0.62219378468E+02  0.12963152889E+02  0.12540427610E+03  0.14058992444E+03  0.00000000000E+00 0. -1.
<scales pt_clust_5="13000.00000" pt_clust_6="13000.00000" pt_clust_7="13000.00000" pt_clust_8="13000.00000" pt_clust_9="63.55544"></scales>
<clustering>
<clus scale="   63.555">  2  9  1 -1</clus>
<clus scale="   76.395">  7  8 -1 -1</clus>
<clus scale="   82.999">  5  6 -1 -1</clus>
<clus scale="   86.595">  2  7  1 -1</clus>
<clus scale="   63.555">  2  5  1 -1</clus>
</clustering>
</event>
<event>
 9    2  0.5615294E-005  0.9871519E+02  0.7546771E-02  0.1287592E+00
         21   -1    0    0  501  502  0.00000000000E+00  0.00000000000E+00  0.29838332146E+03  0.29838332146E+03  0.00000000000E+00 0. -1.
         -1   -1    0    0    0  501 -0.00000000000E+00 -0.00000000000E+00 -0.12634882099E+03  0.12634882099E+03  0.00000000000E+00 0.  1.
         24    2    1    2    0    0  0.30258849856E+02  0.17147740677E+02 -0.83110928612E+02  0.12197101860E+03  0.82218367289E+02 0.  0.
         23    2    1    2    0    0 -0.65370252724E+02 -0.90396723895E+01  0.12711455592E+03  0.16975565078E+03  0.91125655160E+02 0.  0.
        -11    1    3    3    0    0  0.50515169366E+02 -0.12229333624E+01 -0.79762217948E+02  0.94420809751E+02  0.00000000000E+00 0.  1.
         12    1    3    3    0    0 -0.20256319510E+02  0.18370674039E+02 -0.33487106646E+01  0.27550208854E+02  0.00000000000E+00 0. -1.
        -13    1    4    4    0    0 -0.25253562365E+02  0.12997405199E+02 -0.59678055989E+01  0.29022226959E+02  0.00000000000E+00 0.  1.
         13    1    4    4    0    0 -0.40116690360E+02 -0.22037077588E+02  0.13308236152E+03  0.14073342382E+03  0.00000000000E+00 0. -1.
         -2    1    1    2    0  502  0.35111402869E+02 -0.81080682874E+01  0.12803087316E+03  0.13300547307E+03  0.00000000000E+00 0.  1.
<scales pt_clust_5="13000.00000" pt_clust_6="13000.00000" pt_clust_7="13000.00000" pt_clust_8="13000.00000" pt_clust_9="36.03542"></scales>
<clustering>
<clus scale="   36.035">  1  9  2 -1</clus>
<clus scale="   82.218">  5  6 -1 -1</clus>
<clus scale="   90.558">  2  5  1 -1</clus>
<clus scale="   91.126">  7  8 -1 -1</clus>
<clus scale="   36.035">  1  5  2 -1</clus>
</clustering>
</event>
<event>
 9    2  0.5615294E-005  0.1017988E+03  0.7546771E-02  0.1282205E+00
         21   -1    0    0  501  502  0.00000000000E+00  0.00000000000E+00  0.82741562419E+02  0.82741562419E+02  0.00000000000E+00 0.  1.
         -1   -1    0    0    0  501 -0.00000000000E+00 -0.00000000000E+00 -0.20652208222E+03  0.20652208222E+03  0.00000000000E+00 0.  1.
         23    2    1    2    0    0  0.15675413051E+02  0.44348615874E+02 -0.94761400906E+02  0.14077242514E+03  0.92868909076E+02 0.  0.
         24    2    1    2    0    0  0.33815967779E+02 -0.36989942086E+02 -0.20690400718E+02  0.97767315837E+02  0.81354654886E+02 0.  0.
        -11    1    4    4    0    0  0.34047434428E+02 -0.13410304917E+02 -0.48851543782E+02  0.61037180464E+02  0.00000000000E+00 0.  1.
         12    1    4    4    0    0 -0.23146664881E+00 -0.23579637169E+02  0.28161143064E+02  0.36730135372E+02  0.00000000000E+00 0. -1.
        -11    1    3    3    0    0  0.29552471922E+02  0.65653199853E+02 -0.89401363538E+02  0.11478804402E+03  0.00000000000E+00 0. -1.
         11    1    3    3    0    0 -0.13877058871E+02 -0.21304583979E+02 -0.53600373679E+01  0.25984381116E+02  0.00000000000E+00 0.  1.
         -2    1    1    2    0  502 -0.49491380831E+02 -0.73586737885E+01 -0.83287181753E+01  0.50723903664E+02  0.00000000000E+00 0.  1.
<scales pt_clust_5="13000.00000" pt_clust_6="13000.00000" pt_clust_7="13000.00000" pt_clust_8="13000.00000" pt_clust_9="50.03546"></scales>
<clustering>
<clus scale="   50.035">  1  9  2 -1</clus>
<clus scale="   81.355">  5  6 -1 -1</clus>
<clus scale="   91.416">  1  5  2 -1</clus>
<clus scale="   92.869">  7  8 -1 -1</clus>
<clus scale="   50.035">  1  5  2 -1</clus>
</clustering>
</event>
<event>
 9    2  0.5615294E-005  0.9944750E+02  0.7546771E-02  0.1289520E+00
          2   -1    0    0  502    0 -0.00000000000E+00  0.00000000000E+00  0.13120688561E+03  0.13120688561E+03  0.00000000000E+00 0. -1.
         21   -1    0    0  501  502  0.00000000000E+00 -0.00000000000E+00 -0.46179535782E+03  0.46179535782E+03  0.00000000000E+00 0. -1.
         24    2    1    2    0    0  0.18122493978E+01 -0.15744826125E+02  0.62109286269E+02  0.10415202195E+03  0.82090781691E+02 0.  0.
         23    2    1    2    0    0  0.43327752835E+02  0.43204134251E+02 -0.24580424083E+02  0.11696044575E+03  0.96600503309E+02 0.  0.
        -11    1    3    3    0    0  0.13160305514E+01  0.32464584235E+02  0.12056149901E+02  0.34655907381E+02  0.00000000000E+00 0.  1.
         12    1    3    3    0    0  0.49621884640E+00 -0.48209410360E+02  0.50053136368E+02  0.69496114572E+02  0.00000000000E+00 0. -1.
        -13    1    4    4    0    0  0.45082197316E+02 -0.20245170965E+02 -0.20029239149E+02  0.53323933493E+02  0.00000000000E+00 0.  1.
         13    1    4    4    0    0 -0.17544444813E+01  0.63449305216E+02 -0.45511849341E+01  0.63636512256E+02  0.00000000000E+00 0. -1.
          1    1    1    2  501    0 -0.45140002233E+02 -0.27459308126E+02 -0.36811733440E+03  0.37188977573E+03  0.00000000000E+00 0. -1.
<scales pt_clust_5="13000.00000" pt_clust_6="13000.00000" pt_clust_7="13000.00000" pt_clust_8="13000.00000" pt_clust_9="52.83591"></scales>
<clustering>
<clus scale="   52.836">  2  9  1 -1</clus>
<clus scale="   82.091">  5  6 -1 -1</clus>
<clus scale="   85.423">  1  5  2 -1</clus>
<clus scale="   96.601">  7  8 -1 -1</clus>
<clus scale="   52.836">  2  5  1 -1</clus>
</clustering>
</event>
<event>
 9    2  0.5615294E-005  0.1312516E+03  0.7546771E-02  0.1241825E+00
         21   -1    0    0  501  502  0.00000000000E+00  0.00000000000E+00  0.18277987580E+03  0.18277987580E+03  0.00000000000E+00 0.  1.
         -1   -1    0    0    0  501 -0.00000000000E+00 -0.00000000000E+00 -0.18854035537E+03  0.18854035537E+03  0.00000000000E+00 0.  1.
         24    2    1    2    0    0  0.48847114917E+02  0.21184351071E+01 -0.40415809836E+02  0.10241208935E+03  0.80400683812E+02 0.  0.
         23    2    1    2    0    0 -0.12682528554E+02  0.93957083365E+02  0.83044209745E+02  0.15541864356E+03  0.90938627372E+02 0.  0.
        -13    1    3    3    0    0  0.51361926899E+02  0.31220473009E+02 -0.11281115002E+02  0.61155776713E+02  0.00000000000E+00 0.  1.
         14    1    3    3    0    0 -0.25148119817E+01 -0.29102037902E+02 -0.29134694834E+02  0.41256312638E+02  0.00000000000E+00 0. -1.
        -13    1    4    4    0    0  0.15848806455E+02  0.61960449941E+02  0.91585921284E+02  0.11170614576E+03  0.00000000000E+00 0.  1.
         13    1    4    4    0    0 -0.28531335009E+02  0.31996633424E+02 -0.85417115381E+01  0.43712497800E+02  0.00000000000E+00 0. -1.
         -2    1    1    2    0  502 -0.36164586363E+02 -0.96075518473E+02 -0.48388879479E+02  0.11348949825E+03  0.00000000000E+00 0.  1.
<scales pt_clust_5="13000.00000" pt_clust_6="13000.00000" pt_clust_7="13000.00000" pt_clust_8="13000.00000" pt_clust_9="94.64231"></scales>
<clustering>
<clus scale="   80.401">  5  6 -1 -1</clus>
<clus scale="   90.939">  7  8 -1 -1</clus>
<clus scale="   94.100">  2  5  1 -1</clus>
<clus scale="   94.642">  1  9  2 -1</clus>
<clus scale="   94.642">  1  5  2 -1</clus>
</clustering>
</event>
<event>
 9    2  0.5615294E-005  0.1278469E+03  0.7546771E-02  0.1234777E+00
          2   -1    0    0  502    0 -0.00000000000E+00  0.00000000000E+00  0.69833148883E+02  0.69833148883E+02  0.00000000000E+00 0. -1.
         21   -1    0    0  501  502  0.00000000000E+00 -0.00000000000E+00 -0.29946787424E+03  0.29946787424E+03  0.00000000000E+00 0.  1.
         23    2    1    2    0    0 -0.41218262336E+02  0.75030069182E+02 -0.78893985436E+02  0.14904378319E+03  0.93066277124E+02 0.  0.
         24    2    1    2    0    0  0.22386806703E+02 -0.88207348475E+02 -0.76058677760E+02  0.14211842231E+03  0.78300817738E+02 0.  0.
        -13    1    4    4    0    0  0.53145598268E+01 -0.28628560207E+02 -0.74647883033E+02  0.80125810118E+02  0.00000000000E+00 0.  1.
         14    1    4    4    0    0  0.17072246876E+02 -0.59578788268E+02 -0.14107947268E+01  0.61992612194E+02  0.00000000000E+00 0. -1.
        -13    1    3    3    0    0 -0.61495087620E+02  0.83256220802E+02 -0.57327369992E+02  0.11832020729E+03  0.00000000000E+00 0. -1.
         13    1    3    3    0    0  0.20276825285E+02 -0.82261516204E+01 -0.21566615444E+02  0.30723575895E+02  0.00000000000E+00 0.  1.
          1    1    1    2  501    0  0.18831455633E+02  0.13177279293E+02 -0.74682062162E+02  0.78138817624E+02  0.00000000000E+00 0. -1.
<scales pt_clust_5="13000.00000" pt_clust_6="13000.00000" pt_clust_7="13000.00000" pt_clust_8="13000.00000" pt_clust_9="22.98400"></scales>
<clustering>
<clus scale="   22.984">  2  9  1 -1</clus>
<clus scale="   78.301">  5  6 -1 -1</clus>
<clus scale="   93.066">  7  8 -1 -1</clus>
<clus scale="  117.535">  2  5  1 -1</clus>
<clus scale="   22.984">  2  5  1 -1</clus>
</clustering>
</event>
<event>
 9    2  0.5615294E-005  0.9892857E+02  0.7546771E-02  0.1288997E+00
         -1   -1    0    0    0  501 -0.00000000000E+00  0.00000000000E+00  0.39839359929E+03  0.39839359929E+03  0.00000000000E+00 0.  1.
         21   -1    0    0  501  502  0.00000000000E+00 -0.00000000000E+00 -0.34295816348E+02  0.34295816348E+02  0.00000000000E+00 0.  1.
         23    2    1    2    0    0 -0.25455364900E+02 -0.13842856457E+02  0.16308805650E+03  0.18926299399E+03  0.91559633268E+02 0.  0.
         24    2    1    2    0    0  0.52447364066E+02  0.12248062521E+01  0.99261907293E+02  0.13740565995E+03  0.79215926419E+02 0.  0.
        -13    1    4    4    0    0  0.42417719433E+02  0.36086013552E+02  0.76341460386E+02  0.94495935732E+02  0.00000000000E+00 0.  1.
         14    1    4    4    0    0  0.10029644633E+02 -0.34861207300E+02  0.22920446908E+02  0.42909724217E+02  0.00000000000E+00 0. -1.
        -13    1    3    3    0    0 -0.53774929547E+02  0.14780659194E+02  0.95027257026E+02  0.11018344028E+03  0.00000000000E+00 0.  1.
         13    1    3    3    0    0  0.28319564647E+02 -0.28623515651E+02  0.68060799474E+02  0.79079553711E+02  0.00000000000E+00 0. -1.
         -2    1    1    2    0  502 -0.26991999166E+02  0.12618050205E+02  0.10174781915E+03  0.10602076170E+03  0.00000000000E+00 0.  1.
<scales pt_clust_5="13000.00000" pt_clust_6="13000.00000" pt_clust_7="13000.00000" pt_clust_8="13000.00000" pt_clust_9="29.79571"></scales>
<clustering>
<clus scale="   29.796">  2  9  1 -1</clus>
<clus scale="   79.216">  5  6 -1 -1</clus>
<clus scale="   87.629">  2  5  1 -1</clus>
<clus scale="   91.560">  7  8 -1 -1</clus>
<clus scale="   29.796">  2  5  1 -1</clus>
</clustering>
</event>
<event>
 9    2  0.5615294E-005  0.1707926E+03  0.7546771E-02  0.1199424E+00
         21   -1    0    0  501  502  0.00000000000E+00  0.00000000000E+00  0.14487332843E+03  0.14487332843E+03  0.00000000000E+00 0. -1.
          2   -1    0    0  502    0 -0.00000000000E+00 -0.00000000000E+00 -0.62683157832E+03  0.62683157832E+03  0.00000000000E+00 0. -1.
         24    2    1    2    0    0 -0.45191245774E+02  0.48071957171E+02 -0.27351944356E+03  0.29260886491E+03  0.80336169042E+02 0.  0.
         23    2    1    2    0    0  0.35070471643E+02 -0.18577603035E+03 -0.25787097922E+03  0.33243868077E+03  0.90969022826E+02 0.  0.
        -11    1    3    3    0    0  0.30753064091E+01  0.39377982135E+02 -0.49722753117E+02  0.63501457968E+02  0.00000000000E+00 0.  1.
         12    1    3    3    0    0 -0.48266552183E+02  0.86939750365E+01 -0.22379669044E+03  0.22910740694E+03  0.00000000000E+00 0. -1.
        -13    1    4    4    0    0 -0.29590572107E+02 -0.51010821230E+02 -0.90710723019E+02  0.10819492183E+03  0.00000000000E+00 0. -1.
         13    1    4    4    0    0  0.64661043750E+02 -0.13476520912E+03 -0.16716025620E+03  0.22424375894E+03  0.00000000000E+00 0.  1.
          1    1    1    2  501    0  0.10120774132E+02  0.13770407318E+03  0.49432172888E+02  0.14665736107E+03  0.00000000000E+00 0. -1.
<scales pt_clust_5="13000.00000" pt_clust_6="13000.00000" pt_clust_7="13000.00000" pt_clust_8="13000.00000" pt_clust_9="144.55013"></scales>
<clustering>
<clus scale="   80.336">  5  6 -1 -1</clus>
<clus scale="   90.969">  7  8 -1 -1</clus>
<clus scale="  103.957">  2  5  1 -1</clus>
<clus scale="  144.550">  1  9  2 -1</clus>
<clus scale="  144.550">  1  5  2 -1</clus>
</clustering>
</event>
<event>
 9    2  0.5615294E-005  0.9542334E+02  0.7546771E-02  0.1294932E+00
         21   -1    0    0  501  502  0.00000000000E+00  0.00000000000E+00  0.25844992422E+02  0.25844992422E+02  0.00000000000E+00 0.  1.
          2   -1    0    0  502    0 -0.00000000000E+00 -0.00000000000E+00 -0.52870887622E+03  0.52870887622E+03  0.00000000000E+00 0. -1.
         24    2    1    2    0    0  0.28041541010E+02 -0.18690225806E+02 -0.18228568485E+03  0.20261585332E+03  0.81789122453E+02 0.  0.
         23    2    1    2    0    0 -0.12350875471E+00  0.36443143277E+02 -0.15475760532E+03  0.18284912783E+03  0.90309297397E+02 0.  0.
        -13    1    3    3    0    0  0.17609700394E+02 -0.19915268934E+02 -0.76478148348E+01  0.27662403302E+02  0.00000000000E+00 0.  1.
         14    1    3    3    0    0  0.10431840616E+02  0.12250431275E+01 -0.17463787001E+03  0.17495345001E+03  0.00000000000E+00 0. -1.
        -13    1    4    4    0    0  0.35347732783E+02  0.18640905880E+02 -0.13016094767E+03  0.13615732769E+03  0.00000000000E+00 0.  1.
         13    1    4    4    0    0 -0.35471241538E+02  0.17802237397E+02 -0.24596657649E+02  0.46691800138E+02  0.00000000000E+00 0. -1.
          1    1    1    2  501    0 -0.27918032255E+02 -0.17752917471E+02 -0.16582059363E+03  0.16908888749E+03  0.00000000000E+00 0. -1.
<scales pt_clust_5="13000.00000" pt_clust_6="13000.00000" pt_clust_7="13000.00000" pt_clust_8="13000.00000" pt_clust_9="33.08449"></scales>
<clustering>
<clus scale="   33.084">  1  9  2 -1</clus>
<clus scale="   81.789">  5  6 -1 -1</clus>
<clus scale="   87.403">  2  5  1 -1</clus>
<clus scale="   90.309">  7  8 -1 -1</clus>
<clus scale="   33.084">  1  5  2 -1</clus>
</clustering>
</event>
<event>
 9    2  0.5615294E-005  0.9576254E+02  0.7546771E-02  0.1296465E+00
         -1   -1    0    0    0  501 -0.00000000000E+00  0.00000000000E+00  0.19789246721E+03  0.19789246721E+03  0.00000000000E+00 0.  1.
         21   -1    0    0  501  502  0.00000000000E+00 -0.00000000000E+00 -0.61609960837E+02  0.61609960837E+02  0.00000000000E+00 0. -1.
         23    2    1    2    0    0  0.71578005237E+01 -0.21475601427E+02  0.10712357951E+03  0.14354418447E+03  0.92827991692E+02 0.  0.
         24    2    1    2    0    0  0.16665014836E+02  0.26861163957E+02  0.29457827806E+02  0.91532434336E+02  0.80691871139E+02 0.  0.
        -11    1    4    4    0    0 -0.36206150804E+01  0.46494234929E+02 -0.50959800334E+01  0.46912596897E+02  0.00000000000E+00 0.  1.
         12    1    4    4    0    0  0.20285629916E+02 -0.19633070972E+02  0.34553807839E+02  0.44619837439E+02  0.00000000000E+00 0. -1.
        -11    1    3    3    0    0 -0.26965003708E+02  0.16794569488E+02  0.78812088455E+02  0.84973609291E+02  0.00000000000E+00 0.  1.
         11    1    3    3    0    0  0.34122804232E+02 -0.38270170915E+02  0.28311491058E+02  0.58570575176E+02  0.00000000000E+00 0. -1.
         -2    1    1    2    0  502 -0.23822815360E+02 -0.53855625299E+01 -0.29890094561E+00  0.24425809243E+02  0.00000000000E+00 0.  1.
<scales pt_clust_5="13000.00000" pt_clust_6="13000.00000" pt_clust_7="13000.00000" pt_clust_8="13000.00000" pt_clust_9="24.42398"></scales>
<clustering>
<clus scale="   24.424">  2  9  1 -1</clus>
<clus scale="   80.692">  5  6 -1 -1</clus>
<clus scale="   84.051">  2  5  1 -1</clus>
<clus scale="   92.828">  7  8 -1 -1</clus>
<clus scale="   24.424">  2  5  1 -1</clus>
</clustering>
</event>
<event>
 9    2  0.5615294E-005  0.1358900E+03  0.7546771E-02  0.1222517E+00
         21   -1    0    0  501  502  0.00000000000E+00  0.00000000000E+00  0.52450160379E+02  0.52450160379E+02  0.00000000000E+00 0.  1.
          2   -1    0    0  502    0 -0.00000000000E+00 -0.00000000000E+00 -0.73434907811E+03  0.73434907811E+03  0.00000000000E+00 0. -1.
         24    2    1    2    0    0 -0.91840629244E+02  0.32682013505E+02 -0.41943516675E+03  0.43827610743E+03  0.81592107816E+02 0.  0.
         23    2    1    2    0    0  0.10542832291E+03  0.42429417265E+02 -0.14031666077E+03  0.20448749623E+03  0.95973871981E+02 0.  0.
        -13    1    3    3    0    0 -0.17876169830E+02 -0.26792394521E+02 -0.10771283209E+03  0.11242528207E+03  0.00000000000E+00 0.  1.
         14    1    3    3    0    0 -0.73964459414E+02  0.59474408025E+02 -0.31172233466E+03  0.32585082537E+03  0.00000000000E+00 0. -1.
        -11    1    4    4    0    0  0.15193783333E+02 -0.17887281512E+02  0.41071240732E+01  0.23825917821E+02  0.00000000000E+00 0. -1.
         11    1    4    4    0    0  0.90234539581E+02  0.60316698777E+02 -0.14442378484E+03  0.18066157841E+03  0.00000000000E+00 0.  1.
          1    1    1    2  501    0 -0.13587693671E+02 -0.75111430769E+02 -0.12214709021E+03  0.14403563482E+03  0.00000000000E+00 0. -1.
<scales pt_clust_5="13000.00000" pt_clust_6="13000.00000" pt_clust_7="13000.00000" pt_clust_8="13000.00000" pt_clust_9="76.33055"></scales>
<clustering>
<clus scale="   76.331">  1  9  2 -1</clus>
<clus scale="   81.592">  5  6 -1 -1</clus>
<clus scale="   95.974">  7  8 -1 -1</clus>
<clus scale="  126.144">  2  5  1 -1</clus>
<clus scale="   76.331">  1  5  2 -1</clus>
</clustering>
</event>
<event>
 9    2  0.5615294E-005  0.1386365E+03  0.7546771E-02  0.1230164E+00
         -1   -1    0    0    0  501 -0.00000000000E+00  0.00000000000E+00  0.26784779025E+03  0.26784779025E+03  0.00000000000E+00 0.  1.
         21   -1    0    0  501  502  0.00000000000E+00 -0.00000000000E+00 -0.12465783875E+03  0.12465783875E+03  0.00000000000E+00 0.  1.
         23    2    1    2    0    0 -0.72695672413E+01  0.43592594792E+02  0.74045889441E+02  0.12551474489E+03  0.91203051012E+02 0.  0.
         24    2    1    2    0    0 -0.67721193208E+02  0.66552021672E+02  0.32007023634E+02  0.12866297546E+03  0.80711709775E+02 0.  0.
        -13    1    4    4    0    0 -0.20145421851E+02  0.58101829607E+02  0.47734423558E+02  0.77847516451E+02  0.00000000000E+00 0.  1.
         14    1    4    4    0    0 -0.47575771356E+02  0.84501920649E+01 -0.15727399924E+02  0.50815459011E+02  0.00000000000E+00 0. -1.
        -11    1    3    3    0    0  0.34932626726E+02  0.47185917556E+02  0.38360619949E+02  0.70130851902E+02  0.00000000000E+00 0.  1.
         11    1    3    3    0    0 -0.42202193967E+02 -0.35933227640E+01  0.35685269492E+02  0.55383892991E+02  0.00000000000E+00 0. -1.
         -2    1    1    2    0  502  0.74990760449E+02 -0.11014461646E+03  0.37137038427E+02  0.13832790865E+03  0.00000000000E+00 0.  1.
<scales pt_clust_5="13000.00000" pt_clust_6="13000.00000" pt_clust_7="13000.00000" pt_clust_8="13000.00000" pt_clust_9="112.71962"></scales>
<clustering>
<clus scale="   80.712">  5  6 -1 -1</clus>
<clus scale="   91.203">  7  8 -1 -1</clus>
<clus scale="  101.347">  1  7  2 -1</clus>
<clus scale="  112.720">  2  9  1 -1</clus>
<clus scale="  112.720">  2  5  1 -1</clus>
</clustering>
</event>
<event>
 9    2  0.5615294E-005  0.2713645E+03  0.7546771E-02  0.1122108E+00
          2   -1    0    0  502    0 -0.00000000000E+00  0.00000000000E+00  0.91414130768E+03  0.91414130768E+03  0.00000000000E+00 0. -1.
         21   -1    0    0  501  502  0.00000000000E+00 -0.00000000000E+00 -0.19188339906E+03  0.19188339906E+03  0.00000000000E+00 0.  1.
         23    2    1    2    0    0 -0.56685500697E+02  0.11524118926E+03 -0.41664224860E+02  0.16215047125E+03  0.89794710324E+02 0.  0.
         24    2    1    2    0    0  0.17306773055E+03 -0.25620648915E+03  0.27876734000E+03  0.42542345400E+03  0.87633788689E+02 0.  0.
        -11    1    4    4    0    0  0.18268576759E+03 -0.24068002549E+03  0.26976768475E+03  0.40506242492E+03  0.00000000000E+00 0.  1.
         12    1    4    4    0    0 -0.96180370414E+01 -0.15526463661E+02  0.89996552543E+01  0.20361029076E+02  0.00000000000E+00 0. -1.
        -13    1    3    3    0    0  0.19773649171E+02  0.24835240070E+02  0.95428095816E+01  0.33148930082E+02  0.00000000000E+00 0.  1.
         13    1    3    3    0    0 -0.76459149868E+02  0.90405949190E+02 -0.51207034442E+02  0.12900154117E+03  0.00000000000E+00 0. -1.
          1    1    1    2  501    0 -0.11638222985E+03  0.14096529989E+03  0.48515479347E+03  0.51845078149E+03  0.00000000000E+00 0. -1.
<scales pt_clust_5="13000.00000" pt_clust_6="13000.00000" pt_clust_7="13000.00000" pt_clust_8="13000.00000" pt_clust_9="256.82504"></scales>
<clustering>
<clus scale="   87.634">  5  6 -1 -1</clus>
<clus scale="   89.795">  7  8 -1 -1</clus>
<clus scale="  156.706">  1  7  2 -1</clus>
<clus scale="  256.825">  2  9  1 -1</clus>
<clus scale="  256.825">  2  5  1 -1</clus>
</clustering>
</event>
<event>
 9    2  0.5615294E-005  0.9561328E+02  0.7546771E-02  0.1298843E+00
          2   -1    0    0  502    0 -0.00000000000E+00  0.00000000000E+00  0.11904308825E+03  0.11904308825E+03  0.00000000000E+00 0. -1.
         21   -1    0    0  501  502  0.00000000000E+00 -0.00000000000E+00 -0.15370688313E+03  0.15370688313E+03  0.00000000000E+00 0.  1.
         23    2    1    2    0    0  0.19293914029E+02 -0.18659080062E+02  0.59030989095E+02  0.11403775474E+03  0.93805839076E+02 0.  0.
         24    2    1    2    0    0  0.14873303119E+02 -0.29563175618E+01 -0.86042582842E+02  0.11756394420E+03  0.78663841475E+02 0.  0.
        -13    1    4    4    0    0  0.10276266615E+00 -0.22488706876E+02 -0.89991691980E+02  0.92759134982E+02  0.00000000000E+00 0.  1.
         14    1    4    4    0    0  0.14770540452E+02  0.19532389314E+02  0.39491091378E+01  0.24804809223E+02  0.00000000000E+00 0. -1.
        -13    1    3    3    0    0  0.13479195572E+02 -0.56407380844E+02  0.26059832577E+02  0.63581413958E+02  0.00000000000E+00 0. -1.
         13    1    3    3    0    0  0.58147184570E+01  0.37748300783E+02  0.32971156517E+02  0.50456340779E+02  0.00000000000E+00 0.  1.
          1    1    1    2  501    0 -0.34167217148E+02  0.21615397623E+02 -0.76522011338E+01  0.41148272433E+02  0.00000000000E+00 0. -1.
<scales pt_clust_5="13000.00000" pt_clust_6="13000.00000" pt_clust_7="13000.00000" pt_clust_8="13000.00000" pt_clust_9="40.43049"></scales>
<clustering>
<clus scale="   40.430">  2  9  1 -1</clus>
<clus scale="   78.664">  5  6 -1 -1</clus>
<clus scale="   80.811">  2  5  1 -1</clus>
<clus scale="   93.806">  7  8 -1 -1</clus>
<clus scale="   40.430">  2  5  1 -1</clus>
</clustering>
</event>
<event>
 9    2  0.5615294E-005  0.1019743E+03  0.7546771E-02  0.1285246E+00
         21   -1    0    0  501  502  0.00000000000E+00  0.00000000000E+00  0.24419449398E+03  0.24419449398E+03  0.00000000000E+00 0.  1.
          2   -1    0    0  502    0 -0.00000000000E+00 -0.00000000000E+00 -0.14130970595E+03  0.14130970595E+03  0.00000000000E+00 0. -1.
         24    2    1    2    0    0  0.49443239001E+02  0.50092683473E+01 -0.10182174968E+03  0.13414137093E+03  0.71808857640E+02 0.  0.
         23    2    1    2    0    0 -0.31061281805E+02  0.96644049913E+01  0.81796224502E+02  0.12622227548E+03  0.90461243271E+02 0.  0.
        -11    1    3    3    0    0 -0.60163190396E+01  0.19297804602E+02 -0.37305613130E+01  0.20555253464E+02  0.00000000000E+00 0.  1.
         12    1    3    3    0    0  0.55459558041E+02 -0.14288536255E+02 -0.98091188368E+02  0.11358611747E+03  0.00000000000E+00 0. -1.
        -11    1    4    4    0    0 -0.62436541636E+02  0.55861717085E+01  0.65385481633E+02  0.90580286234E+02  0.00000000000E+00 0.  1.
         11    1    4    4    0    0  0.31375259830E+02  0.40782332828E+01  0.16410742869E+02  0.35641989249E+02  0.00000000000E+00 0. -1.
          1    1    1    2  501    0 -0.18381957196E+02 -0.14673673339E+02  0.12291031321E+03  0.12514055351E+03  0.00000000000E+00 0. -1.
<scales pt_clust_5="13000.00000" pt_clust_6="13000.00000" pt_clust_7="13000.00000" pt_clust_8="13000.00000" pt_clust_9="23.52048"></scales>
<clustering>
<clus scale="   23.520">  1  9  2 -1</clus>
<clus scale="   71.809">  5  6 -1 -1</clus>
<clus scale="   85.861">  2  5  1 -1</clus>
<clus scale="   90.461">  7  8 -1 -1</clus>
<clus scale="   23.520">  1  5  2 -1</clus>
</clustering>
</event>
<event>
 9    2  0.5615294E-005  0.3766533E+03  0.7546771E-02  0.1095673E+00
         21   -1    0    0  501  502  0.00000000000E+00  0.00000000000E+00  0.14669720439E+03  0.14669720439E+03  0.00000000000E+00 0. -1.
          2   -1    0    0  502    0 -0.00000000000E+00 -0.00000000000E+00 -0.14398307068E+04  0.14398307068E+04  0.00000000000E+00 0. -1.
         24    2    1    2    0    0 -0.68085806261E+02  0.35538121681E+02 -0.87609764677E+02  0.14463070926E+03  0.85696768243E+02 0.  0.
         23    2    1    2    0    0  0.21867612761E+02 -0.38732345365E+03 -0.85151072582E+03  0.94068441896E+03  0.96535017751E+02 0.  0.
        -13    1    3    3    0    0 -0.40156052273E+02  0.13733972117E+02  0.75339705515E+01  0.43103262481E+02  0.00000000000E+00 0.  1.
         14    1    3    3    0    0 -0.27929753989E+02  0.21804149564E+02 -0.95143735229E+02  0.10152744678E+03  0.00000000000E+00 0. -1.
        -11    1    4    4    0    0 -0.36763713487E+02 -0.17280537226E+03 -0.34928732621E+03  0.39142675376E+03  0.00000000000E+00 0.  1.
         11    1    4    4    0    0  0.58631326248E+02 -0.21451808139E+03 -0.50222339961E+03  0.54925766519E+03  0.00000000000E+00 0. -1.
          1    1    1    2  501    0  0.46218193500E+02  0.35178533197E+03 -0.35401301189E+03  0.50121278294E+03  0.00000000000E+00 0. -1.
<scales pt_clust_5="13000.00000" pt_clust_6="13000.00000" pt_clust_7="13000.00000" pt_clust_8="13000.00000" pt_clust_9="364.07237"></scales>
<clustering>
<clus scale="   85.697">  5  6 -1 -1</clus>
<clus scale="   96.535">  7  8 -1 -1</clus>
<clus scale="  115.076">  2  5  1 -1</clus>
<clus scale="  364.072">  1  9  2 -1</clus>
<clus scale="  364.072">  1  5  2 -1</clus>
</clustering>
</event>
<event>
 9    2  0.5615294E-005  0.1033955E+03  0.7546771E-02  0.1281108E+00
          2   -1    0    0  502    0 -0.00000000000E+00  0.00000000000E+00  0.18352461583E+03  0.18352461583E+03  0.00000000000E+00 0. -1.
         21   -1    0    0  501  502  0.00000000000E+00 -0.00000000000E+00 -0.11994380743E+03  0.11994380743E+03  0.00000000000E+00 0.  1.
         24    2    1    2    0    0  0.45429818051E+02 -0.88124485185E+01  0.11209279263E+03  0.14252316700E+03  0.74876774463E+02 0.  0.
         23    2    1    2    0    0 -0.46903263319E+02  0.48138563545E+02 -0.29590321558E+02  0.11727898000E+03  0.91441427212E+02 0.  0.
        -11    1    3    3    0    0  0.96354136108E+01  0.25765877588E+02  0.10591559029E+02  0.29477156681E+02  0.00000000000E+00 0.  1.
         12    1    3    3    0    0  0.35794404440E+02 -0.34578326107E+02  0.10150123360E+03  0.11304601032E+03  0.00000000000E+00 0. -1.
        -13    1    4    4    0    0 -0.88737932074E+01 -0.18862471162E+02  0.17300513753E+02  0.27089569955E+02  0.00000000000E+00 0. -1.
         13    1    4    4    0    0 -0.38029470112E+02  0.67001034707E+02 -0.46890835311E+02  0.90189410049E+02  0.00000000000E+00 0.  1.
          1    1    1    2  501    0  0.14734452687E+01 -0.39326115027E+02 -0.18921662672E+02  0.43666276259E+02  0.00000000000E+00 0. -1.
<scales pt_clust_5="13000.00000" pt_clust_6="13000.00000" pt_clust_7="13000.00000" pt_clust_8="13000.00000" pt_clust_9="39.35371"></scales>
<clustering>
<clus scale="   39.354">  2  9  1 -1</clus>
<clus scale="   74.877">  5  6 -1 -1</clus>
<clus scale="   89.082">  1  5  2 -1</clus>
<clus scale="   91.441">  7  8 -1 -1</clus>
<clus scale="   39.354">  2  5  1 -1</clus>
</clustering>
</event>
<event>
 9    2  0.5615294E-005  0.1562664E+03  0.7546771E-02  0.1209964E+00
          2   -1    0    0  502    0 -0.00000000000E+00  0.00000000000E+00  0.24772147959E+04  0.24772147959E+04  0.00000000000E+00 0. -1.
         21   -1    0    0  501  502  0.00000000000E+00 -0.00000000000E+00 -0.18839071380E+02  0.18839071380E+02  0.00000000000E+00 0. -1.
         24    2    1    2    0    0 -0.18530591832E+02  0.69129499418E+02  0.57541666997E+03  0.58549229274E+03  0.81083970414E+02 0.  0.
         23    2    1    2    0    0  0.90474862959E+02  0.72705481773E+02  0.60271904939E+03  0.62048110773E+03  0.90855735312E+02 0.  0.
        -13    1    3    3    0    0 -0.49381528798E+02  0.53122649390E+02  0.42203642960E+03  0.42822342203E+03  0.00000000000E+00 0.  1.
         14    1    3    3    0    0  0.30850936966E+02  0.16006850027E+02  0.15338024036E+03  0.15726887071E+03  0.00000000000E+00 0. -1.
        -11    1    4    4    0    0  0.51193795373E+02  0.90732082102E+02  0.42707994913E+03  0.43960254589E+03  0.00000000000E+00 0. -1.
         11    1    4    4    0    0  0.39281067587E+02 -0.18026600329E+02  0.17563910027E+03  0.18087856184E+03  0.00000000000E+00 0.  1.
          1    1    1    2  501    0 -0.71944271128E+02 -0.14183498119E+03  0.12802400051E+04  0.12900804668E+04  0.00000000000E+00 0. -1.
<scales pt_clust_5="13000.00000" pt_clust_6="13000.00000" pt_clust_7="13000.00000" pt_clust_8="13000.00000" pt_clust_9="127.13950"></scales>
<clustering>
<clus scale="   81.084">  5  6 -1 -1</clus>
<clus scale="   90.856">  7  8 -1 -1</clus>
<clus scale="  108.152">  1  5  2 -1</clus>
<clus scale="  127.139">  2  9  1 -1</clus>
<clus scale="  127.139">  2  5  1 -1</clus>
</clustering>
</event>
<event>
 9    2  0.5615294E-005  0.1466393E+03  0.7546771E-02  0.1223346E+00
          2   -1    0    0  502    0 -0.00000000000E+00  0.00000000000E+00  0.46295445207E+03  0.46295445207E+03  0.00000000000E+00 0. -1.
         21   -1    0    0  501  502  0.00000000000E+00 -0.00000000000E+00 -0.37432282095E+03  0.37432282095E+03  0.00000000000E+00 0. -1.
         24    2    1    2    0    0  0.20071770025E+02 -0.55667641670E+02 -0.99130118341E+02  0.13986197665E+03  0.78948273385E+02 0.  0.
         23    2    1    2    0    0 -0.13137939524E+03  0.69601411406E+02  0.41134776786E+03  0.44726685044E+03  0.93465220363E+02 0.  0.
        -11    1    3    3    0    0  0.42114083567E+02 -0.13447517793E+02 -0.73512482994E+02  0.85781798334E+02  0.00000000000E+00 0.  1.
         12    1    3    3    0    0 -0.22042313542E+02 -0.42220123877E+02 -0.25617635347E+02  0.54080178321E+02  0.00000000000E+00 0. -1.
        -13    1    4    4    0    0 -0.50485076950E+02  0.23102844775E+02  0.28410956897E+03  0.28948356018E+03  0.00000000000E+00 0.  1.
         13    1    4    4    0    0 -0.80894318292E+02  0.46498566631E+02  0.12723819889E+03  0.15778329027E+03  0.00000000000E+00 0. -1.
          1    1    1    2  501    0  0.11130762522E+03 -0.13933769736E+02 -0.22358601840E+03  0.25014844592E+03  0.00000000000E+00 0. -1.
<scales pt_clust_5="13000.00000" pt_clust_6="13000.00000" pt_clust_7="13000.00000" pt_clust_8="13000.00000" pt_clust_9="112.99260"></scales>
<clustering>
<clus scale="   78.948">  5  6 -1 -1</clus>
<clus scale="   93.465">  7  8 -1 -1</clus>
<clus scale="   98.664">  1  5  2 -1</clus>
<clus scale="  112.993">  2  9  1 -1</clus>
<clus scale="  112.993">  2  5  1 -1</clus>
</clustering>
</event>
<event>
 9    2  0.5615294E-005  0.1146177E+03  0.7546771E-02  0.1266561E+00
         21   -1    0    0  501  502  0.00000000000E+00  0.00000000000E+00  0.28336719780E+02  0.28336719780E+02  0.00000000000E+00 0. -1.
          2   -1    0    0  502    0 -0.00000000000E+00 -0.00000000000E+00 -0.70769585134E+03  0.70769585134E+03  0.00000000000E+00 0. -1.
         24    2    1    2    0    0 -0.22814062009E+02 -0.80966678541E+02 -0.34427643829E+03  0.35826643398E+03  0.52464152468E+02 0.  0.
         23    2    1    2    0    0  0.52603859250E+02  0.21465169939E+02 -0.20970635670E+03  0.23582570134E+03  0.91701067826E+02 0.  0.
        -11    1    3    3    0    0 -0.18575914475E+02 -0.28135441805E+02 -0.57681283275E+02  0.66811661590E+02  0.00000000000E+00 0.  1.
         12    1    3    3    0    0 -0.42381475346E+01 -0.52831236736E+02 -0.28659515501E+03  0.29145477239E+03  0.00000000000E+00 0. -1.
        -13    1    4    4    0    0 -0.12892836905E+02  0.35908649055E+02 -0.52405278587E+02  0.64822600567E+02  0.00000000000E+00 0.  1.
         13    1    4    4    0    0  0.65496696155E+02 -0.14443479117E+02 -0.15730107812E+03  0.17100310077E+03  0.00000000000E+00 0. -1.
          1    1    1    2  501    0 -0.29789797241E+02  0.59501508603E+02 -0.12537633656E+03  0.14194043580E+03  0.00000000000E+00 0. -1.
<scales pt_clust_5="13000.00000" pt_clust_6="13000.00000" pt_clust_7="13000.00000" pt_clust_8="13000.00000" pt_clust_9="66.54218"></scales>
<clustering>
<clus scale="   52.464">  5  6 -1 -1</clus>
<clus scale="   66.542">  1  9  2 -1</clus>
<clus scale="   86.491">  2  5  1 -1</clus>
<clus scale="   91.701">  7  8 -1 -1</clus>
<clus scale="   66.542">  1  5  2 -1</clus>
</clustering>
</event>
<event>
 9    2  0.5615294E-005  0.2101705E+03  0.7546771E-02  0.1142249E+00
          2   -1    0    0  502    0 -0.00000000000E+00  0.00000000000E+00  0.12018569378E+04  0.12018569378E+04  0.00000000000E+00 0. -1.
         21   -1    0    0  501  502  0.00000000000E+00 -0.00000000000E+00 -0.48792143580E+02  0.48792143580E+02  0.00000000000E+00 0.  1.
         24    2    1    2    0    0  0.18752054911E+03 -0.78553061588E+02  0.78041465746E+03  0.81052105632E+03  0.81011143335E+02 0.  0.
         23    2    1    2    0    0 -0.15723497262E+03  0.56503835156E+02  0.34354591569E+03  0.39268922013E+03  0.90914836075E+02 0.  0.
        -13    1    3    3    0    0  0.94200472995E+02  0.91970907486E+00  0.28490181703E+03  0.30007269174E+03  0.00000000000E+00 0.  1.
         14    1    3    3    0    0  0.93320076111E+02 -0.79472770663E+02  0.49551284042E+03  0.51044836458E+03  0.00000000000E+00 0. -1.
        -13    1    4    4    0    0 -0.74629772747E+02  0.46200056901E+01  0.70602139102E+02  0.10283778235E+03  0.00000000000E+00 0.  1.
         13    1    4    4    0    0 -0.82605199869E+02  0.51883829465E+02  0.27294377659E+03  0.28985143778E+03  0.00000000000E+00 0. -1.
          1    1    1    2  501    0 -0.30285576489E+02  0.22049226433E+02  0.29104221093E+02  0.47438804949E+02  0.00000000000E+00 0. -1.
<scales pt_clust_5="13000.00000" pt_clust_6="13000.00000" pt_clust_7="13000.00000" pt_clust_8="13000.00000" pt_clust_9="37.46177"></scales>
<clustering>
<clus scale="   37.462">  2  9  1 -1</clus>
<clus scale="   81.011">  5  6 -1 -1</clus>
<clus scale="   90.915">  7  8 -1 -1</clus>
<clus scale="  206.080">  1  5  2 -1</clus>
<clus scale="   37.462">  2  5  1 -1</clus>
</clustering>
</event>
<event>
 9    2  0.5615294E-005  0.1002293E+03  0.7546771E-02  0.1284466E+00
         21   -1    0    0  501  502  0.00000000000E+00  0.00000000000E+00  0.72837101958E+02  0.72837101958E+02  0.00000000000E+00 0.  1.
          2   -1    0    0  502    0 -0.00000000000E+00 -0.00000000000E+00 -0.46068423851E+03  0.46068423851E+03  0.00000000000E+00 0. -1.
         23    2    1    2    0    0  0.35298200237E+02  0.20635995773E+02 -0.29181036977E+03  0.30866055824E+03  0.91903433256E+02 0.  0.
         24    2    1    2    0    0 -0.46744132322E+02  0.18165791973E+02  0.22841380298E+02  0.99287688192E+02  0.82591200912E+02 0.  0.
        -11    1    4    4    0    0 -0.67843485687E+02  0.24277674419E+02  0.26966035969E+02  0.76937059479E+02  0.00000000000E+00 0.  1.
         12    1    4    4    0    0  0.21099353365E+02 -0.61118824469E+01 -0.41246556707E+01  0.22350628713E+02  0.00000000000E+00 0. -1.
        -13    1    3    3    0    0 -0.26005902496E+02 -0.64642532566E+01 -0.14247035457E+03  0.14496860165E+03  0.00000000000E+00 0.  1.
         13    1    3    3    0    0  0.61304102733E+02  0.27100249030E+02 -0.14934001520E+03  0.16369195659E+03  0.00000000000E+00 0. -1.
          1    1    1    2  501    0  0.11445932085E+02 -0.38801787746E+02 -0.11887814707E+03  0.12557309403E+03  0.00000000000E+00 0. -1.
<scales pt_clust_5="13000.00000" pt_clust_6="13000.00000" pt_clust_7="13000.00000" pt_clust_8="13000.00000" pt_clust_9="40.45479"></scales>
<clustering>
<clus scale="   40.455">  1  9  2 -1</clus>
<clus scale="   82.591">  5  6 -1 -1</clus>
<clus scale="   91.766">  1  5  2 -1</clus>
<clus scale="   91.903">  7  8 -1 -1</clus>
<clus scale="   40.455">  1  5  2 -1</clus>
</clustering>
</event>
<event>
 9    2  0.5615294E-005  0.1376933E+03  0.7546771E-02  0.1219513E+00
         21   -1    0    0  501  502  0.00000000000E+00  0.00000000000E+00  0.30654928776E+02  0.30654928776E+02  0.00000000000E+00 0.  1.
          2   -1    0    0  502    0 -0.00000000000E+00 -0.00000000000E+00 -0.13902921704E+04  0.13902921704E+04  0.00000000000E+00 0. -1.
         24    2    1    2    0    0 -0.10697971443E+03 -0.21526225688E+02 -0.97869627453E+03  0.98791796133E+03  0.78914275286E+02 0.  0.
         23    2    1    2    0    0  0.57228088446E+02  0.57739178900E+02 -0.14962602110E+03  0.19366914430E+03  0.92254671313E+02 0.  0.
        -13    1    3    3    0    0 -0.36898004697E+02  0.24939513190E+02 -0.21219387315E+03  0.21681716231E+03  0.00000000000E+00 0.  1.
         14    1    3    3    0    0 -0.70081709732E+02 -0.46465738878E+02 -0.76650240138E+03  0.77110079902E+03  0.00000000000E+00 0. -1.
        -13    1    4    4    0    0  0.75118210794E+02  0.67817783945E+02 -0.11310958882E+03  0.15177541466E+03  0.00000000000E+00 0.  1.
         13    1    4    4    0    0 -0.17890122348E+02 -0.10078605045E+02 -0.36516432277E+02  0.41893729644E+02  0.00000000000E+00 0. -1.
          1    1    1    2  501    0  0.49751625982E+02 -0.36212953212E+02 -0.23131494602E+03  0.23935999356E+03  0.00000000000E+00 0. -1.
<scales pt_clust_5="13000.00000" pt_clust_6="13000.00000" pt_clust_7="13000.00000" pt_clust_8="13000.00000" pt_clust_9="61.53540"></scales>
<clustering>
<clus scale="   61.535">  1  9  2 -1</clus>
<clus scale="   78.914">  5  6 -1 -1</clus>
<clus scale="   92.255">  7  8 -1 -1</clus>
<clus scale="  129.136">  2  5  1 -1</clus>
<clus scale="   61.535">  1  5  2 -1</clus>
</clustering>
</event>
<event>
 9    2  0.5615294E-005  0.1569295E+03  0.7546771E-02  0.1193374E+00
          2   -1    0    0  502    0 -0.00000000000E+00  0.00000000000E+00  0.71002846780E+03  0.71002846780E+03  0.00000000000E+00 0. -1.
         21   -1    0    0  501  502  0.00000000000E+00 -0.00000000000E+00 -0.24601405015E+03  0.24601405015E+03  0.00000000000E+00 0. -1.
         24    2    1    2    0    0 -0.68649614568E+02 -0.10541887508E+03  0.60067932320E+03  0.61916329328E+03  0.81985520811E+02 0.  0.
         23    2    1    2    0    0  0.52797109913E+02  0.16052593418E+03 -0.26295540891E+01  0.19109319890E+03  0.89182878133E+02 0.  0.
        -13    1    3    3    0    0 -0.24890911427E+02  0.97753873410E+01  0.95637395035E+02  0.99305724902E+02  0.00000000000E+00 0.  1.
         14    1    3    3    0    0 -0.43758703141E+02 -0.11519426242E+03  0.50504192817E+03  0.51985756838E+03  0.00000000000E+00 0. -1.
        -13    1    4    4    0    0  0.72103048263E+02  0.13570996448E+03 -0.20326616986E+02  0.15501359742E+03  0.00000000000E+00 0.  1.
         13    1    4    4    0    0 -0.19305938350E+02  0.24815969705E+02  0.17697062897E+02  0.36079601482E+02  0.00000000000E+00 0. -1.
          1    1    1    2  501    0  0.15852504654E+02 -0.55107059100E+02 -0.13403535146E+03  0.14578602576E+03  0.00000000000E+00 0. -1.
<scales pt_clust_5="13000.00000" pt_clust_6="13000.00000" pt_clust_7="13000.00000" pt_clust_8="13000.00000" pt_clust_9="57.34187"></scales>
<clustering>
<clus scale="   57.342">  2  9  1 -1</clus>
<clus scale="   81.986">  5  6 -1 -1</clus>
<clus scale="   89.183">  7  8 -1 -1</clus>
<clus scale="  152.954">  1  5  2 -1</clus>
<clus scale="   57.342">  2  5  1 -1</clus>
</clustering>
</event>
<event>
 9    2  0.5615294E-005  0.1186765E+03  0.7546771E-02  0.1249004E+00
         21   -1    0    0  501  502  0.00000000000E+00  0.00000000000E+00  0.11475701192E+03  0.11475701192E+03  0.00000000000E+00 0.  1.
          2   -1    0    0  502    0 -0.00000000000E+00 -0.00000000000E+00 -0.14996626131E+03  0.14996626131E+03  0.00000000000E+00 0. -1.
         23    2    1    2    0    0 -0.73253899022E+02 -0.16800194341E+02 -0.38078339580E+02  0.12450494165E+03  0.91668644027E+02 0.  0.
         24    2    1    2    0    0  0.65473585178E+02  0.43355223490E+02  0.50423905739E+01  0.11246178116E+03  0.80347748937E+02 0.  0.
        -13    1    4    4    0    0  0.52931911512E+02  0.63799518362E+02  0.18530918079E+02  0.84944456702E+02  0.00000000000E+00 0.  1.
         14    1    4    4    0    0  0.12541673666E+02 -0.20444294872E+02 -0.13488527505E+02  0.27517324459E+02  0.00000000000E+00 0. -1.
        -11    1    3    3    0    0 -0.90384919394E+01 -0.26295404606E+02 -0.51214250137E+02  0.58275569985E+02  0.00000000000E+00 0. -1.
         11    1    3    3    0    0 -0.64215407083E+02  0.94952102657E+01  0.13135910557E+02  0.66229371663E+02  0.00000000000E+00 0.  1.
          1    1    1    2  501    0  0.77803138437E+01 -0.26555029150E+02 -0.21733003781E+01  0.27756550419E+02  0.00000000000E+00 0. -1.
<scales pt_clust_5="13000.00000" pt_clust_6="13000.00000" pt_clust_7="13000.00000" pt_clust_8="13000.00000" pt_clust_9="27.67134"></scales>
<clustering>
<clus scale="   27.671">  1  9  2 -1</clus>
<clus scale="   80.348">  5  6 -1 -1</clus>
<clus scale="   91.669">  7  8 -1 -1</clus>
<clus scale="  110.167">  1  5  2 -1</clus>
<clus scale="   27.671">  1  5  2 -1</clus>
</clustering>
</event>
<event>
 9    2  0.5615294E-005  0.1028539E+03  0.7546771E-02  0.1278612E+00
         21   -1    0    0  501  502  0.00000000000E+00  0.00000000000E+00  0.65278846389E+02  0.65278846389E+02  0.00000000000E+00 0. -1.
         -3   -1    0    0    0  501 -0.00000000000E+00 -0.00000000000E+00 -0.24373436527E+03  0.24373436527E+03  0.00000000000E+00 0.  1.
         23    2    1    2    0    0  0.40354742250E+02 -0.10458472506E+02 -0.13762554319E+03  0.16996618517E+03  0.90608107222E+02 0.  0.
         24    2    1    2    0    0 -0.63780901329E+02  0.20690482749E+02 -0.23314979042E+02  0.10805905994E+03  0.81468231462E+02 0.  0.
        -13    1    4    4    0    0 -0.29649805786E+02  0.26754973765E+02 -0.50229855099E+02  0.64171473004E+02  0.00000000000E+00 0.  1.
         14    1    4    4    0    0 -0.34131095543E+02 -0.60644910156E+01  0.26914876057E+02  0.43887586940E+02  0.00000000000E+00 0. -1.
        -11    1    3    3    0    0  0.61838714081E+02  0.16414420018E+02 -0.10226349862E+03  0.12062869847E+03  0.00000000000E+00 0.  1.
         11    1    3    3    0    0 -0.21483971830E+02 -0.26872892524E+02 -0.35362044561E+02  0.49337486698E+02  0.00000000000E+00 0. -1.
         -4    1    1    2    0  502  0.23426159079E+02 -0.10232010244E+02 -0.17514996648E+02  0.30987966542E+02  0.00000000000E+00 0.  1.
<scales pt_clust_5="13000.00000" pt_clust_6="13000.00000" pt_clust_7="13000.00000" pt_clust_8="13000.00000" pt_clust_9="25.56323"></scales>
<clustering>
<clus scale="   25.563">  1  9  2 -1</clus>
<clus scale="   81.468">  5  6 -1 -1</clus>
<clus scale="   90.608">  7  8 -1 -1</clus>
<clus scale="   94.901">  1  5  2 -1</clus>
<clus scale="   25.563">  1  5  2 -1</clus>
</clustering>
</event>
<event>
 9    2  0.5615294E-005  0.1269474E+03  0.7546771E-02  0.1235790E+00
          2   -1    0    0  502    0 -0.00000000000E+00  0.00000000000E+00  0.16240961070E+03  0.16240961070E+03  0.00000000000E+00 0. -1.
         21   -1    0    0  501  502  0.00000000000E+00 -0.00000000000E+00 -0.15315445262E+03  0.15315445262E+03  0.00000000000E+00 0.  1.
         24    2    1    2    0    0 -0.92648952616E+02  0.11523008764E+02  0.11939617146E+02  0.12343103697E+03  0.79850224031E+02 0.  0.
         23    2    1    2    0    0  0.72736363384E+02 -0.15856556724E+02 -0.58455592675E+02  0.13275533533E+03  0.93085518713E+02 0.  0.
        -13    1    3    3    0    0 -0.24794167836E+02 -0.17207413497E+02 -0.26640063014E+02  0.40255916277E+02  0.00000000000E+00 0.  1.
         14    1    3    3    0    0 -0.67854784780E+02  0.28730422262E+02  0.38579680160E+02  0.83175120692E+02  0.00000000000E+00 0. -1.
        -11    1    4    4    0    0  0.53700643855E+02  0.27852035697E+02 -0.59800746534E+02  0.85062473094E+02  0.00000000000E+00 0.  1.
         11    1    4    4    0    0  0.19035719528E+02 -0.43708592420E+02  0.13451538584E+01  0.47692862236E+02  0.00000000000E+00 0. -1.
          1    1    1    2  501    0  0.19912589233E+02  0.43335479594E+01  0.55771133606E+02  0.59377691026E+02  0.00000000000E+00 0. -1.
<scales pt_clust_5="13000.00000" pt_clust_6="13000.00000" pt_clust_7="13000.00000" pt_clust_8="13000.00000" pt_clust_9="20.37870"></scales>
<clustering>
<clus scale="   20.379">  2  9  1 -1</clus>
<clus scale="   79.850">  5  6 -1 -1</clus>
<clus scale="   93.086">  7  8 -1 -1</clus>
<clus scale="  117.587">  1  5  2 -1</clus>
<clus scale="   20.379">  2  5  1 -1</clus>
</clustering>
</event>
<event>
 9    2  0.5615294E-005  0.9102255E+02  0.7546771E-02  0.1304205E+00
         21   -1    0    0  501  502  0.00000000000E+00  0.00000000000E+00  0.18471664980E+02  0.18471664980E+02  0.00000000000E+00 0. -1.
          4   -1    0    0  502    0 -0.00000000000E+00 -0.00000000000E+00 -0.75804695571E+03  0.75804695571E+03  0.00000000000E+00 0. -1.
         24    2    1    2    0    0 -0.22756401409E+02 -0.22430345742E+01 -0.45495514167E+03  0.46318458637E+03  0.83862358125E+02 0.  0.
         23    2    1    2    0    0 -0.14187874921E+02 -0.12597041488E+01 -0.17092681108E+03  0.19373753005E+03  0.90085365931E+02 0.  0.
        -13    1    3    3    0    0  0.83877605058E+00  0.22318244794E+02 -0.32941761251E+02  0.39799085796E+02  0.00000000000E+00 0.  1.
         14    1    3    3    0    0 -0.23595177459E+02 -0.24561279368E+02 -0.42201338042E+03  0.42338550058E+03  0.00000000000E+00 0. -1.
        -13    1    4    4    0    0 -0.71646735790E+00  0.30610758533E+02 -0.15146041472E+02  0.34160422065E+02  0.00000000000E+00 0. -1.
         13    1    4    4    0    0 -0.13471407563E+02 -0.31870462682E+02 -0.15578076961E+03  0.15957710799E+03  0.00000000000E+00 0.  1.
          3    1    1    2  501    0  0.36944276329E+02  0.35027387230E+01 -0.11369333797E+03  0.11959650426E+03  0.00000000000E+00 0. -1.
<scales pt_clust_5="13000.00000" pt_clust_6="13000.00000" pt_clust_7="13000.00000" pt_clust_8="13000.00000" pt_clust_9="37.10995"></scales>
<clustering>
<clus scale="   37.110">  1  9  2 -1</clus>
<clus scale="   83.862">  5  6 -1 -1</clus>
<clus scale="   84.868">  2  5  1 -1</clus>
<clus scale="   90.085">  7  8 -1 -1</clus>
<clus scale="   37.110">  1  5  2 -1</clus>
</clustering>
</event>
<event>
 9    2  0.6225440E-005  0.1264758E+03  0.7546771E-02  0.1233181E+00
         -1   -1    0    0    0  501 -0.00000000000E+00  0.00000000000E+00  0.35796107474E+03  0.35796107474E+03  0.00000000000E+00 0.  1.
         21   -1    0    0  501  502  0.00000000000E+00 -0.00000000000E+00 -0.44566774022E+03  0.44566774022E+03  0.00000000000E+00 0.  1.
         23    2    1    2    0    0  0.96343287568E+02  0.21203784173E+01  0.25126468458E+03  0.28413466628E+03  0.91170399812E+02 0.  0.
         24    2    1    2    0    0 -0.32674188115E+02 -0.11200448085E+03  0.14860144016E+02  0.14356197875E+03  0.82320177141E+02 0.  0.
        -11    1    4    4    0    0 -0.30813468788E+01 -0.10218989662E+03  0.33074809270E+02  0.10745330464E+03  0.00000000000E+00 0.  1.
         12    1    4    4    0    0 -0.29592841236E+02 -0.98145842288E+01 -0.18214665254E+02  0.36108674115E+02  0.00000000000E+00 0. -1.
        -13    1    3    3    0    0  0.69806601039E+02 -0.20734727304E+02  0.23403726103E+03  0.24510473275E+03  0.00000000000E+00 0.  1.
         13    1    3    3    0    0  0.26536686529E+02  0.22855105721E+02  0.17227423549E+02  0.39029933533E+02  0.00000000000E+00 0. -1.
         -2    1    1    2    0  502 -0.63669099454E+02  0.10988410243E+03 -0.35383149407E+03  0.37593216993E+03  0.00000000000E+00 0.  1.
<scales pt_clust_5="13000.00000" pt_clust_6="13000.00000" pt_clust_7="13000.00000" pt_clust_8="13000.00000" pt_clust_9="126.99713"></scales>
<clustering>
<clus scale="   82.320">  5  6 -1 -1</clus>
<clus scale="   91.170">  7  8 -1 -1</clus>
<clus scale="  126.997">  2  9  1 -1</clus>
<clus scale="  126.997">  2  5  1 -1</clus>
<clus scale="  126.476">  2  5  1 -1</clus>
</clustering>
</event>
<event>
 9    2  0.5615294E-005  0.9316090E+02  0.7546771E-02  0.1298149E+00
         -1   -1    0    0    0  501 -0.00000000000E+00  0.00000000000E+00  0.11819571279E+03  0.11819571279E+03  0.00000000000E+00 0.  1.
         21   -1    0    0  501  502  0.00000000000E+00 -0.00000000000E+00 -0.15183402125E+03  0.15183402125E+03  0.00000000000E+00 0.  1.
         23    2    1    2    0    0 -0.29719991712E+02  0.13015846792E+02  0.15020176935E+02  0.98366818430E+02  0.91639156903E+02 0.  0.
         24    2    1    2    0    0 -0.20777706859E+02 -0.16164198294E+00 -0.71832865458E+02  0.11463397530E+03  0.86886411496E+02 0.  0.
        -11    1    4    4    0    0  0.90476039501E+01 -0.27627698951E+02 -0.67944302773E+02  0.73902484166E+02  0.00000000000E+00 0.  1.
         12    1    4    4    0    0 -0.29825310809E+02  0.27466056968E+02 -0.38885626847E+01  0.40731491134E+02  0.00000000000E+00 0. -1.
        -13    1    3    3    0    0  0.49912093138E+01  0.43604488540E+02 -0.11053415315E+02  0.45259712564E+02  0.00000000000E+00 0. -1.
         13    1    3    3    0    0 -0.34711201026E+02 -0.30588641749E+02  0.26073592249E+02  0.53107105866E+02  0.00000000000E+00 0.  1.
         -2    1    1    2    0  502  0.50497698571E+02 -0.12854204809E+02  0.23174380065E+02  0.57028940317E+02  0.00000000000E+00 0.  1.
<scales pt_clust_5="13000.00000" pt_clust_6="13000.00000" pt_clust_7="13000.00000" pt_clust_8="13000.00000" pt_clust_9="52.10807"></scales>
<clustering>
<clus scale="   52.108">  2  9  1 -1</clus>
<clus scale="   86.886">  5  6 -1 -1</clus>
<clus scale="   88.490">  2  5  1 -1</clus>
<clus scale="   91.639">  7  8 -1 -1</clus>
<clus scale="   52.108">  2  5  1 -1</clus>
</clustering>
</event>
<event>
 9    2  0.5615294E-005  0.9314258E+02  0.7546771E-02  0.1299781E+00
          2   -1    0    0  502    0 -0.00000000000E+00  0.00000000000E+00  0.77330473678E+03  0.77330473678E+03  0.00000000000E+00 0. -1.
         21   -1    0    0  501  502  0.00000000000E+00 -0.00000000000E+00 -0.22097295548E+02  0.22097295548E+02  0.00000000000E+00 0.  1.
         24    2    1    2    0    0 -0.14547903835E+02  0.10378461824E+02  0.52412266056E+03  0.53118239409E+03  0.84444173858E+02 0.  0.
         23    2    1    2    0    0  0.19055869243E+02  0.22804531923E+02  0.19631417233E+03  0.21874147685E+03  0.91790013652E+02 0.  0.
        -13    1    3    3    0    0  0.20297966058E+02 -0.22955376468E+02  0.10761672396E+03  0.11189421795E+03  0.00000000000E+00 0.  1.
         14    1    3    3    0    0 -0.34845869892E+02  0.33333838292E+02  0.41650593660E+03  0.41928817614E+03  0.00000000000E+00 0. -1.
        -11    1    4    4    0    0  0.33802890001E+02 -0.17504969808E+02  0.34645731918E+02  0.51472187446E+02  0.00000000000E+00 0.  1.
         11    1    4    4    0    0 -0.14747020758E+02  0.40309501731E+02  0.16166844041E+03  0.16726928940E+03  0.00000000000E+00 0. -1.
          1    1    1    2  501    0 -0.45079654083E+01 -0.33182993748E+02  0.30770608339E+02  0.45478161393E+02  0.00000000000E+00 0. -1.
<scales pt_clust_5="13000.00000" pt_clust_6="13000.00000" pt_clust_7="13000.00000" pt_clust_8="13000.00000" pt_clust_9="33.48780"></scales>
<clustering>
<clus scale="   33.488">  2  9  1 -1</clus>
<clus scale="   84.444">  5  6 -1 -1</clus>
<clus scale="   85.912">  1  5  2 -1</clus>
<clus scale="   91.790">  7  8 -1 -1</clus>
<clus scale="   33.488">  2  5  1 -1</clus>
</clustering>
</event>
<event>
 9    2  0.5615294E-005  0.1614986E+03  0.7546771E-02  0.1188482E+00
          2   -1    0    0  502    0 -0.00000000000E+00  0.00000000000E+00  0.51965860889E+03  0.51965860889E+03  0.00000000000E+00 0. -1.
         21   -1    0    0  501  502  0.00000000000E+00 -0.00000000000E+00 -0.12260892216E+03  0.12260892216E+03  0.00000000000E+00 0. -1.
         24    2    1    2    0    0  0.73412806475E+02 -0.61969575165E+02  0.13491808263E+03  0.18478459045E+03  0.81931602252E+02 0.  0.
         23    2    1    2    0    0 -0.11036982501E+03  0.14391724541E+03  0.29805526793E+03  0.36067513358E+03  0.91410816876E+02 0.  0.
        -13    1    3    3    0    0  0.46995194000E+02 -0.77416641024E+02  0.12107042139E+03  0.15119501150E+03  0.00000000000E+00 0.  1.
         14    1    3    3    0    0  0.26417612475E+02  0.15447065858E+02  0.13847661239E+02  0.33589578954E+02  0.00000000000E+00 0. -1.
        -13    1    4    4    0    0 -0.74336419222E+02  0.28309942531E+02  0.14631620241E+03  0.16654064716E+03  0.00000000000E+00 0. -1.
         13    1    4    4    0    0 -0.36033405788E+02  0.11560730288E+03  0.15173906551E+03  0.19413448641E+03  0.00000000000E+00 0.  1.
          1    1    1    2  501    0  0.36957018535E+02 -0.81947670246E+02 -0.35923663831E+02  0.96807807024E+02  0.00000000000E+00 0. -1.
<scales pt_clust_5="13000.00000" pt_clust_6="13000.00000" pt_clust_7="13000.00000" pt_clust_8="13000.00000" pt_clust_9="89.89573"></scales>
<clustering>
<clus scale="   81.932">  5  6 -1 -1</clus>
<clus scale="   89.896">  2  9  1 -1</clus>
<clus scale="   91.411">  7  8 -1 -1</clus>
<clus scale="  156.329">  1  5  2 -1</clus>
<clus scale="   89.896">  2  5  1 -1</clus>
</clustering>
</event>
<event>
 9    2  0.5615294E-005  0.9090289E+02  0.7546771E-02  0.1306296E+00
          2   -1    0    0  502    0 -0.00000000000E+00  0.00000000000E+00  0.44794604680E+03  0.44794604680E+03  0.00000000000E+00 0. -1.
         21   -1    0    0  501  502  0.00000000000E+00 -0.00000000000E+00 -0.99702357367E+02  0.99702357367E+02  0.00000000000E+00 0. -1.
         24    2    1    2    0    0  0.13470489935E+02 -0.11335922158E+02  0.38625641943E+03  0.39480033361E+03  0.79770449662E+02 0.  0.
         23    2    1    2    0    0 -0.41555061663E+02  0.24961072792E+02 -0.57120532299E+02  0.11624894478E+03  0.88888602458E+02 0.  0.
        -11    1    3    3    0    0 -0.67169507799E+01  0.32457106291E+02  0.14038113443E+03  0.14424092374E+03  0.00000000000E+00 0.  1.
         12    1    3    3    0    0  0.20187440715E+02 -0.43793028449E+02  0.24587528499E+03  0.25055940987E+03  0.00000000000E+00 0. -1.
        -11    1    4    4    0    0  0.19779700369E+02  0.30619052356E+02 -0.76481708883E+01  0.37245904900E+02  0.00000000000E+00 0.  1.
         11    1    4    4    0    0 -0.61334762032E+02 -0.56579795636E+01 -0.49472361411E+02  0.79003039877E+02  0.00000000000E+00 0. -1.
          1    1    1    2  501    0  0.28084571728E+02 -0.13625150634E+02  0.19107802303E+02  0.36599125779E+02  0.00000000000E+00 0. -1.
<scales pt_clust_5="13000.00000" pt_clust_6="13000.00000" pt_clust_7="13000.00000" pt_clust_8="13000.00000" pt_clust_9="31.21519"></scales>
<clustering>
<clus scale="   31.215">  2  9  1 -1</clus>
<clus scale="   79.770">  5  6 -1 -1</clus>
<clus scale="   82.009">  1  5  2 -1</clus>
<clus scale="   88.889">  7  8 -1 -1</clus>
<clus scale="   31.215">  2  5  1 -1</clus>
</clustering>
</event>
<event>
 9    2  0.5615294E-005  0.1150979E+03  0.7546771E-02  0.1251978E+00
         21   -1    0    0  501  502  0.00000000000E+00  0.00000000000E+00  0.68558390601E+02  0.68558390601E+02  0.00000000000E+00 0. -1.
          2   -1    0    0  502    0 -0.00000000000E+00 -0.00000000000E+00 -0.12491818799E+04  0.12491818799E+04  0.00000000000E+00 0. -1.
         24    2    1    2    0    0 -0.50584114421E+02 -0.49034329328E+02 -0.11592050763E+04  0.11650796310E+04  0.93225637385E+02 0.  0.
         23    2    1    2    0    0  0.44689231300E+01  0.39065597546E+02 -0.31209813968E+02  0.10447497760E+03  0.91623557407E+02 0.  0.
        -13    1    3    3    0    0 -0.39639128631E+01 -0.20907997895E+02 -0.47581985415E+02  0.52123913103E+02  0.00000000000E+00 0.  1.
         14    1    3    3    0    0 -0.46620201558E+02 -0.28126331433E+02 -0.11116230909E+04  0.11129557179E+04  0.00000000000E+00 0. -1.
        -13    1    4    4    0    0  0.32695924061E+02  0.56075904626E+02 -0.29967498895E+02  0.71495325161E+02  0.00000000000E+00 0. -1.
         13    1    4    4    0    0 -0.28227000931E+02 -0.17010307080E+02 -0.12423150730E+01  0.32979652443E+02  0.00000000000E+00 0.  1.
          1    1    1    2  501    0  0.46115191291E+02  0.99687317818E+01  0.97914009911E+01  0.48185661918E+02  0.00000000000E+00 0. -1.
<scales pt_clust_5="13000.00000" pt_clust_6="13000.00000" pt_clust_7="13000.00000" pt_clust_8="13000.00000" pt_clust_9="47.18036"></scales>
<clustering>
<clus scale="   47.180">  1  9  2 -1</clus>
<clus scale="   91.624">  7  8 -1 -1</clus>
<clus scale="   93.226">  5  6 -1 -1</clus>
<clus scale="  113.804">  1  7  2 -1</clus>
<clus scale="   47.180">  1  5  2 -1</clus>
</clustering>
</event>
<event>
 9    2  0.5615294E-005  0.1022163E+03  0.7546771E-02  0.1280134E+00
          2   -1    0    0  502    0 -0.00000000000E+00  0.00000000000E+00  0.67741690072E+03  0.67741690072E+03  0.00000000000E+00 0. -1.
         21   -1    0    0  501  502  0.00000000000E+00 -0.00000000000E+00 -0.55462038425E+02  0.55462038425E+02  0.00000000000E+00 0.  1.
         24    2    1    2    0    0  0.46500864114E+02  0.22331606399E+02  0.54183600999E+03  0.55023626409E+03  0.80701013538E+02 0.  0.
         23    2    1    2    0    0 -0.38226926748E+02  0.96579533983E+01  0.10297208721E+03  0.14246730547E+03  0.90217007217E+02 0.  0.
        -11    1    3    3    0    0  0.18727436468E+02  0.30968310518E+02  0.83839100313E+02  0.91316744764E+02  0.00000000000E+00 0.  1.
         12    1    3    3    0    0  0.27773427646E+02 -0.86367041192E+01  0.45799690968E+03  0.45891951933E+03  0.00000000000E+00 0. -1.
        -11    1    4    4    0    0  0.13004671978E+02 -0.29640724546E+02  0.46690873643E+02  0.56813129877E+02  0.00000000000E+00 0. -1.
         11    1    4    4    0    0 -0.51231598725E+02  0.39298677944E+02  0.56281213570E+02  0.85654175596E+02  0.00000000000E+00 0.  1.
          1    1    1    2  501    0 -0.82739373667E+01 -0.31989559797E+02 -0.22853234908E+02  0.40175369585E+02  0.00000000000E+00 0. -1.
<scales pt_clust_5="13000.00000" pt_clust_6="13000.00000" pt_clust_7="13000.00000" pt_clust_8="13000.00000" pt_clust_9="33.04225"></scales>
<clustering>
<clus scale="   33.042">  2  9  1 -1</clus>
<clus scale="   80.701">  5  6 -1 -1</clus>
<clus scale="   90.217">  7  8 -1 -1</clus>
<clus scale="   93.924">  1  5  2 -1</clus>
<clus scale="   33.042">  2  5  1 -1</clus>
</clustering>
</event>
<event>
 9    2  0.5615294E-005  0.9106250E+02  0.7546771E-02  0.1307370E+00
         21   -1    0    0  501  502  0.00000000000E+00  0.00000000000E+00  0.19481449737E+03  0.19481449737E+03  0.00000000000E+00 0. -1.
          2   -1    0    0  502    0 -0.00000000000E+00 -0.00000000000E+00 -0.23656205538E+03  0.23656205538E+03  0.00000000000E+00 0. -1.
         23    2    1    2    0    0 -0.76621274511E+01 -0.40817572455E+01 -0.19198413524E+03  0.21234381044E+03  0.90313989552E+02 0.  0.
         24    2    1    2    0    0  0.31664336232E+02 -0.65489002925E+01  0.22193199962E+02  0.88326111390E+02  0.79141932909E+02 0.  0.
        -13    1    4    4    0    0  0.43745181976E+02 -0.95701867767E+01  0.44276717385E+02  0.62973463645E+02  0.00000000000E+00 0.  1.
         14    1    4    4    0    0 -0.12080845744E+02  0.30212864842E+01 -0.22083517423E+02  0.25352647745E+02  0.00000000000E+00 0. -1.
        -11    1    3    3    0    0  0.25985732341E+02 -0.16899787395E+02 -0.16355591771E+03  0.16646741218E+03  0.00000000000E+00 0.  1.
         11    1    3    3    0    0 -0.33647859792E+02  0.12818030149E+02 -0.28428217530E+02  0.45876398261E+02  0.00000000000E+00 0. -1.
          1    1    1    2  501    0 -0.24002208781E+02  0.10630657538E+02  0.12804337726E+03  0.13070663092E+03  0.00000000000E+00 0. -1.
<scales pt_clust_5="13000.00000" pt_clust_6="13000.00000" pt_clust_7="13000.00000" pt_clust_8="13000.00000" pt_clust_9="26.25104"></scales>
<clustering>
<clus scale="   26.251">  1  9  2 -1</clus>
<clus scale="   79.142">  5  6 -1 -1</clus>
<clus scale="   79.995">  1  5  2 -1</clus>
<clus scale="   90.314">  7  8 -1 -1</clus>
<clus scale="   26.251">  1  5  2 -1</clus>
</clustering>
</event>
<event>
 9    2  0.5615294E-005  0.9231712E+02  0.7546771E-02  0.1305491E+00
         21   -1    0    0  501  502  0.00000000000E+00  0.00000000000E+00  0.56647626634E+02  0.56647626634E+02  0.00000000000E+00 0.  1.
          4   -1    0    0  502    0 -0.00000000000E+00 -0.00000000000E+00 -0.37142248365E+03  0.37142248365E+03  0.00000000000E+00 0. -1.
         24    2    1    2    0    0  0.23149057704E+01  0.87410731632E+00 -0.26645529038E+03  0.27800393904E+03  0.79256832485E+02 0.  0.
         23    2    1    2    0    0  0.18948653206E+01 -0.37961000169E+02 -0.16528766397E+02  0.10103745748E+03  0.92145209567E+02 0.  0.
        -13    1    3    3    0    0  0.27487654268E+02 -0.28639754228E+02 -0.11494074516E+03  0.12160255572E+03  0.00000000000E+00 0.  1.
         14    1    3    3    0    0 -0.25172748498E+02  0.29513861545E+02 -0.15151454522E+03  0.15640138332E+03  0.00000000000E+00 0. -1.
        -13    1    4    4    0    0  0.40427446679E+02 -0.16822353050E+02 -0.32226323251E+02  0.54368243648E+02  0.00000000000E+00 0. -1.
         13    1    4    4    0    0 -0.38532581358E+02 -0.21138647120E+02  0.15697556854E+02  0.46669213828E+02  0.00000000000E+00 0.  1.
          3    1    1    2  501    0 -0.42097710910E+01  0.37086892853E+02 -0.31790800233E+02  0.49028713766E+02  0.00000000000E+00 0. -1.
<scales pt_clust_5="13000.00000" pt_clust_6="13000.00000" pt_clust_7="13000.00000" pt_clust_8="13000.00000" pt_clust_9="37.32506"></scales>
<clustering>
<clus scale="   37.325">  1  9  2 -1</clus>
<clus scale="   79.257">  5  6 -1 -1</clus>
<clus scale="   79.457">  2  5  1 -1</clus>
<clus scale="   92.145">  7  8 -1 -1</clus>
<clus scale="   37.325">  1  5  2 -1</clus>
</clustering>
</event>
<event>
 9    2  0.5615294E-005  0.1545561E+03  0.7546771E-02  0.1196079E+00
         21   -1    0    0  501  502  0.00000000000E+00  0.00000000000E+00  0.23199731015E+03  0.23199731015E+03  0.00000000000E+00 0.  1.
          2   -1    0    0  502    0 -0.00000000000E+00 -0.00000000000E+00 -0.31386475096E+03  0.31386475096E+03  0.00000000000E+00 0. -1.
         24    2    1    2    0    0  0.11369056873E+03 -0.42949691866E+02 -0.20662019941E+03  0.25718217996E+03  0.93169444750E+02 0.  0.
         23    2    1    2    0    0 -0.11571430172E+03  0.80845449458E+02  0.16461860135E+03  0.23363926563E+03  0.86961118979E+02 0.  0.
        -11    1    3    3    0    0  0.26480019501E+02  0.29575667738E+02 -0.54986391991E+02  0.67818985978E+02  0.00000000000E+00 0.  1.
         12    1    3    3    0    0  0.87210549230E+02 -0.72525359604E+02 -0.15163380742E+03  0.18936319398E+03  0.00000000000E+00 0. -1.
        -11    1    4    4    0    0 -0.35712873066E+02  0.38808847070E+02  0.87428202772E+01  0.53460011410E+02  0.00000000000E+00 0. -1.
         11    1    4    4    0    0 -0.80001428657E+02  0.42036602388E+02  0.15587578107E+03  0.18017925422E+03  0.00000000000E+00 0.  1.
          1    1    1    2  501    0  0.20237329924E+01 -0.37895757592E+02 -0.39865842744E+02  0.55040615516E+02  0.00000000000E+00 0. -1.
<scales pt_clust_5="13000.00000" pt_clust_6="13000.00000" pt_clust_7="13000.00000" pt_clust_8="13000.00000" pt_clust_9="37.94977"></scales>
<clustering>
<clus scale="   37.950">  1  9  2 -1</clus>
<clus scale="   86.961">  7  8 -1 -1</clus>
<clus scale="   93.169">  5  6 -1 -1</clus>
<clus scale="  150.895">  1  7  2 -1</clus>
<clus scale="   37.950">  1  5  2 -1</clus>
</clustering>
</event>
<event>
 9    2  0.5615294E-005  0.1194733E+03  0.7546771E-02  0.1246733E+00
         21   -1    0    0  501  502  0.00000000000E+00  0.00000000000E+00  0.17461211443E+03  0.17461211443E+03  0.00000000000E+00 0.  1.
          2   -1    0    0  502    0 -0.00000000000E+00 -0.00000000000E+00 -0.30305204656E+03  0.30305204656E+03  0.00000000000E+00 0. -1.
         24    2    1    2    0    0  0.32197109046E+02  0.75041198414E+02 -0.26552184995E+03  0.28904924532E+03  0.79873513315E+02 0.  0.
         23    2    1    2    0    0 -0.28716027926E+02 -0.53164154317E+02  0.11421547560E+03  0.15677787492E+03  0.88786764970E+02 0.  0.
        -11    1    3    3    0    0  0.31227115407E+02 -0.67928926682E+01 -0.86258408419E+02  0.91987983728E+02  0.00000000000E+00 0.  1.
         12    1    3    3    0    0  0.96999363917E+00  0.81834091082E+02 -0.17926344153E+03  0.19706126159E+03  0.00000000000E+00 0. -1.
        -13    1    4    4    0    0 -0.50253806503E+02 -0.53434339050E+02  0.11360644034E+03  0.13522979311E+03  0.00000000000E+00 0.  1.
         13    1    4    4    0    0  0.21537778578E+02  0.27018473332E+00  0.60903526332E+00  0.21548081813E+02  0.00000000000E+00 0. -1.
          1    1    1    2  501    0 -0.34810811199E+01 -0.21877044096E+02  0.22866442213E+02  0.31837040749E+02  0.00000000000E+00 0. -1.
<scales pt_clust_5="13000.00000" pt_clust_6="13000.00000" pt_clust_7="13000.00000" pt_clust_8="13000.00000" pt_clust_9="22.15227"></scales>
<clustering>
<clus scale="   22.152">  1  9  2 -1</clus>
<clus scale="   79.874">  5  6 -1 -1</clus>
<clus scale="   88.787">  7  8 -1 -1</clus>
<clus scale="  113.007">  2  5  1 -1</clus>
<clus scale="   22.152">  1  5  2 -1</clus>
</clustering>
</event>
<event>
 9    2  0.5615294E-005  0.1217006E+03  0.7546771E-02  0.1259911E+00
         21   -1    0    0  501  502  0.00000000000E+00  0.00000000000E+00  0.12860244371E+03  0.12860244371E+03  0.00000000000E+00 0.  1.
         -1   -1    0    0    0  501 -0.00000000000E+00 -0.00000000000E+00 -0.17570704630E+03  0.17570704630E+03  0.00000000000E+00 0.  1.
         24    2    1    2    0    0 -0.12509883487E+01 -0.23582518389E+02  0.29156971174E+02  0.87297335099E+02  0.78822557697E+02 0.  0.
         23    2    1    2    0    0  0.75888806195E+02 -0.13507620735E+02 -0.48051767525E+02  0.12902195408E+03  0.91630374599E+02 0.  0.
        -13    1    3    3    0    0 -0.26071852979E+02 -0.36900696215E+02  0.36618404190E+02  0.58157634273E+02  0.00000000000E+00 0.  1.
         14    1    3    3    0    0  0.24820864630E+02  0.13318177825E+02 -0.74614330159E+01  0.29139700826E+02  0.00000000000E+00 0. -1.
        -13    1    4    4    0    0  0.96362747823E+02 -0.90561608600E+01 -0.29900435833E+02  0.10130068746E+03  0.00000000000E+00 0.  1.
         13    1    4    4    0    0 -0.20473941627E+02 -0.44514598753E+01 -0.18151331692E+02  0.27721266619E+02  0.00000000000E+00 0. -1.
         -2    1    1    2    0  502 -0.74637817847E+02  0.37090139124E+02 -0.28209806237E+02  0.87990200824E+02  0.00000000000E+00 0.  1.
<scales pt_clust_5="13000.00000" pt_clust_6="13000.00000" pt_clust_7="13000.00000" pt_clust_8="13000.00000" pt_clust_9="80.09307"></scales>
<clustering>
<clus scale="   78.823">  5  6 -1 -1</clus>
<clus scale="   82.284">  2  5  1 -1</clus>
<clus scale="   80.093">  1  9  2 -1</clus>
<clus scale="   91.630">  7  8 -1 -1</clus>
<clus scale="   80.093">  1  5  2 -1</clus>
</clustering>
</event>
<event>
 9    2  0.6911278E-005  0.9388745E+02  0.7546771E-02  0.1299304E+00
         21   -1    0    0  501  502  0.00000000000E+00  0.00000000000E+00  0.19229811810E+03  0.19229811810E+03  0.00000000000E+00 0. -1.
          2   -1    0    0  502    0 -0.00000000000E+00 -0.00000000000E+00 -0.11324598484E+04  0.11324598484E+04  0.00000000000E+00 0. -1.
         24    2    1    2    0    0 -0.46205484351E+01  0.26291625499E+02 -0.10699407864E+04  0.10732657447E+04  0.80084164419E+02 0.  0.
         23    2    1    2    0    0  0.18190539292E+02 -0.41337027845E+02 -0.18172435243E+02  0.10215986568E+03  0.89815116555E+02 0.  0.
        -11    1    3    3    0    0  0.16660867417E+02  0.16759129519E+02 -0.90100394363E+02  0.93147914575E+02  0.00000000000E+00 0.  1.
         12    1    3    3    0    0 -0.21281415852E+02  0.95324959807E+01 -0.97984039200E+03  0.98011783012E+03  0.00000000000E+00 0. -1.
        -11    1    4    4    0    0  0.18806407751E+02  0.97865966591E+01 -0.41008483251E+02  0.46164425104E+02  0.00000000000E+00 0. -1.
         11    1    4    4    0    0 -0.61586845863E+00 -0.51123624504E+02  0.22836048007E+02  0.55995440573E+02  0.00000000000E+00 0.  1.
          1    1    1    2  501    0 -0.13569990857E+02  0.15045402346E+02  0.14795149135E+03  0.14933235609E+03  0.00000000000E+00 0. -1.
<scales pt_clust_5="13000.00000" pt_clust_6="13000.00000" pt_clust_7="13000.00000" pt_clust_8="13000.00000" pt_clust_9="20.26102"></scales>
<clustering>
<clus scale="   20.261">  1  9  2 -1</clus>
<clus scale="   80.084">  5  6 -1 -1</clus>
<clus scale="   84.626">  2  5  1 -1</clus>
<clus scale="   89.815">  7  8 -1 -1</clus>
<clus scale="   20.261">  1  5  2 -1</clus>
</clustering>
</event>
<event>
 9    2  0.5615294E-005  0.9975801E+02  0.7546771E-02  0.1287043E+00
         21   -1    0    0  501  502  0.00000000000E+00  0.00000000000E+00  0.19891884731E+03  0.19891884731E+03  0.00000000000E+00 0.  1.
         -1   -1    0    0    0  501 -0.00000000000E+00 -0.00000000000E+00 -0.76246866775E+02  0.76246866775E+02  0.00000000000E+00 0.  1.
         23    2    1    2    0    0 -0.34082828257E+02 -0.46447891966E+02  0.88844380965E+01  0.10784987997E+03  0.90739283224E+02 0.  0.
         24    2    1    2    0    0  0.51574410943E+01  0.19426323845E+02  0.60954672622E+02  0.10129950811E+03  0.78371786834E+02 0.  0.
        -11    1    4    4    0    0 -0.24848590391E+02 -0.13315952547E+02  0.46892542078E+02  0.54714509403E+02  0.00000000000E+00 0.  1.
         12    1    4    4    0    0  0.30006031485E+02  0.32742276392E+02  0.14062130544E+02  0.46584998704E+02  0.00000000000E+00 0. -1.
        -11    1    3    3    0    0 -0.52904105442E+02 -0.60261757115E+02 -0.55841147788E+01  0.80383493835E+02  0.00000000000E+00 0.  1.
         11    1    3    3    0    0  0.18821277185E+02  0.13813865149E+02  0.14468552875E+02  0.27466386139E+02  0.00000000000E+00 0. -1.
         -2    1    1    2    0  502  0.28925387163E+02  0.27021568121E+02  0.52832869819E+02  0.66016326007E+02  0.00000000000E+00 0.  1.
<scales pt_clust_5="13000.00000" pt_clust_6="13000.00000" pt_clust_7="13000.00000" pt_clust_8="13000.00000" pt_clust_9="39.58337"></scales>
<clustering>
<clus scale="   39.583">  1  9  2 -1</clus>
<clus scale="   78.372">  5  6 -1 -1</clus>
<clus scale="   88.658">  1  5  2 -1</clus>
<clus scale="   90.739">  7  8 -1 -1</clus>
<clus scale="   39.583">  1  5  2 -1</clus>
</clustering>
</event>
<event>
 9    2  0.5615294E-005  0.9609900E+02  0.7546771E-02  0.1290090E+00
         21   -1    0    0  501  502  0.00000000000E+00  0.00000000000E+00  0.32525879568E+02  0.32525879568E+02  0.00000000000E+00 0.  1.
          2   -1    0    0  502    0 -0.00000000000E+00 -0.00000000000E+00 -0.91804416870E+03  0.91804416870E+03  0.00000000000E+00 0. -1.
         24    2    1    2    0    0  0.25348281478E+02 -0.15636839923E+01 -0.73663772370E+03  0.74304098611E+03  0.93966965369E+02 0.  0.
         23    2    1    2    0    0  0.15286875348E+02  0.26772997272E+02 -0.10499392559E+03  0.14262326425E+03  0.91472340914E+02 0.  0.
        -13    1    3    3    0    0  0.29164386377E+01  0.33681762542E+02 -0.11159690417E+03  0.11660547055E+03  0.00000000000E+00 0.  1.
         14    1    3    3    0    0  0.22431842840E+02 -0.35245446535E+02 -0.62504081953E+03  0.62643551555E+03  0.00000000000E+00 0. -1.
        -11    1    4    4    0    0  0.40275262765E+02  0.45027506546E+02 -0.89590706503E+02  0.10805585513E+03  0.00000000000E+00 0.  1.
         11    1    4    4    0    0 -0.24988387417E+02 -0.18254509274E+02 -0.15403219088E+02  0.34567409114E+02  0.00000000000E+00 0. -1.
          1    1    1    2  501    0 -0.40635156826E+02 -0.25209313280E+02 -0.43886639847E+02  0.64905797918E+02  0.00000000000E+00 0. -1.
<scales pt_clust_5="13000.00000" pt_clust_6="13000.00000" pt_clust_7="13000.00000" pt_clust_8="13000.00000" pt_clust_9="47.81972"></scales>
<clustering>
<clus scale="   47.820">  1  9  2 -1</clus>
<clus scale="   91.472">  7  8 -1 -1</clus>
<clus scale="   93.661">  1  7  2 -1</clus>
<clus scale="   93.967">  5  6 -1 -1</clus>
<clus scale="   47.820">  1  5  2 -1</clus>
</clustering>
</event>
<event>
 9    2  0.5615294E-005  0.1205601E+03  0.7546771E-02  0.1251251E+00
         21   -1    0    0  501  502  0.00000000000E+00  0.00000000000E+00  0.42629364168E+03  0.42629364168E+03  0.00000000000E+00 0.  1.
          2   -1    0    0  502    0 -0.00000000000E+00 -0.00000000000E+00 -0.60240246864E+03  0.60240246864E+03  0.00000000000E+00 0. -1.
         24    2    1    2    0    0  0.59735155276E+01 -0.58141392474E+02 -0.56308984623E+03  0.57186667989E+03  0.80902535426E+02 0.  0.
         23    2    1    2    0    0  0.45750824279E+01  0.10241680034E+03  0.13031071134E+03  0.19615486006E+03  0.10481276290E+03 0.  0.
        -11    1    3    3    0    0 -0.21003216350E+02  0.10986992391E+02 -0.93929524137E+02  0.96874168917E+02  0.00000000000E+00 0.  1.
         12    1    3    3    0    0  0.26976731878E+02 -0.69128384864E+02 -0.46916032209E+03  0.47499251097E+03  0.00000000000E+00 0. -1.
        -13    1    4    4    0    0  0.33821997906E+02  0.80740688736E+02  0.35262776900E+02  0.94373988972E+02  0.00000000000E+00 0. -1.
         13    1    4    4    0    0 -0.29246915478E+02  0.21676111602E+02  0.95047934438E+02  0.10178087109E+03  0.00000000000E+00 0.  1.
          1    1    1    2  501    0 -0.10548597956E+02 -0.44275407864E+02  0.25667030793E+03  0.26067457036E+03  0.00000000000E+00 0. -1.
<scales pt_clust_5="13000.00000" pt_clust_6="13000.00000" pt_clust_7="13000.00000" pt_clust_8="13000.00000" pt_clust_9="45.51466"></scales>
<clustering>
<clus scale="   45.515">  1  9  2 -1</clus>
<clus scale="   80.903">  5  6 -1 -1</clus>
<clus scale="  100.470">  2  5  1 -1</clus>
<clus scale="  104.813">  7  8 -1 -1</clus>
<clus scale="   45.515">  1  5  2 -1</clus>
</clustering>
</event>
<event>
 9    2  0.5615294E-005  0.2161264E+03  0.7546771E-02  0.1144890E+00
         21   -1    0    0  501  502  0.00000000000E+00  0.00000000000E+00  0.17326294539E+03  0.17326294539E+03  0.00000000000E+00 0. -1.
          2   -1    0    0  502    0 -0.00000000000E+00 -0.00000000000E+00 -0.60852615056E+03  0.60852615056E+03  0.00000000000E+00 0. -1.
         23    2    1    2    0    0 -0.24381097962E+02  0.15072980166E+03 -0.32859817032E+02  0.18089276467E+03  0.91260690812E+02 0.  0.
         24    2    1    2    0    0 -0.15127837611E+03 -0.19976997002E+03 -0.23315608401E+03  0.35208749120E+03  0.82526686281E+02 0.  0.
        -13    1    4    4    0    0 -0.33058745603E+02 -0.12647683519E+02 -0.78616859320E+01  0.36258111712E+02  0.00000000000E+00 0.  1.
         14    1    4    4    0    0 -0.11821963051E+03 -0.18712228650E+03 -0.22529439808E+03  0.31582937949E+03  0.00000000000E+00 0. -1.
        -11    1    3    3    0    0  0.38535664522E+01  0.20473679216E+02 -0.42429840487E+02  0.47268518898E+02  0.00000000000E+00 0.  1.
         11    1    3    3    0    0 -0.28234664414E+02  0.13025612245E+03  0.95700234544E+01  0.13362424577E+03  0.00000000000E+00 0. -1.
          1    1    1    2  501    0  0.17565947407E+03  0.49040168358E+02 -0.16924730413E+03  0.24880884007E+03  0.00000000000E+00 0. -1.
<scales pt_clust_5="13000.00000" pt_clust_6="13000.00000" pt_clust_7="13000.00000" pt_clust_8="13000.00000" pt_clust_9="199.74981"></scales>
<clustering>
<clus scale="   82.527">  5  6 -1 -1</clus>
<clus scale="   91.261">  7  8 -1 -1</clus>
<clus scale="  177.883">  2  7  1 -1</clus>
<clus scale="  199.750">  1  9  2 -1</clus>
<clus scale="  199.750">  1  5  2 -1</clus>
</clustering>
</event>
<event>
 9    2  0.5615294E-005  0.1636286E+03  0.7546771E-02  0.1207596E+00
         21   -1    0    0  501  502  0.00000000000E+00  0.00000000000E+00  0.80730095353E+02  0.80730095353E+02  0.00000000000E+00 0. -1.
          2   -1    0    0  502    0 -0.00000000000E+00 -0.00000000000E+00 -0.54862005827E+03  0.54862005827E+03  0.00000000000E+00 0. -1.
         24    2    1    2    0    0 -0.43304455160E+02 -0.36827915138E+02 -0.80032321395E+02  0.12737844023E+03  0.81169719709E+02 0.  0.
         23    2    1    2    0    0 -0.10136203221E+03  0.49750558911E+02 -0.29503449981E+03  0.32960140583E+03  0.94033775649E+02 0.  0.
        -11    1    3    3    0    0 -0.38013189389E+02 -0.48317486015E+02 -0.91546103350E+02  0.11027361906E+03  0.00000000000E+00 0.  1.
         12    1    3    3    0    0 -0.52912657714E+01  0.11489570876E+02  0.11513781954E+02  0.17104821171E+02  0.00000000000E+00 0. -1.
        -13    1    4    4    0    0 -0.65004650811E+02 -0.88633256266E+01 -0.21056304653E+03  0.22054695585E+03  0.00000000000E+00 0. -1.
         13    1    4    4    0    0 -0.36357381402E+02  0.58613884538E+02 -0.84471453277E+02  0.10905444999E+03  0.00000000000E+00 0.  1.
          1    1    1    2  501    0  0.14466648737E+03 -0.12922643773E+02 -0.92823141714E+02  0.17237030756E+03  0.00000000000E+00 0. -1.
<scales pt_clust_5="13000.00000" pt_clust_6="13000.00000" pt_clust_7="13000.00000" pt_clust_8="13000.00000" pt_clust_9="133.91035"></scales>
<clustering>
<clus scale="   81.170">  5  6 -1 -1</clus>
<clus scale="   94.034">  7  8 -1 -1</clus>
<clus scale="   99.096">  2  5  1 -1</clus>
<clus scale="  133.910">  1  9  2 -1</clus>
<clus scale="  133.910">  1  5  2 -1</clus>
</clustering>
</event>
<event>
 9    2  0.5615294E-005  0.8843397E+02  0.7546771E-02  0.1310740E+00
          2   -1    0    0  502    0 -0.00000000000E+00  0.00000000000E+00  0.90081044365E+03  0.90081044365E+03  0.00000000000E+00 0. -1.
         21   -1    0    0  501  502  0.00000000000E+00 -0.00000000000E+00 -0.73226028703E+02  0.73226028703E+02  0.00000000000E+00 0.  1.
         24    2    1    2    0    0 -0.36238600542E+02  0.94171383921E+01  0.84341161223E+03  0.84799555645E+03  0.79695655168E+02 0.  0.
         23    2    1    2    0    0  0.62456130190E+02  0.31762248144E+01 -0.14146197963E+02  0.96907131111E+02  0.72663749842E+02 0.  0.
        -13    1    3    3    0    0 -0.30779092430E+02 -0.27278788701E+02  0.24441448835E+03  0.24785061420E+03  0.00000000000E+00 0.  1.
         14    1    3    3    0    0 -0.54595081123E+01  0.36695927093E+02  0.59899712388E+03  0.60014494225E+03  0.00000000000E+00 0. -1.
        -11    1    4    4    0    0  0.15011232017E+02 -0.24840115505E+02  0.16978125539E+02  0.33624770212E+02  0.00000000000E+00 0. -1.
         11    1    4    4    0    0  0.47444898173E+02  0.28016340320E+02 -0.31124323502E+02  0.63282360899E+02  0.00000000000E+00 0.  1.
          1    1    1    2  501    0 -0.26217529648E+02 -0.12593363206E+02 -0.16809993177E+01  0.29133784793E+02  0.00000000000E+00 0. -1.
<scales pt_clust_5="13000.00000" pt_clust_6="13000.00000" pt_clust_7="13000.00000" pt_clust_8="13000.00000" pt_clust_9="29.08525"></scales>
<clustering>
<clus scale="   29.085">  2  9  1 -1</clus>
<clus scale="   72.664">  7  8 -1 -1</clus>
<clus scale="   79.696">  5  6 -1 -1</clus>
<clus scale="   82.153">  2  7  1 -1</clus>
<clus scale="   29.085">  2  5  1 -1</clus>
</clustering>
</event>
<event>
 9    2  0.5615294E-005  0.1112007E+03  0.7546771E-02  0.1260920E+00
         21   -1    0    0  501  502  0.00000000000E+00  0.00000000000E+00  0.22332704722E+03  0.22332704722E+03  0.00000000000E+00 0. -1.
          2   -1    0    0  502    0 -0.00000000000E+00 -0.00000000000E+00 -0.61502106339E+03  0.61502106339E+03  0.00000000000E+00 0. -1.
         24    2    1    2    0    0 -0.14877083383E+02  0.65582769675E+02 -0.58489676547E+03  0.59454531038E+03  0.82809857808E+02 0.  0.
         23    2    1    2    0    0  0.24489087451E+02 -0.27760962040E+02  0.85729413008E+02  0.12946384026E+03  0.89671440614E+02 0.  0.
        -13    1    3    3    0    0  0.28713329067E+02  0.55548205761E+01 -0.10699996938E+03  0.11092477066E+03  0.00000000000E+00 0.  1.
         14    1    3    3    0    0 -0.43590412450E+02  0.60027949099E+02 -0.47789679609E+03  0.48362053972E+03  0.00000000000E+00 0. -1.
        -11    1    4    4    0    0 -0.19689122580E+02 -0.30746304081E+02  0.75727458754E+02  0.84069285544E+02  0.00000000000E+00 0.  1.
         11    1    4    4    0    0  0.44178210031E+02  0.29853420414E+01  0.10001954254E+02  0.45394554713E+02  0.00000000000E+00 0. -1.
          1    1    1    2  501    0 -0.96120040682E+01 -0.37821807635E+02  0.10747333629E+03  0.11433895997E+03  0.00000000000E+00 0. -1.
<scales pt_clust_5="13000.00000" pt_clust_6="13000.00000" pt_clust_7="13000.00000" pt_clust_8="13000.00000" pt_clust_9="39.02409"></scales>
<clustering>
<clus scale="   39.024">  1  9  2 -1</clus>
<clus scale="   82.810">  5  6 -1 -1</clus>
<clus scale="   89.671">  7  8 -1 -1</clus>
<clus scale="  105.745">  2  5  1 -1</clus>
<clus scale="   39.024">  1  5  2 -1</clus>
</clustering>
</event>
<event>
 9    2  0.5615294E-005  0.8687607E+02  0.7546771E-02  0.1316291E+00
         21   -1    0    0  501  502  0.00000000000E+00  0.00000000000E+00  0.84266581005E+02  0.84266581005E+02  0.00000000000E+00 0.  1.
          2   -1    0    0  502    0 -0.00000000000E+00 -0.00000000000E+00 -0.28466216173E+03  0.28466216173E+03  0.00000000000E+00 0. -1.
         23    2    1    2    0    0  0.36655867839E+02  0.16882093352E+02 -0.14824298683E+03  0.16902508947E+03  0.70461620784E+02 0.  0.
         24    2    1    2    0    0 -0.16266851237E+02  0.50134875715E+02  0.21755612930E+02  0.98073357295E+02  0.79793235961E+02 0.  0.
        -13    1    4    4    0    0 -0.24724937119E+02  0.44925213720E+02  0.47859243698E+02  0.70143456934E+02  0.00000000000E+00 0.  1.
         14    1    4    4    0    0  0.84580858818E+01  0.52096619948E+01 -0.26103630768E+02  0.27929900361E+02  0.00000000000E+00 0. -1.
        -13    1    3    3    0    0  0.45676702960E+02 -0.10335601938E+02 -0.11983935892E+03  0.12866490511E+03  0.00000000000E+00 0.  1.
         13    1    3    3    0    0 -0.90208351219E+01  0.27217695291E+02 -0.28403627914E+02  0.40360184364E+02  0.00000000000E+00 0. -1.
          1    1    1    2  501    0 -0.20389016602E+02 -0.67016969067E+02 -0.73908206820E+02  0.10183029596E+03  0.00000000000E+00 0. -1.
<scales pt_clust_5="13000.00000" pt_clust_6="13000.00000" pt_clust_7="13000.00000" pt_clust_8="13000.00000" pt_clust_9="70.04992"></scales>
<clustering>
<clus scale="   70.050">  1  9  2 -1</clus>
<clus scale="   70.462">  7  8 -1 -1</clus>
<clus scale="   78.392">  2  7  1 -1</clus>
<clus scale="   79.793">  5  6 -1 -1</clus>
<clus scale="   70.050">  1  5  2 -1</clus>
</clustering>
</event>
<event>
 9    2  0.5615294E-005  0.1578828E+03  0.7546771E-02  0.1194496E+00
         -1   -1    0    0    0  501 -0.00000000000E+00  0.00000000000E+00  0.65214608167E+03  0.65214608167E+03  0.00000000000E+00 0.  1.
         21   -1    0    0  501  502  0.00000000000E+00 -0.00000000000E+00 -0.79111457545E+02  0.79111457545E+02  0.00000000000E+00 0.  1.
         23    2    1    2    0    0 -0.55358524793E+02  0.11836777257E+03  0.51262010504E+03  0.53816267874E+03  0.98813970908E+02 0.  0.
         24    2    1    2    0    0  0.56629082192E+02 -0.71528432181E+02  0.57813022859E+01  0.12112037540E+03  0.79457865061E+02 0.  0.
        -11    1    4    4    0    0  0.28612309890E+02 -0.14552359442E+02 -0.33550091433E+02  0.46433221703E+02  0.00000000000E+00 0.  1.
         12    1    4    4    0    0  0.28016772302E+02 -0.56976072740E+02  0.39331393719E+02  0.74687153694E+02  0.00000000000E+00 0. -1.
        -11    1    3    3    0    0  0.11220094990E+02  0.88419280889E+02  0.31970161718E+03  0.33189303065E+03  0.00000000000E+00 0. -1.
         11    1    3    3    0    0 -0.66578619783E+02  0.29948491683E+02  0.19291848786E+03  0.20626964809E+03  0.00000000000E+00 0.  1.
         -2    1    1    2    0  502 -0.12705573989E+01 -0.46839340390E+02  0.54633216799E+02  0.71974485077E+02  0.00000000000E+00 0.  1.
<scales pt_clust_5="13000.00000" pt_clust_6="13000.00000" pt_clust_7="13000.00000" pt_clust_8="13000.00000" pt_clust_9="46.85657"></scales>
<clustering>
<clus scale="   46.857">  2  9  1 -1</clus>
<clus scale="   79.458">  5  6 -1 -1</clus>
<clus scale="   98.814">  7  8 -1 -1</clus>
<clus scale="  146.548">  2  5  1 -1</clus>
<clus scale="   46.857">  2  5  1 -1</clus>
</clustering>
</event>
<event>
 9    2  0.5615294E-005  0.1284270E+03  0.7546771E-02  0.1233184E+00
         21   -1    0    0  501  502  0.00000000000E+00  0.00000000000E+00  0.21673781760E+03  0.21673781760E+03  0.00000000000E+00 0.  1.
          2   -1    0    0  502    0 -0.00000000000E+00 -0.00000000000E+00 -0.10825411434E+03  0.10825411434E+03  0.00000000000E+00 0. -1.
         23    2    1    2    0    0 -0.57299628882E+02  0.66014667928E+02 -0.17527981740E+02  0.12715421034E+03  0.90662998030E+02 0.  0.
         24    2    1    2    0    0  0.79827042424E+02 -0.60965499575E+02  0.92913190137E+02  0.15748318251E+03  0.77967576805E+02 0.  0.
        -11    1    4    4    0    0  0.22126708920E+02 -0.37588244138E+02  0.83923590516E+02  0.94581374436E+02  0.00000000000E+00 0.  1.
         12    1    4    4    0    0  0.57700333504E+02 -0.23377255437E+02  0.89895996210E+01  0.62901808079E+02  0.00000000000E+00 0. -1.
        -13    1    3    3    0    0  0.16971351794E+02  0.45582777931E+02 -0.10850295122E+02  0.49835181647E+02  0.00000000000E+00 0.  1.
         13    1    3    3    0    0 -0.74270980677E+02  0.20431889998E+02 -0.66776866184E+01  0.77319028694E+02  0.00000000000E+00 0. -1.
          1    1    1    2  501    0 -0.22527413542E+02 -0.50491683529E+01  0.33098494868E+02  0.40354539081E+02  0.00000000000E+00 0. -1.
<scales pt_clust_5="13000.00000" pt_clust_6="13000.00000" pt_clust_7="13000.00000" pt_clust_8="13000.00000" pt_clust_9="23.08633"></scales>
<clustering>
<clus scale="   23.086">  1  9  2 -1</clus>
<clus scale="   77.968">  5  6 -1 -1</clus>
<clus scale="   90.663">  7  8 -1 -1</clus>
<clus scale="  119.803">  1  5  2 -1</clus>
<clus scale="   23.086">  1  5  2 -1</clus>
</clustering>
</event>
<event>
 9    2  0.5615294E-005  0.1840964E+03  0.7546771E-02  0.1165312E+00
         21   -1    0    0  501  502  0.00000000000E+00  0.00000000000E+00  0.21539840104E+03  0.21539840104E+03  0.00000000000E+00 0. -1.
         -1   -1    0    0    0  501 -0.00000000000E+00 -0.00000000000E+00 -0.39317590101E+03  0.39317590101E+03  0.00000000000E+00 0.  1.
         24    2    1    2    0    0 -0.12929322586E+03  0.76498411139E+02 -0.15931335184E+03  0.23319228691E+03  0.80182001983E+02 0.  0.
         23    2    1    2    0    0  0.95291544494E+02 -0.16098095580E+03 -0.11856364784E+03  0.24005528264E+03  0.92595105447E+02 0.  0.
        -11    1    3    3    0    0 -0.10311129268E+03  0.51853774523E+02 -0.15993493492E+03  0.19723066703E+03  0.00000000000E+00 0.  1.
         12    1    3    3    0    0 -0.26181933179E+02  0.24644636616E+02  0.62158308044E+00  0.35961619881E+02  0.00000000000E+00 0. -1.
        -13    1    4    4    0    0  0.82612353066E+02 -0.49843422909E+02 -0.47610674686E+02  0.10759156115E+03  0.00000000000E+00 0.  1.
         13    1    4    4    0    0  0.12679191428E+02 -0.11113753289E+03 -0.70952973154E+02  0.13246372149E+03  0.00000000000E+00 0. -1.
         -2    1    1    2    0  502  0.34001681362E+02  0.84482544661E+02  0.10009949971E+03  0.13532673250E+03  0.00000000000E+00 0.  1.
<scales pt_clust_5="13000.00000" pt_clust_6="13000.00000" pt_clust_7="13000.00000" pt_clust_8="13000.00000" pt_clust_9="91.06819"></scales>
<clustering>
<clus scale="   80.182">  5  6 -1 -1</clus>
<clus scale="   91.068">  1  9  2 -1</clus>
<clus scale="   92.595">  7  8 -1 -1</clus>
<clus scale="  178.176">  2  5  1 -1</clus>
<clus scale="   91.068">  1  5  2 -1</clus>
</clustering>
</event>
<event>
 9    2  0.5615294E-005  0.1298301E+03  0.7546771E-02  0.1239155E+00
         21   -1    0    0  501  502  0.00000000000E+00  0.00000000000E+00  0.25066181143E+03  0.25066181143E+03  0.00000000000E+00 0.  1.
         -3   -1    0    0    0  501 -0.00000000000E+00 -0.00000000000E+00 -0.37535989403E+03  0.37535989403E+03  0.00000000000E+00 0.  1.
         24    2    1    2    0    0  0.59205851622E+02 -0.22241854658E+02  0.20117321748E+03  0.22584303392E+03  0.80835509363E+02 0.  0.
         23    2    1    2    0    0  0.36803962035E+02  0.73832842507E+02 -0.17038488483E+03  0.21029570844E+03  0.91583053871E+02 0.  0.
        -11    1    3    3    0    0  0.48041974800E+02 -0.41761255683E+02  0.19068793559E+03  0.20103214320E+03  0.00000000000E+00 0.  1.
         12    1    3    3    0    0  0.11163876821E+02  0.19519401026E+02  0.10485281888E+02  0.24810890721E+02  0.00000000000E+00 0. -1.
        -11    1    4    4    0    0 -0.30644846433E+02  0.26311255380E+02 -0.48598802314E+02  0.63192027653E+02  0.00000000000E+00 0. -1.
         11    1    4    4    0    0  0.67448808469E+02  0.47521587127E+02 -0.12178608251E+03  0.14710368079E+03  0.00000000000E+00 0.  1.
         -4    1    1    2    0  502 -0.96009813657E+02 -0.51590987849E+02 -0.15548641525E+03  0.18988296310E+03  0.00000000000E+00 0.  1.
<scales pt_clust_5="13000.00000" pt_clust_6="13000.00000" pt_clust_7="13000.00000" pt_clust_8="13000.00000" pt_clust_9="92.02397"></scales>
<clustering>
<clus scale="   80.836">  5  6 -1 -1</clus>
<clus scale="   91.583">  7  8 -1 -1</clus>
<clus scale="  102.637">  2  5  1 -1</clus>
<clus scale="   92.024">  1  9  2 -1</clus>
<clus scale="   92.024">  1  5  2 -1</clus>
</clustering>
</event>
<event>
 9    2  0.5615294E-005  0.1131402E+03  0.7546771E-02  0.1259996E+00
         21   -1    0    0  501  502  0.00000000000E+00  0.00000000000E+00  0.30573701268E+03  0.30573701268E+03  0.00000000000E+00 0.  1.
         -1   -1    0    0    0  501 -0.00000000000E+00 -0.00000000000E+00 -0.75671635334E+02  0.75671635334E+02  0.00000000000E+00 0.  1.
         24    2    1    2    0    0 -0.12994037889E+02  0.40957146609E+02  0.92306863577E+02  0.13090182708E+03  0.82270276464E+02 0.  0.
         23    2    1    2    0    0  0.40385866954E+01 -0.89703843271E+02  0.15025931392E+03  0.19939214060E+03  0.95479184292E+02 0.  0.
        -13    1    3    3    0    0  0.27443130762E+02  0.44426363327E+02  0.50945457264E+02  0.72953867618E+02  0.00000000000E+00 0.  1.
         14    1    3    3    0    0 -0.40437168652E+02 -0.34692167188E+01  0.41361406313E+02  0.57947959458E+02  0.00000000000E+00 0. -1.
        -13    1    4    4    0    0 -0.42871359464E+02 -0.54519426590E+02  0.59732484088E+02  0.91533004940E+02  0.00000000000E+00 0.  1.
         13    1    4    4    0    0  0.46909946159E+02 -0.35184416681E+02  0.90526829834E+02  0.10785913566E+03  0.00000000000E+00 0. -1.
         -2    1    1    2    0  502  0.89554511940E+01  0.48746696662E+02 -0.12500800153E+02  0.51114680338E+02  0.00000000000E+00 0.  1.
<scales pt_clust_5="13000.00000" pt_clust_6="13000.00000" pt_clust_7="13000.00000" pt_clust_8="13000.00000" pt_clust_9="49.56252"></scales>
<clustering>
<clus scale="   49.563">  1  9  2 -1</clus>
<clus scale="   82.270">  5  6 -1 -1</clus>
<clus scale="   95.479">  7  8 -1 -1</clus>
<clus scale="  102.239">  2  5  1 -1</clus>
<clus scale="   49.563">  1  5  2 -1</clus>
</clustering>
</event>
<event>
 9    2  0.5615294E-005  0.1010996E+03  0.7546771E-02  0.1284050E+00
          2   -1    0    0  502    0 -0.00000000000E+00  0.00000000000E+00  0.23548353881E+03  0.23548353881E+03  0.00000000000E+00 0. -1.
         21   -1    0    0  501  502  0.00000000000E+00 -0.00000000000E+00 -0.89331065600E+02  0.89331065600E+02  0.00000000000E+00 0.  1.
         24    2    1    2    0    0 -0.34786682503E+02  0.29311019601E+02  0.15763127878E+03  0.18273155878E+03  0.80460881027E+02 0.  0.
         23    2    1    2    0    0 -0.32852833488E+01 -0.26447838278E+02 -0.28215990851E+02  0.10039604811E+03  0.92590189003E+02 0.  0.
        -13    1    3    3    0    0 -0.22690094216E+02  0.42506137623E+02  0.15763111183E+03  0.16483076026E+03  0.00000000000E+00 0.  1.
         14    1    3    3    0    0 -0.12096588287E+02 -0.13195118022E+02  0.16695205987E-03  0.17900798525E+02  0.00000000000E+00 0. -1.
        -13    1    4    4    0    0 -0.47432203299E+02 -0.19016944055E+02 -0.10041860207E+02  0.52079718004E+02  0.00000000000E+00 0. -1.
         13    1    4    4    0    0  0.44146919950E+02 -0.74308942226E+01 -0.18174130644E+02  0.48316330104E+02  0.00000000000E+00 0.  1.
          1    1    1    2  501    0  0.38071965851E+02 -0.28631813234E+01  0.16737185282E+02  0.41686997520E+02  0.00000000000E+00 0. -1.
<scales pt_clust_5="13000.00000" pt_clust_6="13000.00000" pt_clust_7="13000.00000" pt_clust_8="13000.00000" pt_clust_9="38.17948"></scales>
<clustering>
<clus scale="   38.179">  2  9  1 -1</clus>
<clus scale="   80.461">  5  6 -1 -1</clus>
<clus scale="   90.123">  1  5  2 -1</clus>
<clus scale="   92.590">  7  8 -1 -1</clus>
<clus scale="   38.179">  2  5  1 -1</clus>
</clustering>
</event>
<event>
 9    2  0.5615294E-005  0.2285608E+03  0.7546771E-02  0.1167849E+00
          2   -1    0    0  502    0 -0.00000000000E+00  0.00000000000E+00  0.14123058509E+03  0.14123058509E+03  0.00000000000E+00 0. -1.
         21   -1    0    0  501  502  0.00000000000E+00 -0.00000000000E+00 -0.90603830737E+03  0.90603830737E+03  0.00000000000E+00 0. -1.
         24    2    1    2    0    0 -0.34011308598E+02  0.32997939034E+02 -0.12821234390E+03  0.15540929642E+03  0.73946001864E+02 0.  0.
         23    2    1    2    0    0 -0.30176720685E+02  0.17301377323E+03  0.22328229054E+02  0.19850452891E+03  0.89783617582E+02 0.  0.
        -11    1    3    3    0    0 -0.12845518104E+02  0.19228647199E+02 -0.12808787260E+03  0.13015856221E+03  0.00000000000E+00 0.  1.
         12    1    3    3    0    0 -0.21165790494E+02  0.13769291835E+02 -0.12447129477E+00  0.25250734207E+02  0.00000000000E+00 0. -1.
        -11    1    4    4    0    0  0.79606032554E+00  0.15166817228E+03 -0.54111204993E+01  0.15176675663E+03  0.00000000000E+00 0. -1.
         11    1    4    4    0    0 -0.30972781010E+02  0.21345600950E+02  0.27739349553E+02  0.46737772273E+02  0.00000000000E+00 0.  1.
          1    1    1    2  501    0  0.64188029283E+02 -0.20601171226E+03 -0.65892360744E+03  0.69335506714E+03  0.00000000000E+00 0. -1.
<scales pt_clust_5="13000.00000" pt_clust_6="13000.00000" pt_clust_7="13000.00000" pt_clust_8="13000.00000" pt_clust_9="210.18789"></scales>
<clustering>
<clus scale="   73.946">  5  6 -1 -1</clus>
<clus scale="   87.827">  1  5  2 -1</clus>
<clus scale="   89.784">  7  8 -1 -1</clus>
<clus scale="  210.188">  2  9  1 -1</clus>
<clus scale="  210.188">  2  5  1 -1</clus>
</clustering>
</event>
<event>
 9    2  0.5615294E-005  0.1021248E+03  0.7546771E-02  0.1279808E+00
         21   -1    0    0  501  502  0.00000000000E+00  0.00000000000E+00  0.38258462286E+02  0.38258462286E+02  0.00000000000E+00 0.  1.
         -1   -1    0    0    0  501 -0.00000000000E+00 -0.00000000000E+00 -0.57688008328E+03  0.57688008328E+03  0.00000000000E+00 0.  1.
         23    2    1    2    0    0  0.31394923984E+02  0.58561981248E+02 -0.36434871674E+03  0.38162279115E+03  0.92037060129E+02 0.  0.
         24    2    1    2    0    0 -0.22462194938E+02 -0.73488159900E+00 -0.14276859071E+03  0.16706059003E+03  0.83793078434E+02 0.  0.
        -11    1    4    4    0    0 -0.50432999227E+02 -0.17070730892E+02 -0.75338973416E+02  0.92254312526E+02  0.00000000000E+00 0.  1.
         12    1    4    4    0    0  0.27970804289E+02  0.16335849293E+02 -0.67429617296E+02  0.74806277500E+02  0.00000000000E+00 0. -1.
        -11    1    3    3    0    0  0.19159507763E+02  0.80499889019E+02 -0.21884570188E+03  0.23396743385E+03  0.00000000000E+00 0.  1.
         11    1    3    3    0    0  0.12235416221E+02 -0.21937907772E+02 -0.14550301486E+03  0.14765535730E+03  0.00000000000E+00 0. -1.
         -2    1    1    2    0  502 -0.89327290462E+01 -0.57827099649E+02 -0.31504313540E+02  0.66455164386E+02  0.00000000000E+00 0.  1.
<scales pt_clust_5="13000.00000" pt_clust_6="13000.00000" pt_clust_7="13000.00000" pt_clust_8="13000.00000" pt_clust_9="58.51297"></scales>
<clustering>
<clus scale="   58.513">  1  9  2 -1</clus>
<clus scale="   83.793">  5  6 -1 -1</clus>
<clus scale="   92.037">  7  8 -1 -1</clus>
<clus scale="   94.763">  1  5  2 -1</clus>
<clus scale="   58.513">  1  5  2 -1</clus>
</clustering>
</event>
<event>
 9    2  0.5615294E-005  0.8464345E+02  0.7546771E-02  0.1331610E+00
          2   -1    0    0  502    0 -0.00000000000E+00  0.00000000000E+00  0.24482297512E+03  0.24482297512E+03  0.00000000000E+00 0. -1.
         21   -1    0    0  501  502  0.00000000000E+00 -0.00000000000E+00 -0.51049410277E+02  0.51049410277E+02  0.00000000000E+00 0.  1.
         24    2    1    2    0    0 -0.38344692776E+01 -0.73307156922E+01  0.12565411738E+03  0.14119645832E+03  0.63867363169E+02 0.  0.
         23    2    1    2    0    0  0.21077652520E+02 -0.74601008069E+01  0.88524538313E+02  0.12413966415E+03  0.84107917540E+02 0.  0.
        -11    1    3    3    0    0 -0.26882381305E+02 -0.23892956385E+02  0.67359650103E+02  0.76360056649E+02  0.00000000000E+00 0.  1.
         12    1    3    3    0    0  0.23047912027E+02  0.16562240692E+02  0.58294467280E+02  0.64836401666E+02  0.00000000000E+00 0. -1.
        -11    1    4    4    0    0  0.49273857000E+02 -0.15219753006E+02  0.77068560886E+02  0.92731423704E+02  0.00000000000E+00 0. -1.
         11    1    4    4    0    0 -0.28196204480E+02  0.77596521992E+01  0.11455977427E+02  0.31408240449E+02  0.00000000000E+00 0.  1.
          1    1    1    2  501    0 -0.17243183243E+02  0.14790816499E+02 -0.20405090851E+02  0.30536262929E+02  0.00000000000E+00 0. -1.
<scales pt_clust_5="13000.00000" pt_clust_6="13000.00000" pt_clust_7="13000.00000" pt_clust_8="13000.00000" pt_clust_9="22.71774"></scales>
<clustering>
<clus scale="   22.718">  2  9  1 -1</clus>
<clus scale="   63.867">  5  6 -1 -1</clus>
<clus scale="   64.571">  1  5  2 -1</clus>
<clus scale="   84.108">  7  8 -1 -1</clus>
<clus scale="   22.718">  2  5  1 -1</clus>
</clustering>
</event>
<event>
 9    2  0.5615294E-005  0.1278942E+03  0.7546771E-02  0.1234676E+00
         21   -1    0    0  501  502  0.00000000000E+00  0.00000000000E+00  0.17995451790E+03  0.17995451790E+03  0.00000000000E+00 0.  1.
          4   -1    0    0  502    0 -0.00000000000E+00 -0.00000000000E+00 -0.13149828659E+03  0.13149828659E+03  0.00000000000E+00 0. -1.
         23    2    1    2    0    0  0.23336487411E+02  0.65964016974E+02  0.97182226086E+01  0.11983701910E+03  0.96801984049E+02 0.  0.
         24    2    1    2    0    0  0.74557956786E+01 -0.10650080845E+03  0.39315983174E+02  0.14070674674E+03  0.82792698681E+02 0.  0.
        -11    1    4    4    0    0  0.41958040522E+02 -0.68664939868E+02  0.84349077575E+01  0.80910436907E+02  0.00000000000E+00 0.  1.
         12    1    4    4    0    0 -0.34502244844E+02 -0.37835868586E+02  0.30881075417E+02  0.59796309834E+02  0.00000000000E+00 0. -1.
        -11    1    3    3    0    0  0.38314158137E+02  0.82021509243E+02  0.23983011996E+02  0.93651949028E+02  0.00000000000E+00 0. -1.
         11    1    3    3    0    0 -0.14977670726E+02 -0.16057492270E+02 -0.14264789388E+02  0.26185070071E+02  0.00000000000E+00 0.  1.
          3    1    1    2  501    0 -0.30792283090E+02  0.40536791480E+02 -0.57797446786E+00  0.50909038646E+02  0.00000000000E+00 0. -1.
<scales pt_clust_5="13000.00000" pt_clust_6="13000.00000" pt_clust_7="13000.00000" pt_clust_8="13000.00000" pt_clust_9="50.90578"></scales>
<clustering>
<clus scale="   50.906">  1  9  2 -1</clus>
<clus scale="   82.793">  5  6 -1 -1</clus>
<clus scale="   96.802">  7  8 -1 -1</clus>
<clus scale="  117.647">  1  5  2 -1</clus>
<clus scale="   50.906">  1  5  2 -1</clus>
</clustering>
</event>
<event>
 9    2  0.5615294E-005  0.9829607E+02  0.7546771E-02  0.1288732E+00
          2   -1    0    0  502    0 -0.00000000000E+00  0.00000000000E+00  0.62650035031E+03  0.62650035031E+03  0.00000000000E+00 0. -1.
         21   -1    0    0  501  502  0.00000000000E+00 -0.00000000000E+00 -0.22801899664E+02  0.22801899664E+02  0.00000000000E+00 0.  1.
         24    2    1    2    0    0 -0.39861982438E+02 -0.85102035452E+01  0.42104439969E+03  0.43059217721E+03  0.80435286776E+02 0.  0.
         23    2    1    2    0    0  0.30677693843E+02  0.27788684284E+02  0.14853781776E+03  0.17846173933E+03  0.89843069992E+02 0.  0.
        -11    1    3    3    0    0 -0.37483847201E+02  0.22251810458E+02  0.11480042402E+03  0.12279787956E+03  0.00000000000E+00 0.  1.
         12    1    3    3    0    0 -0.23781352365E+01 -0.30762014003E+02  0.30624397567E+03  0.30779429765E+03  0.00000000000E+00 0. -1.
        -11    1    4    4    0    0 -0.23601087883E+02  0.29685394488E+02  0.30998780756E+02  0.48981204594E+02  0.00000000000E+00 0.  1.
         11    1    4    4    0    0  0.54278781725E+02 -0.18967102042E+01  0.11753903701E+03  0.12948053474E+03  0.00000000000E+00 0. -1.
          1    1    1    2  501    0  0.91842885952E+01 -0.19278480739E+02  0.34116233201E+02  0.40248333436E+02  0.00000000000E+00 0. -1.
<scales pt_clust_5="13000.00000" pt_clust_6="13000.00000" pt_clust_7="13000.00000" pt_clust_8="13000.00000" pt_clust_9="21.35441"></scales>
<clustering>
<clus scale="   21.354">  2  9  1 -1</clus>
<clus scale="   80.435">  5  6 -1 -1</clus>
<clus scale="   89.778">  1  5  2 -1</clus>
<clus scale="   89.843">  7  8 -1 -1</clus>
<clus scale="   21.354">  2  5  1 -1</clus>
</clustering>
</event>
<event>
 9    2  0.5615294E-005  0.9585608E+02  0.7546771E-02  0.1294027E+00
         -1   -1    0    0    0  501 -0.00000000000E+00  0.00000000000E+00  0.31527039570E+03  0.31527039570E+03  0.00000000000E+00 0.  1.
         21   -1    0    0  501  502  0.00000000000E+00 -0.00000000000E+00 -0.62148517161E+02  0.62148517161E+02  0.00000000000E+00 0. -1.
         23    2    1    2    0    0  0.15834405591E+02 -0.48276148623E+02  0.11404321469E+03  0.15425863826E+03  0.90601091246E+02 0.  0.
         24    2    1    2    0    0 -0.32494153963E+02 -0.19440083365E+02  0.32741381977E+02  0.95996392910E+02  0.81911674839E+02 0.  0.
        -13    1    4    4    0    0 -0.53895429336E+01 -0.47459573980E+02  0.31061756382E+02  0.56976232280E+02  0.00000000000E+00 0.  1.
         14    1    4    4    0    0 -0.27104611030E+02  0.28019490615E+02  0.16796255948E+01  0.39020160629E+02  0.00000000000E+00 0. -1.
        -11    1    3    3    0    0 -0.32894256063E+02  0.24177229094E+01  0.29076839156E+02  0.43969762807E+02  0.00000000000E+00 0. -1.
         11    1    3    3    0    0  0.48728661654E+02 -0.50693871533E+02  0.84966375533E+02  0.11028887545E+03  0.00000000000E+00 0.  1.
         -2    1    1    2    0  502  0.16659748372E+02  0.67716231988E+02  0.10633728188E+03  0.12716388169E+03  0.00000000000E+00 0.  1.
<scales pt_clust_5="13000.00000" pt_clust_6="13000.00000" pt_clust_7="13000.00000" pt_clust_8="13000.00000" pt_clust_9="69.73550"></scales>
<clustering>
<clus scale="   69.736">  2  9  1 -1</clus>
<clus scale="   81.912">  5  6 -1 -1</clus>
<clus scale="   87.689">  2  5  1 -1</clus>
<clus scale="   90.601">  7  8 -1 -1</clus>
<clus scale="   69.736">  2  5  1 -1</clus>
</clustering>
</event>
<event>
 9    2  0.5615294E-005  0.2039349E+03  0.7546771E-02  0.1154427E+00
         21   -1    0    0  501  502  0.00000000000E+00  0.00000000000E+00  0.12444029620E+03  0.12444029620E+03  0.00000000000E+00 0.  1.
          2   -1    0    0  502    0 -0.00000000000E+00 -0.00000000000E+00 -0.91950858413E+03  0.91950858413E+03  0.00000000000E+00 0. -1.
         23    2    1    2    0    0  0.57931197331E+02  0.12922368002E+03 -0.11163816597E+03  0.20244661066E+03  0.92015036627E+02 0.  0.
         24    2    1    2    0    0  0.13579402585E+03 -0.15116943994E+03 -0.58253495761E+03  0.62197798247E+03  0.78850598116E+02 0.  0.
        -11    1    4    4    0    0  0.60076270791E+02 -0.19360909370E+02 -0.21971506011E+03  0.22860164209E+03  0.00000000000E+00 0.  1.
         12    1    4    4    0    0  0.75717755058E+02 -0.13180853057E+03 -0.36281989749E+03  0.39337634039E+03  0.00000000000E+00 0. -1.
        -11    1    3    3    0    0  0.63586232053E+02  0.72219908908E+02 -0.26454740362E+02  0.99793674334E+02  0.00000000000E+00 0.  1.
         11    1    3    3    0    0 -0.56550347222E+01  0.57003771108E+02 -0.85183425605E+02  0.10265293632E+03  0.00000000000E+00 0. -1.
          1    1    1    2  501    0 -0.19372522318E+03  0.21945759919E+02 -0.10089516436E+03  0.21952428719E+03  0.00000000000E+00 0. -1.
<scales pt_clust_5="13000.00000" pt_clust_6="13000.00000" pt_clust_7="13000.00000" pt_clust_8="13000.00000" pt_clust_9="188.07452"></scales>
<clustering>
<clus scale="   78.851">  5  6 -1 -1</clus>
<clus scale="   92.015">  7  8 -1 -1</clus>
<clus scale="  168.883">  2  7  1 -1</clus>
<clus scale="  188.075">  1  9  2 -1</clus>
<clus scale="  188.075">  1  5  2 -1</clus>
</clustering>
</event>
<event>
 9    2  0.5615294E-005  0.1725535E+03  0.7546771E-02  0.1176311E+00
         -3   -1    0    0    0  501 -0.00000000000E+00  0.00000000000E+00  0.39292986485E+03  0.39292986485E+03  0.00000000000E+00 0.  1.
         21   -1    0    0  501  502  0.00000000000E+00 -0.00000000000E+00 -0.19535668892E+03  0.19535668892E+03  0.00000000000E+00 0. -1.
         24    2    1    2    0    0  0.37389587152E+02  0.15748540841E+03  0.19060642509E+03  0.26499862107E+03  0.87714450311E+02 0.  0.
         23    2    1    2    0    0  0.50963023668E+02 -0.88587509821E+02 -0.97130709382E+02  0.17035204583E+03  0.95605795518E+02 0.  0.
        -11    1    3    3    0    0  0.48050208156E+02  0.11032117679E+03  0.17829550785E+03  0.21510200528E+03  0.00000000000E+00 0.  1.
         12    1    3    3    0    0 -0.10660621004E+02  0.47164231618E+02  0.12310917233E+02  0.49896615791E+02  0.00000000000E+00 0. -1.
        -11    1    4    4    0    0  0.45506176163E+02  0.41765499193E+01 -0.21319891287E+02  0.50426118259E+02  0.00000000000E+00 0.  1.
         11    1    4    4    0    0  0.54568475055E+01 -0.92764059740E+02 -0.75810818095E+02  0.11992592757E+03  0.00000000000E+00 0. -1.
         -4    1    1    2    0  502 -0.88352610820E+02 -0.68897898590E+02  0.10409746022E+03  0.15293588687E+03  0.00000000000E+00 0.  1.
<scales pt_clust_5="13000.00000" pt_clust_6="13000.00000" pt_clust_7="13000.00000" pt_clust_8="13000.00000" pt_clust_9="112.04069"></scales>
<clustering>
<clus scale="   87.714">  5  6 -1 -1</clus>
<clus scale="   95.606">  7  8 -1 -1</clus>
<clus scale="  112.041">  2  9  1 -1</clus>
<clus scale="  168.309">  1  5  2 -1</clus>
<clus scale="  112.041">  2  5  1 -1</clus>
</clustering>
</event>
<event>
 9    2  0.5615294E-005  0.1007471E+03  0.7546771E-02  0.1285406E+00
         21   -1    0    0  501  502  0.00000000000E+00  0.00000000000E+00  0.21317988544E+03  0.21317988544E+03  0.00000000000E+00 0. -1.
         -1   -1    0    0    0  501 -0.00000000000E+00 -0.00000000000E+00 -0.18781028383E+03  0.18781028383E+03  0.00000000000E+00 0.  1.
         24    2    1    2    0    0  0.14121112030E+02  0.37237884032E+02 -0.15780882754E+03  0.18132749078E+03  0.79937269469E+02 0.  0.
         23    2    1    2    0    0  0.34188747768E+01 -0.22731387980E+02  0.16371791220E+03  0.18971603786E+03  0.93060279073E+02 0.  0.
        -13    1    3    3    0    0 -0.36201150451E+01  0.42468806835E+02 -0.15714122504E+03  0.16281913092E+03  0.00000000000E+00 0.  1.
         14    1    3    3    0    0  0.17741227075E+02 -0.52309228029E+01 -0.66760250115E+00  0.18508359857E+02  0.00000000000E+00 0. -1.
        -13    1    4    4    0    0  0.14319344390E+02  0.15120191566E+02 -0.50952608378E+00  0.20830828922E+02  0.00000000000E+00 0.  1.
         13    1    4    4    0    0 -0.10900469613E+02 -0.37851579547E+02  0.16422743829E+03  0.16888520894E+03  0.00000000000E+00 0. -1.
         -2    1    1    2    0  502 -0.17539986807E+02 -0.14506496052E+02  0.19460516952E+02  0.29946640628E+02  0.00000000000E+00 0.  1.
<scales pt_clust_5="13000.00000" pt_clust_6="13000.00000" pt_clust_7="13000.00000" pt_clust_8="13000.00000" pt_clust_9="22.76158"></scales>
<clustering>
<clus scale="   22.762">  1  9  2 -1</clus>
<clus scale="   79.937">  5  6 -1 -1</clus>
<clus scale="   88.768">  2  5  1 -1</clus>
<clus scale="   93.060">  7  8 -1 -1</clus>
<clus scale="   22.762">  1  5  2 -1</clus>
</clustering>
</event>
<event>
 9    2  0.5615294E-005  0.1191141E+03  0.7546771E-02  0.1250343E+00
         21   -1    0    0  501  502  0.00000000000E+00  0.00000000000E+00  0.70517771711E+03  0.70517771711E+03  0.00000000000E+00 0. -1.
          4   -1    0    0  502    0 -0.00000000000E+00 -0.00000000000E+00 -0.37085705184E+02  0.37085705184E+02  0.00000000000E+00 0. -1.
         23    2    1    2    0    0 -0.88620379491E+02  0.36554292979E+02  0.30071334030E+03  0.33065123836E+03  0.98549177552E+02 0.  0.
         24    2    1    2    0    0  0.20920207882E+02 -0.40689478493E+02  0.30590171142E+03  0.32007077456E+03  0.82317403490E+02 0.  0.
        -11    1    4    4    0    0 -0.17851528920E+02 -0.17455754785E+02  0.24217630741E+02  0.34783244509E+02  0.00000000000E+00 0.  1.
         12    1    4    4    0    0  0.38771736802E+02 -0.23233723708E+02  0.28168408068E+03  0.28528753005E+03  0.00000000000E+00 0. -1.
        -11    1    3    3    0    0 -0.77385794693E+02  0.68314440298E+02  0.23906049175E+03  0.26039459036E+03  0.00000000000E+00 0. -1.
         11    1    3    3    0    0 -0.11234584798E+02 -0.31760147319E+02  0.61652848555E+02  0.70256648000E+02  0.00000000000E+00 0.  1.
          3    1    1    2  501    0  0.67700171609E+02  0.41351855139E+01  0.61476960199E+02  0.91541409375E+02  0.00000000000E+00 0. -1.
<scales pt_clust_5="13000.00000" pt_clust_6="13000.00000" pt_clust_7="13000.00000" pt_clust_8="13000.00000" pt_clust_9="67.82638"></scales>
<clustering>
<clus scale="   67.826">  1  9  2 -1</clus>
<clus scale="   82.317">  5  6 -1 -1</clus>
<clus scale="   98.549">  7  8 -1 -1</clus>
<clus scale="  106.077">  1  5  2 -1</clus>
<clus scale="   67.826">  1  5  2 -1</clus>
</clustering>
</event>
<event>
 9    2  0.5615294E-005  0.1048215E+03  0.7546771E-02  0.1275577E+00
          2   -1    0    0  502    0 -0.00000000000E+00  0.00000000000E+00  0.63378249289E+03  0.63378249289E+03  0.00000000000E+00 0. -1.
         21   -1    0    0  501  502  0.00000000000E+00 -0.00000000000E+00 -0.73645985288E+02  0.73645985288E+02  0.00000000000E+00 0.  1.
         24    2    1    2    0    0 -0.25760361141E+02 -0.46764903121E+02  0.56442430753E+03  0.57260811607E+03  0.80341168052E+02 0.  0.
         23    2    1    2    0    0 -0.77399029817E+00  0.17924214296E+02 -0.13821467156E+02  0.94487398559E+02  0.91733085705E+02 0.  0.
        -13    1    3    3    0    0 -0.30855467700E-01 -0.43559262487E+02  0.12412972153E+03  0.13155074332E+03  0.00000000000E+00 0.  1.
         14    1    3    3    0    0 -0.25729505674E+02 -0.32056406339E+01  0.44029458601E+03  0.44105737275E+03  0.00000000000E+00 0. -1.
        -11    1    4    4    0    0  0.38364440563E+02  0.24320678757E+02 -0.26823758295E+02  0.52752627650E+02  0.00000000000E+00 0.  1.
         11    1    4    4    0    0 -0.39138430861E+02 -0.63964644615E+01  0.13002291139E+02  0.41734770908E+02  0.00000000000E+00 0. -1.
          1    1    1    2  501    0  0.26534351440E+02  0.28840688826E+02  0.95336672294E+01  0.40332963555E+02  0.00000000000E+00 0. -1.
<scales pt_clust_5="13000.00000" pt_clust_6="13000.00000" pt_clust_7="13000.00000" pt_clust_8="13000.00000" pt_clust_9="39.19001"></scales>
<clustering>
<clus scale="   39.190">  2  9  1 -1</clus>
<clus scale="   80.341">  5  6 -1 -1</clus>
<clus scale="   91.733">  7  8 -1 -1</clus>
<clus scale="   95.012">  1  5  2 -1</clus>
<clus scale="   39.190">  2  5  1 -1</clus>
</clustering>
</event>
<event>
 9    2  0.1483567E-004  0.1214322E+03  0.7546771E-02  0.1244172E+00
          2   -1    0    0  502    0 -0.00000000000E+00  0.00000000000E+00  0.10414581434E+04  0.10414581434E+04  0.00000000000E+00 0. -1.
         21   -1    0    0  501  502  0.00000000000E+00 -0.00000000000E+00 -0.10471979393E+03  0.10471979393E+03  0.00000000000E+00 0. -1.
         24    2    1    2    0    0 -0.60673168383E+02 -0.76961268187E+02  0.12909956116E+03  0.18054725318E+03  0.79538316406E+02 0.  0.
         23    2    1    2    0    0  0.80418776055E+02 -0.40645764965E+02 -0.20018589990E+02  0.12942614032E+03  0.90725542721E+02 0.  0.
        -11    1    3    3    0    0 -0.74799693691E+02 -0.73318907386E+02  0.12872466523E+03  0.16595389660E+03  0.00000000000E+00 0.  1.
         12    1    3    3    0    0  0.14126525308E+02 -0.36423608004E+01  0.37489593161E+00  0.14593356586E+02  0.00000000000E+00 0. -1.
        -11    1    4    4    0    0  0.60882603920E+02 -0.48688303844E+02 -0.50099671493E+02  0.92667251362E+02  0.00000000000E+00 0. -1.
         11    1    4    4    0    0  0.19536172135E+02  0.80425388794E+01  0.30081081503E+02  0.36758888962E+02  0.00000000000E+00 0.  1.
          1    1    1    2  501    0 -0.19745607672E+02  0.11760703315E+03  0.82765737829E+03  0.83620454383E+03  0.00000000000E+00 0. -1.
<scales pt_clust_5="13000.00000" pt_clust_6="13000.00000" pt_clust_7="13000.00000" pt_clust_8="13000.00000" pt_clust_9="119.25317"></scales>
<clustering>
<clus scale="   79.538">  5  6 -1 -1</clus>
<clus scale="   90.726">  7  8 -1 -1</clus>
<clus scale="  119.253">  2  9  1 -1</clus>
<clus scale="  113.318">  1  5  2 -1</clus>
<clus scale="  119.253">  2  5  1 -1</clus>
</clustering>
</event>
<event>
 9    2  0.5615294E-005  0.1058453E+03  0.7546771E-02  0.1273973E+00
         21   -1    0    0  501  502  0.00000000000E+00  0.00000000000E+00  0.17869907955E+02  0.17869907955E+02  0.00000000000E+00 0.  1.
          2   -1    0    0  502    0 -0.00000000000E+00 -0.00000000000E+00 -0.12362312443E+04  0.12362312443E+04  0.00000000000E+00 0. -1.
         24    2    1    2    0    0  0.43950555215E+02  0.18719190282E+02 -0.81164291657E+03  0.81702890517E+03  0.80560216536E+02 0.  0.
         23    2    1    2    0    0 -0.70729486959E+02  0.14139962003E+02 -0.29689797038E+03  0.31935493238E+03  0.92933143551E+02 0.  0.
        -11    1    3    3    0    0  0.28052114870E+02  0.38805343407E+02 -0.23559505866E+03  0.24041174574E+03  0.00000000000E+00 0.  1.
         12    1    3    3    0    0  0.15898440345E+02 -0.20086153125E+02 -0.57604785790E+03  0.57661715943E+03  0.00000000000E+00 0. -1.
        -11    1    4    4    0    0 -0.28905241417E+02 -0.77394572706E+01 -0.14888822654E+02  0.33422884678E+02  0.00000000000E+00 0.  1.
         11    1    4    4    0    0 -0.41824245542E+02  0.21879419274E+02 -0.28200914772E+03  0.28593204770E+03  0.00000000000E+00 0. -1.
          1    1    1    2  501    0  0.26778931745E+02 -0.32859152285E+02 -0.10982044944E+03  0.11771731474E+03  0.00000000000E+00 0. -1.
<scales pt_clust_5="13000.00000" pt_clust_6="13000.00000" pt_clust_7="13000.00000" pt_clust_8="13000.00000" pt_clust_9="42.38909"></scales>
<clustering>
<clus scale="   42.389">  1  9  2 -1</clus>
<clus scale="   80.560">  5  6 -1 -1</clus>
<clus scale="   92.933">  7  8 -1 -1</clus>
<clus scale="   95.166">  2  5  1 -1</clus>
<clus scale="   42.389">  1  5  2 -1</clus>
</clustering>
</event>
<event>
 9    2  0.5615294E-005  0.9859014E+02  0.7546771E-02  0.1289711E+00
          2   -1    0    0  502    0 -0.00000000000E+00  0.00000000000E+00  0.78449016793E+03  0.78449016793E+03  0.00000000000E+00 0. -1.
         21   -1    0    0  501  502  0.00000000000E+00 -0.00000000000E+00 -0.15336401524E+03  0.15336401524E+03  0.00000000000E+00 0. -1.
         24    2    1    2    0    0  0.25783895327E+02  0.27126624045E+02  0.72663068306E+03  0.73189930185E+03  0.79270268680E+02 0.  0.
         23    2    1    2    0    0 -0.45463516180E+01 -0.29947738600E+02  0.11280519652E+02  0.97041893760E+02  0.91500506341E+02 0.  0.
        -11    1    3    3    0    0 -0.89882871889E+01  0.32517254891E+02  0.13249904247E+03  0.13672657908E+03  0.00000000000E+00 0.  1.
         12    1    3    3    0    0  0.34772182516E+02 -0.53906308460E+01  0.59413164059E+03  0.59517272277E+03  0.00000000000E+00 0. -1.
        -13    1    4    4    0    0 -0.60748664578E+01  0.25070107716E+02 -0.20975458381E+02  0.33247318052E+02  0.00000000000E+00 0. -1.
         13    1    4    4    0    0  0.15285148397E+01 -0.55017846316E+02  0.32255978032E+02  0.63794575707E+02  0.00000000000E+00 0.  1.
          1    1    1    2  501    0 -0.21237543709E+02  0.28211145544E+01 -0.10678505002E+03  0.10891298756E+03  0.00000000000E+00 0. -1.
<scales pt_clust_5="13000.00000" pt_clust_6="13000.00000" pt_clust_7="13000.00000" pt_clust_8="13000.00000" pt_clust_9="21.42410"></scales>
<clustering>
<clus scale="   21.424">  2  9  1 -1</clus>
<clus scale="   79.270">  5  6 -1 -1</clus>
<clus scale="   87.358">  1  5  2 -1</clus>
<clus scale="   91.501">  7  8 -1 -1</clus>
<clus scale="   21.424">  2  5  1 -1</clus>
</clustering>
</event>
<event>
 9    2  0.5615294E-005  0.1042651E+03  0.7546771E-02  0.1275011E+00
         21   -1    0    0  501  502  0.00000000000E+00  0.00000000000E+00  0.98718151527E+02  0.98718151527E+02  0.00000000000E+00 0.  1.
          2   -1    0    0  502    0 -0.00000000000E+00 -0.00000000000E+00 -0.28437599485E+03  0.28437599485E+03  0.00000000000E+00 0. -1.
         23    2    1    2    0    0 -0.32430740703E+02 -0.62278577869E+02 -0.17272781378E+03  0.20620503075E+03  0.88063856653E+02 0.  0.
         24    2    1    2    0    0 -0.37601831532E+02  0.39176888746E+02 -0.29836476028E+02  0.10123148451E+03  0.80055429598E+02 0.  0.
        -13    1    4    4    0    0 -0.47130348822E+02  0.39222814896E+02  0.83425853241E+01  0.61881319623E+02  0.00000000000E+00 0.  1.
         14    1    4    4    0    0  0.95285172895E+01 -0.45926150617E-01 -0.38179061352E+02  0.39350164887E+02  0.00000000000E+00 0. -1.
        -13    1    3    3    0    0 -0.12018948974E+02 -0.82594952032E+02 -0.12087983519E+03  0.14689559487E+03  0.00000000000E+00 0. -1.
         13    1    3    3    0    0 -0.20411791729E+02  0.20316374163E+02 -0.51847978585E+02  0.59309435877E+02  0.00000000000E+00 0.  1.
          1    1    1    2  501    0  0.70032572235E+02  0.23101689123E+02  0.16906446482E+02  0.75657631121E+02  0.00000000000E+00 0. -1.
<scales pt_clust_5="13000.00000" pt_clust_6="13000.00000" pt_clust_7="13000.00000" pt_clust_8="13000.00000" pt_clust_9="73.74449"></scales>
<clustering>
<clus scale="   73.744">  1  9  2 -1</clus>
<clus scale="   80.055">  5  6 -1 -1</clus>
<clus scale="   88.064">  7  8 -1 -1</clus>
<clus scale="   97.595">  1  5  2 -1</clus>
<clus scale="   73.744">  1  5  2 -1</clus>
</clustering>
</event>
<event>
 9    2  0.5615294E-005  0.9463304E+02  0.7546771E-02  0.1293845E+00
          2   -1    0    0  502    0 -0.00000000000E+00  0.00000000000E+00  0.19294725952E+03  0.19294725952E+03  0.00000000000E+00 0. -1.
         21   -1    0    0  501  502  0.00000000000E+00 -0.00000000000E+00 -0.20083412539E+03  0.20083412539E+03  0.00000000000E+00 0. -1.
         24    2    1    2    0    0 -0.54994310252E+01 -0.33799531341E+02  0.15915617637E+03  0.18412583864E+03  0.86017346619E+02 0.  0.
         23    2    1    2    0    0 -0.63597126893E+01 -0.10584968681E+01 -0.11239541425E+03  0.14376104980E+03  0.89403265782E+02 0.  0.
        -13    1    3    3    0    0  0.36396913215E+01  0.24543224806E+02  0.16683309703E+02  0.29898997633E+02  0.00000000000E+00 0.  1.
         14    1    3    3    0    0 -0.91391223468E+01 -0.58342756147E+02  0.14247286667E+03  0.15422684101E+03  0.00000000000E+00 0. -1.
        -13    1    4    4    0    0  0.10122608986E+02  0.30802988716E+02 -0.80306473454E+01  0.33403332518E+02  0.00000000000E+00 0.  1.
         13    1    4    4    0    0 -0.16482321676E+02 -0.31861485584E+02 -0.10436476691E+03  0.11035771728E+03  0.00000000000E+00 0. -1.
          1    1    1    2  501    0  0.11859143715E+02  0.34858028209E+02 -0.54647627989E+02  0.65894496470E+02  0.00000000000E+00 0. -1.
<scales pt_clust_5="13000.00000" pt_clust_6="13000.00000" pt_clust_7="13000.00000" pt_clust_8="13000.00000" pt_clust_9="36.82012"></scales>
<clustering>
<clus scale="   36.820">  2  9  1 -1</clus>
<clus scale="   86.017">  5  6 -1 -1</clus>
<clus scale="   89.403">  7  8 -1 -1</clus>
<clus scale="   91.441">  1  5  2 -1</clus>
<clus scale="   36.820">  2  5  1 -1</clus>
</clustering>
</event>
<event>
 9    2  0.5615294E-005  0.1110483E+03  0.7546771E-02  0.1261788E+00
          2   -1    0    0  502    0 -0.00000000000E+00  0.00000000000E+00  0.60709605480E+03  0.60709605480E+03  0.00000000000E+00 0. -1.
         21   -1    0    0  501  502  0.00000000000E+00 -0.00000000000E+00 -0.75915628444E+02  0.75915628444E+02  0.00000000000E+00 0. -1.
         24    2    1    2    0    0 -0.33490745264E+02  0.64919446627E+02  0.54512069246E+03  0.55529110014E+03  0.76521055771E+02 0.  0.
         23    2    1    2    0    0  0.19784160656E+02 -0.42077330804E+02 -0.22406252820E+02  0.99768737939E+02  0.85380595711E+02 0.  0.
        -13    1    3    3    0    0 -0.97237829134E+01  0.59507490677E+02  0.19007430536E+03  0.19940896409E+03  0.00000000000E+00 0.  1.
         14    1    3    3    0    0 -0.23766962351E+02  0.54119559501E+01  0.35504638710E+03  0.35588213605E+03  0.00000000000E+00 0. -1.
        -11    1    4    4    0    0 -0.49815365306E+01 -0.63782235968E+02 -0.18558278386E+02  0.66613805085E+02  0.00000000000E+00 0.  1.
         11    1    4    4    0    0  0.24765697187E+02  0.21704905163E+02 -0.38479744338E+01  0.33154932854E+02  0.00000000000E+00 0. -1.
          1    1    1    2  501    0  0.13706584608E+02 -0.22842115823E+02  0.84659867100E+01  0.27951845160E+02  0.00000000000E+00 0. -1.
<scales pt_clust_5="13000.00000" pt_clust_6="13000.00000" pt_clust_7="13000.00000" pt_clust_8="13000.00000" pt_clust_9="26.63893"></scales>
<clustering>
<clus scale="   26.639">  2  9  1 -1</clus>
<clus scale="   76.521">  5  6 -1 -1</clus>
<clus scale="   85.381">  7  8 -1 -1</clus>
<clus scale="  104.390">  1  5  2 -1</clus>
<clus scale="   26.639">  2  5  1 -1</clus>
</clustering>
</event>
<event>
 9    2  0.5615294E-005  0.9099226E+02  0.7546771E-02  0.1306596E+00
         21   -1    0    0  501  502  0.00000000000E+00  0.00000000000E+00  0.48333346872E+02  0.48333346872E+02  0.00000000000E+00 0.  1.
          2   -1    0    0  502    0 -0.00000000000E+00 -0.00000000000E+00 -0.63954684890E+03  0.63954684890E+03  0.00000000000E+00 0. -1.
         24    2    1    2    0    0 -0.10535658596E+02  0.55370780484E+00 -0.49747264895E+03  0.50413550236E+03  0.81007787208E+02 0.  0.
         23    2    1    2    0    0 -0.16797661405E+02  0.24504661588E+02 -0.10789055052E+03  0.14405532209E+03  0.90713422723E+02 0.  0.
        -13    1    3    3    0    0  0.12068002617E+02 -0.23018183975E+02 -0.59274060575E+02  0.64721617236E+02  0.00000000000E+00 0.  1.
         14    1    3    3    0    0 -0.22603661212E+02  0.23571891779E+02 -0.43819858837E+03  0.43941388512E+03  0.00000000000E+00 0. -1.
        -13    1    4    4    0    0 -0.18088843662E+02  0.57628508678E+02 -0.82760379526E+02  0.10245746287E+03  0.00000000000E+00 0.  1.
         13    1    4    4    0    0  0.12911822578E+01 -0.33123847090E+02 -0.25130170994E+02  0.41597859222E+02  0.00000000000E+00 0. -1.
          1    1    1    2  501    0  0.27333320000E+02 -0.25058369393E+02  0.14149697440E+02  0.39689371329E+02  0.00000000000E+00 0. -1.
<scales pt_clust_5="13000.00000" pt_clust_6="13000.00000" pt_clust_7="13000.00000" pt_clust_8="13000.00000" pt_clust_9="37.08143"></scales>
<clustering>
<clus scale="   37.081">  1  9  2 -1</clus>
<clus scale="   81.008">  5  6 -1 -1</clus>
<clus scale="   81.320">  2  5  1 -1</clus>
<clus scale="   90.713">  7  8 -1 -1</clus>
<clus scale="   37.081">  1  5  2 -1</clus>
</clustering>
</event>
<event>
 9    2  0.5615294E-005  0.1053832E+03  0.7546771E-02  0.1274627E+00
         21   -1    0    0  501  502  0.00000000000E+00  0.00000000000E+00  0.49279116731E+03  0.49279116731E+03  0.00000000000E+00 0. -1.
          2   -1    0    0  502    0 -0.00000000000E+00 -0.00000000000E+00 -0.11108004364E+03  0.11108004364E+03  0.00000000000E+00 0. -1.
         24    2    1    2    0    0  0.48372284893E+02 -0.84580757766E+01 -0.74730815613E+02  0.12020902937E+03  0.80337406907E+02 0.  0.
         23    2    1    2    0    0 -0.83484549115E+02  0.32664156796E+01  0.34848962240E+03  0.37002448029E+03  0.92156170050E+02 0.  0.
        -13    1    3    3    0    0  0.47387257517E+02  0.12897498592E+02 -0.75241681184E+01  0.49684109640E+02  0.00000000000E+00 0.  1.
         14    1    3    3    0    0  0.98502737649E+00 -0.21355574368E+02 -0.67206647494E+02  0.70524919730E+02  0.00000000000E+00 0. -1.
        -13    1    4    4    0    0 -0.46533478979E+02 -0.34225148927E+02  0.95454996734E+02  0.11157231685E+03  0.00000000000E+00 0. -1.
         13    1    4    4    0    0 -0.36951070136E+02  0.37491564606E+02  0.25303462567E+03  0.25845216344E+03  0.00000000000E+00 0.  1.
          1    1    1    2  501    0  0.35112264222E+02  0.51916600970E+01  0.10795231689E+03  0.11363770129E+03  0.00000000000E+00 0. -1.
<scales pt_clust_5="13000.00000" pt_clust_6="13000.00000" pt_clust_7="13000.00000" pt_clust_8="13000.00000" pt_clust_9="35.49401"></scales>
<clustering>
<clus scale="   35.494">  1  9  2 -1</clus>
<clus scale="   80.337">  5  6 -1 -1</clus>
<clus scale="   92.156">  7  8 -1 -1</clus>
<clus scale="   95.221">  2  5  1 -1</clus>
<clus scale="   35.494">  1  5  2 -1</clus>
</clustering>
</event>
<event>
 9    2  0.5615294E-005  0.9263537E+02  0.7546771E-02  0.1300910E+00
         21   -1    0    0  501  502  0.00000000000E+00  0.00000000000E+00  0.31336742038E+03  0.31336742038E+03  0.00000000000E+00 0. -1.
          4   -1    0    0  502    0 -0.00000000000E+00 -0.00000000000E+00 -0.32744870707E+02  0.32744870707E+02  0.00000000000E+00 0. -1.
         23    2    1    2    0    0  0.31116652638E+02 -0.23091531457E+01  0.12003172223E+03  0.15323949184E+03  0.90006384534E+02 0.  0.
         24    2    1    2    0    0 -0.10309059330E+02  0.11427447090E+02  0.12693249436E+03  0.15226513237E+03  0.82679798980E+02 0.  0.
        -11    1    4    4    0    0  0.41929186779E+01  0.33494776153E+02  0.14440088949E+02  0.36715075452E+02  0.00000000000E+00 0.  1.
         12    1    4    4    0    0 -0.14501978008E+02 -0.22067329063E+02  0.11249240541E+03  0.11555005692E+03  0.00000000000E+00 0. -1.
        -13    1    3    3    0    0  0.38709102600E+01 -0.44268576692E+02  0.66381229881E+02  0.79882153884E+02  0.00000000000E+00 0.  1.
         13    1    3    3    0    0  0.27245742378E+02  0.41959423546E+02  0.53650492351E+02  0.73357337953E+02  0.00000000000E+00 0. -1.
          3    1    1    2  501    0 -0.20807593308E+02 -0.91182939444E+01  0.33658333079E+02  0.40607666879E+02  0.00000000000E+00 0. -1.
<scales pt_clust_5="13000.00000" pt_clust_6="13000.00000" pt_clust_7="13000.00000" pt_clust_8="13000.00000" pt_clust_9="22.71782"></scales>
<clustering>
<clus scale="   22.718">  1  9  2 -1</clus>
<clus scale="   82.680">  5  6 -1 -1</clus>
<clus scale="   85.534">  1  5  2 -1</clus>
<clus scale="   90.006">  7  8 -1 -1</clus>
<clus scale="   22.718">  1  5  2 -1</clus>
</clustering>
</event>
<event>
 9    2  0.5615294E-005  0.9465923E+02  0.7546771E-02  0.1297259E+00
         21   -1    0    0  501  502  0.00000000000E+00  0.00000000000E+00  0.41702844740E+02  0.41702844740E+02  0.00000000000E+00 0.  1.
         -1   -1    0    0    0  501 -0.00000000000E+00 -0.00000000000E+00 -0.57391205186E+03  0.57391205186E+03  0.00000000000E+00 0.  1.
         24    2    1    2    0    0  0.20426677489E+02  0.80502853631E+01 -0.39770463292E+03  0.40651218391E+03  0.81247303786E+02 0.  0.
         23    2    1    2    0    0 -0.35707343503E+02 -0.38023160652E+02 -0.14029970312E+03  0.17496394403E+03  0.90595805024E+02 0.  0.
        -11    1    3    3    0    0  0.44841554491E+02  0.18311953267E+02 -0.15563156084E+03  0.16299470964E+03  0.00000000000E+00 0.  1.
         12    1    3    3    0    0 -0.24414877003E+02 -0.10261667904E+02 -0.24207307207E+03  0.24351747426E+03  0.00000000000E+00 0. -1.
        -13    1    4    4    0    0 -0.16711581917E+02 -0.64624888075E+02 -0.11741110509E+03  0.13505932299E+03  0.00000000000E+00 0.  1.
         13    1    4    4    0    0 -0.18995761586E+02  0.26601727424E+02 -0.22888598035E+02  0.39904621038E+02  0.00000000000E+00 0. -1.
         -2    1    1    2    0  502  0.15280666015E+02  0.29972875289E+02  0.57951289173E+01  0.34138768667E+02  0.00000000000E+00 0.  1.
<scales pt_clust_5="13000.00000" pt_clust_6="13000.00000" pt_clust_7="13000.00000" pt_clust_8="13000.00000" pt_clust_9="33.64331"></scales>
<clustering>
<clus scale="   33.643">  1  9  2 -1</clus>
<clus scale="   81.247">  5  6 -1 -1</clus>
<clus scale="   85.755">  2  5  1 -1</clus>
<clus scale="   90.596">  7  8 -1 -1</clus>
<clus scale="   33.643">  1  5  2 -1</clus>
</clustering>
</event>
<event>
 9    2  0.5615294E-005  0.1060893E+03  0.7546771E-02  0.1270324E+00
          2   -1    0    0  502    0 -0.00000000000E+00  0.00000000000E+00  0.45491898544E+03  0.45491898544E+03  0.00000000000E+00 0. -1.
         21   -1    0    0  501  502  0.00000000000E+00 -0.00000000000E+00 -0.83813300470E+02  0.83813300470E+02  0.00000000000E+00 0.  1.
         24    2    1    2    0    0 -0.57618108167E+01 -0.37394460893E+02  0.14884771652E+03  0.18146109891E+03  0.96648556810E+02 0.  0.
         23    2    1    2    0    0 -0.37423050900E+02  0.68384347534E+02 -0.84868277615E+01  0.12048337834E+03  0.91473025988E+02 0.  0.
        -13    1    3    3    0    0 -0.28112107350E+02  0.11138439007E+02  0.11334589307E+03  0.11731004595E+03  0.00000000000E+00 0.  1.
         14    1    3    3    0    0  0.22350296534E+02 -0.48532899900E+02  0.35501823447E+02  0.64151052960E+02  0.00000000000E+00 0. -1.
        -11    1    4    4    0    0 -0.35092263666E+02  0.21628563787E+02 -0.45064349777E+02  0.61074195546E+02  0.00000000000E+00 0.  1.
         11    1    4    4    0    0 -0.23307872342E+01  0.46755783747E+02  0.36577522016E+02  0.59409182790E+02  0.00000000000E+00 0. -1.
          1    1    1    2  501    0  0.43184861717E+02 -0.30989886642E+02  0.23074479621E+03  0.23678780866E+03  0.00000000000E+00 0. -1.
<scales pt_clust_5="13000.00000" pt_clust_6="13000.00000" pt_clust_7="13000.00000" pt_clust_8="13000.00000" pt_clust_9="53.15363"></scales>
<clustering>
<clus scale="   53.154">  2  9  1 -1</clus>
<clus scale="   91.473">  7  8 -1 -1</clus>
<clus scale="   96.649">  5  6 -1 -1</clus>
<clus scale="  101.397">  2  7  1 -1</clus>
<clus scale="   53.154">  2  5  1 -1</clus>
</clustering>
</event>
<event>
 9    2  0.5615294E-005  0.9264995E+02  0.7546771E-02  0.1303291E+00
         21   -1    0    0  501  502  0.00000000000E+00  0.00000000000E+00  0.14803834038E+03  0.14803834038E+03  0.00000000000E+00 0. -1.
          2   -1    0    0  502    0 -0.00000000000E+00 -0.00000000000E+00 -0.28436012867E+03  0.28436012867E+03  0.00000000000E+00 0. -1.
         24    2    1    2    0    0  0.11374451451E+02  0.75016076831E-01 -0.17971554034E+03  0.19767617387E+03  0.81540238550E+02 0.  0.
         23    2    1    2    0    0  0.31777381950E+02  0.29105993938E+02 -0.60467003990E+02  0.11852991714E+03  0.92391134844E+02 0.  0.
        -11    1    3    3    0    0  0.27661012633E+02 -0.34301666522E+02 -0.10370046787E+03  0.11267441139E+03  0.00000000000E+00 0.  1.
         12    1    3    3    0    0 -0.16286561182E+02  0.34376682599E+02 -0.76015072465E+02  0.85001762473E+02  0.00000000000E+00 0. -1.
        -11    1    4    4    0    0  0.16577290210E+02 -0.13185131564E+02  0.18203209034E+02  0.27928678168E+02  0.00000000000E+00 0.  1.
         11    1    4    4    0    0  0.15200091740E+02  0.42291125502E+02 -0.78670213024E+02  0.90601238967E+02  0.00000000000E+00 0. -1.
          1    1    1    2  501    0 -0.43151833402E+02 -0.29181010015E+02  0.10386075604E+03  0.11619237805E+03  0.00000000000E+00 0. -1.
<scales pt_clust_5="13000.00000" pt_clust_6="13000.00000" pt_clust_7="13000.00000" pt_clust_8="13000.00000" pt_clust_9="52.09234"></scales>
<clustering>
<clus scale="   52.092">  1  9  2 -1</clus>
<clus scale="   81.540">  5  6 -1 -1</clus>
<clus scale="   81.833">  2  5  1 -1</clus>
<clus scale="   92.391">  7  8 -1 -1</clus>
<clus scale="   52.092">  1  5  2 -1</clus>
</clustering>
</event>
<event>
 9    2  0.5615294E-005  0.2055402E+03  0.7546771E-02  0.1146197E+00
          2   -1    0    0  502    0 -0.00000000000E+00  0.00000000000E+00  0.23319485451E+04  0.23319485451E+04  0.00000000000E+00 0. -1.
         21   -1    0    0  501  502  0.00000000000E+00 -0.00000000000E+00 -0.26218286294E+02  0.26218286294E+02  0.00000000000E+00 0.  1.
         24    2    1    2    0    0 -0.10159117891E+03  0.16781097050E+03  0.14564420047E+04  0.14716895340E+04  0.78520583043E+02 0.  0.
         23    2    1    2    0    0  0.77628463372E+02 -0.14889053458E+03  0.82683887762E+03  0.84858047515E+03  0.90728846888E+02 0.  0.
        -11    1    3    3    0    0 -0.15512847836E+02  0.31822944692E+02  0.10747637499E+03  0.11315705651E+03  0.00000000000E+00 0.  1.
         12    1    3    3    0    0 -0.86078331079E+02  0.13598802581E+03  0.13489656297E+04  0.13585324775E+04  0.00000000000E+00 0. -1.
        -13    1    4    4    0    0  0.73002543021E+02 -0.56997859399E+02  0.30717907111E+03  0.32083813519E+03  0.00000000000E+00 0. -1.
         13    1    4    4    0    0  0.46259203507E+01 -0.91892675179E+02  0.51965980650E+03  0.52774233996E+03  0.00000000000E+00 0.  1.
          1    1    1    2  501    0  0.23962715543E+02 -0.18920435920E+02  0.22449376485E+02  0.37896822243E+02  0.00000000000E+00 0. -1.
<scales pt_clust_5="13000.00000" pt_clust_6="13000.00000" pt_clust_7="13000.00000" pt_clust_8="13000.00000" pt_clust_9="30.53186"></scales>
<clustering>
<clus scale="   30.532">  2  9  1 -1</clus>
<clus scale="   78.521">  5  6 -1 -1</clus>
<clus scale="   90.729">  7  8 -1 -1</clus>
<clus scale="  200.451">  1  5  2 -1</clus>
<clus scale="   30.532">  2  5  1 -1</clus>
</clustering>
</event>
<event>
 9    2  0.5615294E-005  0.1199895E+03  0.7546771E-02  0.1245375E+00
         21   -1    0    0  501  502  0.00000000000E+00  0.00000000000E+00  0.18831135785E+03  0.18831135785E+03  0.00000000000E+00 0. -1.
          2   -1    0    0  502    0 -0.00000000000E+00 -0.00000000000E+00 -0.19229152330E+03  0.19229152330E+03  0.00000000000E+00 0. -1.
         24    2    1    2    0    0 -0.57715010547E+02  0.31126220622E+02 -0.43106431051E+02  0.11428687983E+03  0.83087077514E+02 0.  0.
         23    2    1    2    0    0  0.46161061317E+02 -0.95138871515E+02 -0.56960091225E+02  0.15028281131E+03  0.90322881528E+02 0.  0.
        -11    1    3    3    0    0 -0.28723764156E+02 -0.23203759801E+02 -0.37213570983E+02  0.52424411885E+02  0.00000000000E+00 0.  1.
         12    1    3    3    0    0 -0.28991246390E+02  0.54329980423E+02 -0.58928600683E+01  0.61862467941E+02  0.00000000000E+00 0. -1.
        -13    1    4    4    0    0  0.49276904045E+02 -0.43566173629E+02 -0.70957826166E+02  0.96753490124E+02  0.00000000000E+00 0. -1.
         13    1    4    4    0    0 -0.31158427280E+01 -0.51572697885E+02  0.13997734941E+02  0.53529321185E+02  0.00000000000E+00 0.  1.
          1    1    1    2  501    0  0.11553949230E+02  0.64012650893E+02  0.96086356826E+02  0.11603319002E+03  0.00000000000E+00 0. -1.
<scales pt_clust_5="13000.00000" pt_clust_6="13000.00000" pt_clust_7="13000.00000" pt_clust_8="13000.00000" pt_clust_9="65.04701"></scales>
<clustering>
<clus scale="   65.047">  1  9  2 -1</clus>
<clus scale="   83.087">  5  6 -1 -1</clus>
<clus scale="   90.323">  7  8 -1 -1</clus>
<clus scale="  114.642">  2  5  1 -1</clus>
<clus scale="   65.047">  1  5  2 -1</clus>
</clustering>
</event>
<event>
 9    2  0.5615294E-005  0.1124562E+03  0.7546771E-02  0.1263389E+00
          2   -1    0    0  502    0 -0.00000000000E+00  0.00000000000E+00  0.20470771004E+03  0.20470771004E+03  0.00000000000E+00 0. -1.
         21   -1    0    0  501  502  0.00000000000E+00 -0.00000000000E+00 -0.33659350592E+03  0.33659350592E+03  0.00000000000E+00 0. -1.
         23    2    1    2    0    0  0.19399738155E+02 -0.68812664060E+02  0.14070967247E+03  0.18540268906E+03  0.97280073018E+02 0.  0.
         24    2    1    2    0    0 -0.22914523500E+02  0.19225233428E+02 -0.64030447803E+01  0.85104004500E+02  0.79416670869E+02 0.  0.
        -11    1    4    4    0    0  0.66297607521E+01  0.30536755415E+02 -0.31764001772E+02  0.44557816009E+02  0.00000000000E+00 0.  1.
         12    1    4    4    0    0 -0.29544284252E+02 -0.11311521987E+02  0.25360956992E+02  0.40546188491E+02  0.00000000000E+00 0. -1.
        -11    1    3    3    0    0 -0.31087903943E+02 -0.23554002124E+02  0.97472236618E+02  0.10498612146E+03  0.00000000000E+00 0. -1.
         11    1    3    3    0    0  0.50487642098E+02 -0.45258661936E+02  0.43237435854E+02  0.80416567597E+02  0.00000000000E+00 0.  1.
          1    1    1    2  501    0  0.35147853448E+01  0.49587430632E+02 -0.26619242357E+03  0.27079452240E+03  0.00000000000E+00 0. -1.
<scales pt_clust_5="13000.00000" pt_clust_6="13000.00000" pt_clust_7="13000.00000" pt_clust_8="13000.00000" pt_clust_9="49.71184"></scales>
<clustering>
<clus scale="   49.712">  2  9  1 -1</clus>
<clus scale="   79.417">  5  6 -1 -1</clus>
<clus scale="   97.280">  7  8 -1 -1</clus>
<clus scale="   97.417">  2  5  1 -1</clus>
<clus scale="   49.712">  2  5  1 -1</clus>
</clustering>
</event>
<event>
 9    2  0.5615294E-005  0.1099563E+03  0.7546771E-02  0.1271890E+00
          2   -1    0    0  502    0 -0.00000000000E+00  0.00000000000E+00  0.80210905161E+03  0.80210905161E+03  0.00000000000E+00 0. -1.
         21   -1    0    0  501  502  0.00000000000E+00 -0.00000000000E+00 -0.23095151535E+02  0.23095151535E+02  0.00000000000E+00 0. -1.
         24    2    1    2    0    0  0.13240362531E+02  0.48601698140E+02  0.44943183991E+03  0.45927178671E+03  0.80026015001E+02 0.  0.
         23    2    1    2    0    0  0.81260003227E+01 -0.25454874461E+01  0.17735297165E+03  0.20546001571E+03  0.10337906034E+03 0.  0.
        -13    1    3    3    0    0  0.34798634309E+02 -0.59138832930E+01  0.19548549514E+03  0.19864666566E+03  0.00000000000E+00 0.  1.
         14    1    3    3    0    0 -0.21558271779E+02  0.54515581433E+02  0.25394634477E+03  0.26062512105E+03  0.00000000000E+00 0. -1.
        -11    1    4    4    0    0 -0.29719630677E+02 -0.38111353463E+02  0.11201156097E+03  0.12199312071E+03  0.00000000000E+00 0.  1.
         11    1    4    4    0    0  0.37845631000E+02  0.35565866017E+02  0.65341410683E+02  0.83466895003E+02  0.00000000000E+00 0. -1.
          1    1    1    2  501    0 -0.21366362853E+02 -0.46056210694E+02  0.15222908852E+03  0.16047240073E+03  0.00000000000E+00 0. -1.
<scales pt_clust_5="13000.00000" pt_clust_6="13000.00000" pt_clust_7="13000.00000" pt_clust_8="13000.00000" pt_clust_9="50.77104"></scales>
<clustering>
<clus scale="   50.771">  2  9  1 -1</clus>
<clus scale="   80.026">  5  6 -1 -1</clus>
<clus scale="   88.359">  1  5  2 -1</clus>
<clus scale="  103.379">  7  8 -1 -1</clus>
<clus scale="   50.771">  2  5  1 -1</clus>
</clustering>
</event>
<event>
 9    2  0.5615294E-005  0.1039038E+03  0.7546771E-02  0.1277679E+00
          2   -1    0    0  502    0 -0.00000000000E+00  0.00000000000E+00  0.14038462563E+03  0.14038462563E+03  0.00000000000E+00 0. -1.
         21   -1    0    0  501  502  0.00000000000E+00 -0.00000000000E+00 -0.16299589764E+03  0.16299589764E+03  0.00000000000E+00 0.  1.
         23    2    1    2    0    0  0.53141454313E+02 -0.35633211889E+01  0.90277389994E+02  0.13905925431E+03  0.91382479946E+02 0.  0.
         24    2    1    2    0    0 -0.36585151687E+02 -0.13359871131E+02 -0.61866772845E+02  0.10807414665E+03  0.79596256889E+02 0.  0.
        -13    1    4    4    0    0 -0.37043406347E+02 -0.44256423054E+02 -0.40043387217E+02  0.70244699410E+02  0.00000000000E+00 0.  1.
         14    1    4    4    0    0  0.45825465983E+00  0.30896551923E+02 -0.21823385628E+02  0.37829447238E+02  0.00000000000E+00 0. -1.
        -13    1    3    3    0    0  0.41358944087E+02  0.41450702937E+02  0.42388036440E+02  0.72287403213E+02  0.00000000000E+00 0.  1.
         13    1    3    3    0    0  0.11782510225E+02 -0.45014024126E+02  0.47889353555E+02  0.66771851099E+02  0.00000000000E+00 0. -1.
          1    1    1    2  501    0 -0.16556302626E+02  0.16923192320E+02 -0.51021889161E+02  0.56247122313E+02  0.00000000000E+00 0. -1.
<scales pt_clust_5="13000.00000" pt_clust_6="13000.00000" pt_clust_7="13000.00000" pt_clust_8="13000.00000" pt_clust_9="23.67500"></scales>
<clustering>
<clus scale="   23.675">  2  9  1 -1</clus>
<clus scale="   79.596">  5  6 -1 -1</clus>
<clus scale="   91.382">  7  8 -1 -1</clus>
<clus scale="   93.706">  2  5  1 -1</clus>
<clus scale="   23.675">  2  5  1 -1</clus>
</clustering>
</event>
<event>
 9    2  0.5615294E-005  0.9741395E+02  0.7546771E-02  0.1286451E+00
          2   -1    0    0  502    0 -0.00000000000E+00  0.00000000000E+00  0.10006780782E+03  0.10006780782E+03  0.00000000000E+00 0. -1.
         21   -1    0    0  501  502  0.00000000000E+00 -0.00000000000E+00 -0.17185515620E+03  0.17185515620E+03  0.00000000000E+00 0.  1.
         23    2    1    2    0    0  0.39055792581E+02  0.16044350076E+02  0.29312803992E+02  0.10070655970E+03  0.86601354406E+02 0.  0.
         24    2    1    2    0    0 -0.40016942354E+02 -0.39334314961E+02 -0.10622341238E+03  0.14735023441E+03  0.85323702648E+02 0.  0.
        -11    1    4    4    0    0 -0.37023037346E+02  0.20918344931E+01 -0.98307050675E+02  0.10506834575E+03  0.00000000000E+00 0.  1.
         12    1    4    4    0    0 -0.29939050077E+01 -0.41426149454E+02 -0.79163617018E+01  0.42281888657E+02  0.00000000000E+00 0. -1.
        -13    1    3    3    0    0 -0.19343858614E+02  0.22859961880E+02  0.29321164154E+02  0.41910540328E+02  0.00000000000E+00 0.  1.
         13    1    3    3    0    0  0.58399651195E+02 -0.68156118034E+01 -0.83601622802E-02  0.58796019371E+02  0.00000000000E+00 0. -1.
          1    1    1    2  501    0  0.96114977296E+00  0.23289964885E+02  0.51232600014E+01  0.23866169912E+02  0.00000000000E+00 0. -1.
<scales pt_clust_5="13000.00000" pt_clust_6="13000.00000" pt_clust_7="13000.00000" pt_clust_8="13000.00000" pt_clust_9="23.30980"></scales>
<clustering>
<clus scale="   23.310">  2  9  1 -1</clus>
<clus scale="   85.324">  5  6 -1 -1</clus>
<clus scale="   86.601">  7  8 -1 -1</clus>
<clus scale="   96.280">  2  5  1 -1</clus>
<clus scale="   23.310">  2  5  1 -1</clus>
</clustering>
</event>
<event>
 9    2  0.5615294E-005  0.1339975E+03  0.7546771E-02  0.1223418E+00
         21   -1    0    0  501  502  0.00000000000E+00  0.00000000000E+00  0.91164542791E+02  0.91164542791E+02  0.00000000000E+00 0.  1.
          4   -1    0    0  502    0 -0.00000000000E+00 -0.00000000000E+00 -0.27731004759E+03  0.27731004759E+03  0.00000000000E+00 0. -1.
         24    2    1    2    0    0  0.85556218158E+02 -0.89892419007E+02 -0.11454052674E+03  0.18744437239E+03  0.81334783532E+02 0.  0.
         23    2    1    2    0    0 -0.68450729619E+02  0.50007843456E+02 -0.20078179233E+02  0.11366265828E+03  0.73005340994E+02 0.  0.
        -11    1    3    3    0    0  0.95812085627E+02 -0.64468027031E+02 -0.69695735962E+02  0.13488357154E+03  0.00000000000E+00 0.  1.
         12    1    3    3    0    0 -0.10255867469E+02 -0.25424391976E+02 -0.44844790781E+02  0.52560800841E+02  0.00000000000E+00 0. -1.
        -13    1    4    4    0    0 -0.86191609128E+01  0.47958166827E+02  0.45279524654E+01  0.48936469568E+02  0.00000000000E+00 0.  1.
         13    1    4    4    0    0 -0.59831568706E+02  0.20496766290E+01 -0.24606131698E+02  0.64726188712E+02  0.00000000000E+00 0. -1.
          3    1    1    2  501    0 -0.17105488540E+02  0.39884575551E+02 -0.51526798824E+02  0.67367559716E+02  0.00000000000E+00 0. -1.
<scales pt_clust_5="13000.00000" pt_clust_6="13000.00000" pt_clust_7="13000.00000" pt_clust_8="13000.00000" pt_clust_9="43.39791"></scales>
<clustering>
<clus scale="   43.398">  1  9  2 -1</clus>
<clus scale="   73.005">  7  8 -1 -1</clus>
<clus scale="   81.335">  5  6 -1 -1</clus>
<clus scale="  129.111">  1  7  2 -1</clus>
<clus scale="   43.398">  1  5  2 -1</clus>
</clustering>
</event>
<event>
 9    2  0.5615294E-005  0.1406054E+03  0.7546771E-02  0.1229774E+00
          2   -1    0    0  502    0 -0.00000000000E+00  0.00000000000E+00  0.12115817066E+04  0.12115817066E+04  0.00000000000E+00 0. -1.
         21   -1    0    0  501  502  0.00000000000E+00 -0.00000000000E+00 -0.47291757259E+02  0.47291757259E+02  0.00000000000E+00 0.  1.
         24    2    1    2    0    0  0.57706384683E+01 -0.55604977227E+02  0.45502226167E+02  0.10798771942E+03  0.80409459630E+02 0.  0.
         23    2    1    2    0    0 -0.70225436606E+02 -0.61538921406E+02  0.43158310062E+03  0.45079481660E+03  0.90737771277E+02 0.  0.
        -13    1    3    3    0    0 -0.20726149293E+02 -0.65302034186E+02  0.24300056854E+02  0.72694027928E+02  0.00000000000E+00 0.  1.
         14    1    3    3    0    0  0.26496787761E+02  0.96970569585E+01  0.21202169313E+02  0.35293691489E+02  0.00000000000E+00 0. -1.
        -13    1    4    4    0    0  0.10252006276E+02 -0.23932520889E+02  0.31010724133E+02  0.40491161999E+02  0.00000000000E+00 0.  1.
         13    1    4    4    0    0 -0.80477442882E+02 -0.37606400517E+02  0.40057237648E+03  0.41030365460E+03  0.00000000000E+00 0. -1.
          1    1    1    2  501    0  0.64454798138E+02  0.11714389863E+03  0.68720462257E+03  0.70009092786E+03  0.00000000000E+00 0. -1.
<scales pt_clust_5="13000.00000" pt_clust_6="13000.00000" pt_clust_7="13000.00000" pt_clust_8="13000.00000" pt_clust_9="107.40833"></scales>
<clustering>
<clus scale="   80.409">  5  6 -1 -1</clus>
<clus scale="   90.738">  7  8 -1 -1</clus>
<clus scale="   97.933">  1  5  2 -1</clus>
<clus scale="  107.408">  2  9  1 -1</clus>
<clus scale="  107.408">  2  5  1 -1</clus>
</clustering>
</event>
<event>
 9    2  0.5615294E-005  0.1411343E+03  0.7546771E-02  0.1216291E+00
         21   -1    0    0  501  502  0.00000000000E+00  0.00000000000E+00  0.29541040263E+03  0.29541040263E+03  0.00000000000E+00 0.  1.
         -1   -1    0    0    0  501 -0.00000000000E+00 -0.00000000000E+00 -0.16615461299E+03  0.16615461299E+03  0.00000000000E+00 0.  1.
         24    2    1    2    0    0 -0.97040085821E+02 -0.39329830542E+02 -0.61356505042E+02  0.14518439088E+03  0.79688599049E+02 0.  0.
         23    2    1    2    0    0  0.99246125586E+02 -0.44453768185E+02  0.17917460721E+03  0.23179115305E+03  0.98983169339E+02 0.  0.
        -13    1    3    3    0    0 -0.10294624409E+03 -0.14277854451E+02 -0.38727530575E+02  0.11091261391E+03  0.00000000000E+00 0.  1.
         14    1    3    3    0    0  0.59061582667E+01 -0.25051976092E+02 -0.22628974467E+02  0.34271776975E+02  0.00000000000E+00 0. -1.
        -13    1    4    4    0    0  0.10233196515E+03 -0.74267964252E+01  0.15976059738E+03  0.18986952592E+03  0.00000000000E+00 0.  1.
         13    1    4    4    0    0 -0.30858395670E+01 -0.37026971760E+02  0.19414009833E+02  0.41921627131E+02  0.00000000000E+00 0. -1.
         -2    1    1    2    0  502 -0.22060397659E+01  0.83783598727E+02  0.11437687468E+02  0.84589471696E+02  0.00000000000E+00 0.  1.
<scales pt_clust_5="13000.00000" pt_clust_6="13000.00000" pt_clust_7="13000.00000" pt_clust_8="13000.00000" pt_clust_9="83.81268"></scales>
<clustering>
<clus scale="   79.689">  5  6 -1 -1</clus>
<clus scale="   83.813">  1  9  2 -1</clus>
<clus scale="   98.983">  7  8 -1 -1</clus>
<clus scale="  128.341">  2  5  1 -1</clus>
<clus scale="   83.813">  1  5  2 -1</clus>
</clustering>
</event>
<event>
 9    2  0.5615294E-005  0.9874055E+02  0.7546771E-02  0.1290665E+00
         -3   -1    0    0    0  501 -0.00000000000E+00  0.00000000000E+00  0.16048197004E+03  0.16048197004E+03  0.00000000000E+00 0.  1.
         21   -1    0    0  501  502  0.00000000000E+00 -0.00000000000E+00 -0.18768335097E+03  0.18768335097E+03  0.00000000000E+00 0.  1.
         24    2    1    2    0    0  0.31395793930E+02 -0.43103673159E+01  0.82757850435E+02  0.11737119085E+03  0.76960116230E+02 0.  0.
         23    2    1    2    0    0 -0.44445145371E+02  0.39584007741E+02  0.55549641082E+01  0.10931143740E+03  0.91519768931E+02 0.  0.
        -13    1    3    3    0    0  0.39558625991E+02  0.13069938522E+02  0.88088042967E+02  0.97443375850E+02  0.00000000000E+00 0.  1.
         14    1    3    3    0    0 -0.81628320611E+01 -0.17380305838E+02 -0.53301925322E+01  0.19927815000E+02  0.00000000000E+00 0. -1.
        -13    1    4    4    0    0  0.60943318235E+01  0.41790650140E+02  0.31283337544E+02  0.52557078757E+02  0.00000000000E+00 0.  1.
         13    1    4    4    0    0 -0.50539477195E+02 -0.22066423989E+01 -0.25728373436E+02  0.56754358647E+02  0.00000000000E+00 0. -1.
         -4    1    1    2    0  502  0.13049351442E+02 -0.35273640425E+02 -0.11551419548E+03  0.12148269275E+03  0.00000000000E+00 0.  1.
<scales pt_clust_5="13000.00000" pt_clust_6="13000.00000" pt_clust_7="13000.00000" pt_clust_8="13000.00000" pt_clust_9="37.61004"></scales>
<clustering>
<clus scale="   37.610">  2  9  1 -1</clus>
<clus scale="   76.960">  5  6 -1 -1</clus>
<clus scale="   85.421">  1  5  2 -1</clus>
<clus scale="   91.520">  7  8 -1 -1</clus>
<clus scale="   37.610">  2  5  1 -1</clus>
</clustering>
</event>
<event>
 9    2  0.5615294E-005  0.1004784E+03  0.7546771E-02  0.1284591E+00
          2   -1    0    0  502    0 -0.00000000000E+00  0.00000000000E+00  0.41659434705E+02  0.41659434705E+02  0.00000000000E+00 0. -1.
         21   -1    0    0  501  502  0.00000000000E+00 -0.00000000000E+00 -0.38945439524E+03  0.38945439524E+03  0.00000000000E+00 0. -1.
         23    2    1    2    0    0  0.31152715381E+02  0.22248176542E+02 -0.91329107637E+02  0.13391318475E+03  0.90145782557E+02 0.  0.
         24    2    1    2    0    0 -0.59807487733E+02 -0.12887821092E+02 -0.24546574841E+03  0.26511147987E+03  0.79294587426E+02 0.  0.
        -13    1    4    4    0    0 -0.18636764196E+02 -0.40878529939E+02 -0.74052818150E+02  0.86615258849E+02  0.00000000000E+00 0.  1.
         14    1    4    4    0    0 -0.41170723537E+02  0.27990708847E+02 -0.17141293026E+03  0.17849622102E+03  0.00000000000E+00 0. -1.
        -11    1    3    3    0    0  0.29433374242E+02  0.47363409270E+02 -0.21638254325E+02  0.59814965578E+02  0.00000000000E+00 0.  1.
         11    1    3    3    0    0  0.17193411390E+01 -0.25115232728E+02 -0.69690853312E+02  0.74098219171E+02  0.00000000000E+00 0. -1.
          1    1    1    2  501    0  0.28654772352E+02 -0.93603554496E+01 -0.11000104490E+02  0.32089165329E+02  0.00000000000E+00 0. -1.
<scales pt_clust_5="13000.00000" pt_clust_6="13000.00000" pt_clust_7="13000.00000" pt_clust_8="13000.00000" pt_clust_9="30.14487"></scales>
<clustering>
<clus scale="   30.145">  2  9  1 -1</clus>
<clus scale="   79.295">  5  6 -1 -1</clus>
<clus scale="   90.146">  7  8 -1 -1</clus>
<clus scale="   90.870">  2  5  1 -1</clus>
<clus scale="   30.145">  2  5  1 -1</clus>
</clustering>
</event>
<event>
 9    2  0.5615294E-005  0.1010467E+03  0.7546771E-02  0.1285385E+00
         21   -1    0    0  501  502  0.00000000000E+00  0.00000000000E+00  0.79212698312E+02  0.79212698312E+02  0.00000000000E+00 0. -1.
         -1   -1    0    0    0  501 -0.00000000000E+00 -0.00000000000E+00 -0.18791001938E+03  0.18791001938E+03  0.00000000000E+00 0.  1.
         24    2    1    2    0    0  0.50517109250E+02 -0.98977565296E+01 -0.91491528608E+02  0.13118835981E+03  0.78674913615E+02 0.  0.
         23    2    1    2    0    0 -0.17588495359E+02  0.70884017471E+01 -0.31360262888E+02  0.99982513423E+02  0.93023847983E+02 0.  0.
        -13    1    3    3    0    0  0.70456829095E+02  0.24969717842E+01 -0.66949593327E+02  0.97224727723E+02  0.00000000000E+00 0.  1.
         14    1    3    3    0    0 -0.19939719845E+02 -0.12394728314E+02 -0.24541935280E+02  0.33963632090E+02  0.00000000000E+00 0. -1.
        -11    1    4    4    0    0 -0.12001386971E+02  0.33084274474E+02  0.21195425306E+02  0.41083434138E+02  0.00000000000E+00 0. -1.
         11    1    4    4    0    0 -0.55871083880E+01 -0.25995872727E+02 -0.52555688194E+02  0.58899079284E+02  0.00000000000E+00 0.  1.
         -2    1    1    2    0  502 -0.32928613891E+02  0.28093547826E+01  0.14154470425E+02  0.35951844460E+02  0.00000000000E+00 0.  1.
<scales pt_clust_5="13000.00000" pt_clust_6="13000.00000" pt_clust_7="13000.00000" pt_clust_8="13000.00000" pt_clust_9="33.04824"></scales>
<clustering>
<clus scale="   33.048">  1  9  2 -1</clus>
<clus scale="   78.675">  5  6 -1 -1</clus>
<clus scale="   88.016">  2  5  1 -1</clus>
<clus scale="   93.024">  7  8 -1 -1</clus>
<clus scale="   33.048">  1  5  2 -1</clus>
</clustering>
</event>
<event>
 9    2  0.5615294E-005  0.9908604E+02  0.7546771E-02  0.1287835E+00
         21   -1    0    0  501  502  0.00000000000E+00  0.00000000000E+00  0.15735069062E+03  0.15735069062E+03  0.00000000000E+00 0. -1.
          2   -1    0    0  502    0 -0.00000000000E+00 -0.00000000000E+00 -0.19288941815E+03  0.19288941815E+03  0.00000000000E+00 0. -1.
         24    2    1    2    0    0 -0.19324258059E+02  0.21422263486E+02 -0.98076554379E+02  0.13060017363E+03  0.81271486465E+02 0.  0.
         23    2    1    2    0    0  0.26795497568E+02 -0.48450170813E+02 -0.39001969740E+02  0.11429926166E+03  0.92074697021E+02 0.  0.
        -11    1    3    3    0    0 -0.16496135750E+02 -0.17030226289E+02  0.15626987678E+01  0.23761168523E+02  0.00000000000E+00 0.  1.
         12    1    3    3    0    0 -0.28281223092E+01  0.38452489775E+02 -0.99639253147E+02  0.10683900511E+03  0.00000000000E+00 0. -1.
        -13    1    4    4    0    0  0.17610289912E+02 -0.20288955414E+02  0.29359422820E+02  0.39796227597E+02  0.00000000000E+00 0.  1.
         13    1    4    4    0    0  0.91852076552E+01 -0.28161215399E+02 -0.68361392560E+02  0.74503034067E+02  0.00000000000E+00 0. -1.
          1    1    1    2  501    0 -0.74712395085E+01  0.27027907327E+02  0.10153979660E+03  0.10534067347E+03  0.00000000000E+00 0. -1.
<scales pt_clust_5="13000.00000" pt_clust_6="13000.00000" pt_clust_7="13000.00000" pt_clust_8="13000.00000" pt_clust_9="28.04153"></scales>
<clustering>
<clus scale="   28.042">  1  9  2 -1</clus>
<clus scale="   81.271">  5  6 -1 -1</clus>
<clus scale="   89.137">  2  5  1 -1</clus>
<clus scale="   92.075">  7  8 -1 -1</clus>
<clus scale="   28.042">  1  5  2 -1</clus>
</clustering>
</event>
<event>
 9    2  0.5615294E-005  0.9849565E+02  0.7546771E-02  0.1292034E+00
         -1   -1    0    0    0  501 -0.00000000000E+00  0.00000000000E+00  0.25239055575E+03  0.25239055575E+03  0.00000000000E+00 0.  1.
         21   -1    0    0  501  502  0.00000000000E+00 -0.00000000000E+00 -0.67493591814E+02  0.67493591814E+02  0.00000000000E+00 0.  1.
         23    2    1    2    0    0 -0.56952405784E+00  0.21160744813E+02  0.15311790118E+03  0.18138136938E+03  0.94899989548E+02 0.  0.
         24    2    1    2    0    0  0.22830842400E+02 -0.31371586343E+02  0.55398433907E+02  0.10447775398E+03  0.79631594251E+02 0.  0.
        -13    1    4    4    0    0  0.88740959750E+01 -0.49204756214E+02  0.63146098241E+02  0.80543698305E+02  0.00000000000E+00 0.  1.
         14    1    4    4    0    0  0.13956746425E+02  0.17833169872E+02 -0.77476643343E+01  0.23934055675E+02  0.00000000000E+00 0. -1.
        -13    1    3    3    0    0  0.46708961326E+02  0.70303850993E+01  0.64424519491E+02  0.79885368463E+02  0.00000000000E+00 0.  1.
         13    1    3    3    0    0 -0.47278485384E+02  0.14130359714E+02  0.88693381692E+02  0.10149600092E+03  0.00000000000E+00 0. -1.
         -2    1    1    2    0  502 -0.22261318342E+02  0.10210841529E+02 -0.23619371149E+02  0.34025024210E+02  0.00000000000E+00 0.  1.
<scales pt_clust_5="13000.00000" pt_clust_6="13000.00000" pt_clust_7="13000.00000" pt_clust_8="13000.00000" pt_clust_9="24.49138"></scales>
<clustering>
<clus scale="   24.491">  2  9  1 -1</clus>
<clus scale="   79.632">  5  6 -1 -1</clus>
<clus scale="   83.884">  2  5  1 -1</clus>
<clus scale="   94.900">  7  8 -1 -1</clus>
<clus scale="   24.491">  2  5  1 -1</clus>
</clustering>
</event>
<event>
 9    2  0.5615294E-005  0.9550338E+02  0.7546771E-02  0.1294349E+00
          2   -1    0    0  502    0 -0.00000000000E+00  0.00000000000E+00  0.12728086363E+04  0.12728086363E+04  0.00000000000E+00 0. -1.
         21   -1    0    0  501  502  0.00000000000E+00 -0.00000000000E+00 -0.11239072834E+02  0.11239072834E+02  0.00000000000E+00 0. -1.
         24    2    1    2    0    0  0.50662349507E+01 -0.50595870672E+02  0.69089092112E+03  0.69742595625E+03  0.80542477675E+02 0.  0.
         23    2    1    2    0    0 -0.10213167221E+02  0.67733826839E+01  0.32789807427E+03  0.33986416819E+03  0.88545571382E+02 0.  0.
        -11    1    3    3    0    0  0.63557280509E+01 -0.27980384806E+02  0.64136032617E+02  0.70261852329E+02  0.00000000000E+00 0.  1.
         12    1    3    3    0    0 -0.12894931002E+01 -0.22615485866E+02  0.62675488850E+03  0.62716410392E+03  0.00000000000E+00 0. -1.
        -13    1    4    4    0    0  0.33492423189E+02  0.20922618431E+02  0.10275619979E+03  0.11008330922E+03  0.00000000000E+00 0. -1.
         13    1    4    4    0    0 -0.43705590410E+02 -0.14149235747E+02  0.22514187448E+03  0.22978085897E+03  0.00000000000E+00 0.  1.
          1    1    1    2  501    0  0.51469322705E+01  0.43822487988E+02  0.24278056805E+03  0.24675758466E+03  0.00000000000E+00 0. -1.
<scales pt_clust_5="13000.00000" pt_clust_6="13000.00000" pt_clust_7="13000.00000" pt_clust_8="13000.00000" pt_clust_9="44.12373"></scales>
<clustering>
<clus scale="   44.124">  2  9  1 -1</clus>
<clus scale="   80.542">  5  6 -1 -1</clus>
<clus scale="   88.134">  1  5  2 -1</clus>
<clus scale="   88.546">  7  8 -1 -1</clus>
<clus scale="   44.124">  2  5  1 -1</clus>
</clustering>
</event>
<event>
 9    2  0.5615294E-005  0.1309277E+03  0.7546771E-02  0.1232686E+00
          2   -1    0    0  502    0 -0.00000000000E+00  0.00000000000E+00  0.97441750990E+03  0.97441750990E+03  0.00000000000E+00 0. -1.
         21   -1    0    0  501  502  0.00000000000E+00 -0.00000000000E+00 -0.38065573352E+02  0.38065573352E+02  0.00000000000E+00 0.  1.
         24    2    1    2    0    0 -0.44591542614E+02  0.56757403151E+02  0.50321272440E+03  0.51601495802E+03  0.88535769114E+02 0.  0.
         23    2    1    2    0    0  0.65063738086E+02  0.61027779769E+02  0.23002135058E+03  0.26077908054E+03  0.84488029958E+02 0.  0.
        -13    1    3    3    0    0  0.24853112349E+02  0.25497337352E+02  0.21408072088E+03  0.21702153455E+03  0.00000000000E+00 0.  1.
         14    1    3    3    0    0 -0.69444654963E+02  0.31260065799E+02  0.28913200352E+03  0.29899342347E+03  0.00000000000E+00 0. -1.
        -11    1    4    4    0    0  0.34766108225E+02  0.96825124915E+01  0.17810545282E+03  0.18172502759E+03  0.00000000000E+00 0. -1.
         11    1    4    4    0    0  0.30297629861E+02  0.51345267277E+02  0.51915897764E+02  0.79054052949E+02  0.00000000000E+00 0.  1.
          1    1    1    2  501    0 -0.20472195472E+02 -0.11778518292E+03  0.20311786156E+03  0.23568904469E+03  0.00000000000E+00 0. -1.
<scales pt_clust_5="13000.00000" pt_clust_6="13000.00000" pt_clust_7="13000.00000" pt_clust_8="13000.00000" pt_clust_9="100.01928"></scales>
<clustering>
<clus scale="   84.488">  7  8 -1 -1</clus>
<clus scale="   88.536">  5  6 -1 -1</clus>
<clus scale="  114.230">  1  5  2 -1</clus>
<clus scale="  100.019">  2  9  1 -1</clus>
<clus scale="  100.019">  2  5  1 -1</clus>
</clustering>
</event>
<event>
 9    2  0.5615294E-005  0.9819711E+02  0.7546771E-02  0.1287685E+00
         21   -1    0    0  501  502  0.00000000000E+00  0.00000000000E+00  0.77326935498E+02  0.77326935498E+02  0.00000000000E+00 0.  1.
          2   -1    0    0  502    0 -0.00000000000E+00 -0.00000000000E+00 -0.65707533000E+03  0.65707533000E+03  0.00000000000E+00 0. -1.
         24    2    1    2    0    0 -0.41714864917E+02  0.65912134522E+00 -0.54771887340E+03  0.55518801765E+03  0.80605249577E+02 0.  0.
         23    2    1    2    0    0  0.61044867501E+02 -0.17451662264E+02 -0.73188054909E+02  0.13074092183E+03  0.87781893888E+02 0.  0.
        -11    1    3    3    0    0 -0.47694140723E+02  0.25818729003E+02 -0.22538032412E+03  0.23181377941E+03  0.00000000000E+00 0.  1.
         12    1    3    3    0    0  0.59792758065E+01 -0.25159607657E+02 -0.32233854929E+03  0.32337423823E+03  0.00000000000E+00 0. -1.
        -13    1    4    4    0    0  0.60205355636E+02  0.88381205593E+01 -0.91800586642E+01  0.61539180198E+02  0.00000000000E+00 0.  1.
         13    1    4    4    0    0  0.83951186439E+00 -0.26289782824E+02 -0.64007996245E+02  0.69201741628E+02  0.00000000000E+00 0. -1.
          1    1    1    2  501    0 -0.19330002584E+02  0.16792540919E+02  0.41158533812E+02  0.48473326025E+02  0.00000000000E+00 0. -1.
<scales pt_clust_5="13000.00000" pt_clust_6="13000.00000" pt_clust_7="13000.00000" pt_clust_8="13000.00000" pt_clust_9="25.60544"></scales>
<clustering>
<clus scale="   25.605">  1  9  2 -1</clus>
<clus scale="   80.605">  5  6 -1 -1</clus>
<clus scale="   87.782">  7  8 -1 -1</clus>
<clus scale="   91.838">  2  5  1 -1</clus>
<clus scale="   25.605">  1  5  2 -1</clus>
</clustering>
</event>
<event>
 9    2  0.5615294E-005  0.1992260E+03  0.7546771E-02  0.1169794E+00
         21   -1    0    0  501  502  0.00000000000E+00  0.00000000000E+00  0.32056814164E+03  0.32056814164E+03  0.00000000000E+00 0. -1.
          2   -1    0    0  502    0 -0.00000000000E+00 -0.00000000000E+00 -0.66009080625E+03  0.66009080625E+03  0.00000000000E+00 0. -1.
         24    2    1    2    0    0 -0.95037609242E+02 -0.26660702558E+02 -0.53084573312E+03  0.54578767974E+03  0.79649599846E+02 0.  0.
         23    2    1    2    0    0  0.17759810653E+03  0.14258865784E+03  0.14637752365E+03  0.28562104693E+03  0.90996649568E+02 0.  0.
        -13    1    3    3    0    0 -0.19442405562E+02 -0.40435305362E+02 -0.12688789466E+03  0.13458662216E+03  0.00000000000E+00 0.  1.
         14    1    3    3    0    0 -0.75595203680E+02  0.13774602804E+02 -0.40395783846E+03  0.41120105758E+03  0.00000000000E+00 0. -1.
        -11    1    4    4    0    0  0.17748168725E+03  0.11860621154E+03  0.10522583459E+03  0.23799088006E+03  0.00000000000E+00 0. -1.
         11    1    4    4    0    0  0.11641927944E+00  0.23982446302E+02  0.41151689061E+02  0.47630166876E+02  0.00000000000E+00 0.  1.
          1    1    1    2  501    0 -0.82560497286E+02 -0.11592795529E+03  0.44945544851E+02  0.14925022121E+03  0.00000000000E+00 0. -1.
<scales pt_clust_5="13000.00000" pt_clust_6="13000.00000" pt_clust_7="13000.00000" pt_clust_8="13000.00000" pt_clust_9="177.23038"></scales>
<clustering>
<clus scale="   79.650">  5  6 -1 -1</clus>
<clus scale="   90.997">  7  8 -1 -1</clus>
<clus scale="  126.835">  2  5  1 -1</clus>
<clus scale="  177.230">  1  9  2 -1</clus>
<clus scale="  177.230">  1  5  2 -1</clus>
</clustering>
</event>
<event>
 9    2  0.5615294E-005  0.1313502E+03  0.7546771E-02  0.1228267E+00
         21   -1    0    0  501  502  0.00000000000E+00  0.00000000000E+00  0.17568596345E+03  0.17568596345E+03  0.00000000000E+00 0. -1.
          2   -1    0    0  502    0 -0.00000000000E+00 -0.00000000000E+00 -0.51480502890E+03  0.51480502890E+03  0.00000000000E+00 0. -1.
         23    2    1    2    0    0 -0.58732578170E+01 -0.10114336822E+03 -0.39433731286E+03  0.41693759321E+03  0.89836319099E+02 0.  0.
         24    2    1    2    0    0 -0.38895399326E+01  0.81657628829E+02 -0.78596305215E+02  0.13797559582E+03  0.78592550419E+02 0.  0.
        -13    1    4    4    0    0  0.78154428771E+01  0.78118668376E+02 -0.24100293358E+02  0.82124488651E+02  0.00000000000E+00 0.  1.
         14    1    4    4    0    0 -0.11704982810E+02  0.35389604528E+01 -0.54496011857E+02  0.55851107168E+02  0.00000000000E+00 0. -1.
        -13    1    3    3    0    0 -0.46647024715E+02 -0.54144078179E+02 -0.17742469069E+03  0.19127740845E+03  0.00000000000E+00 0.  1.
         13    1    3    3    0    0  0.40773766898E+02 -0.46999290037E+02 -0.21691262217E+03  0.22566018476E+03  0.00000000000E+00 0. -1.
          1    1    1    2  501    0  0.97627977496E+01  0.19485739387E+02  0.13381455262E+03  0.13557780332E+03  0.00000000000E+00 0. -1.
<scales pt_clust_5="13000.00000" pt_clust_6="13000.00000" pt_clust_7="13000.00000" pt_clust_8="13000.00000" pt_clust_9="21.79464"></scales>
<clustering>
<clus scale="   21.795">  1  9  2 -1</clus>
<clus scale="   78.593">  5  6 -1 -1</clus>
<clus scale="   89.836">  7  8 -1 -1</clus>
<clus scale="  123.932">  1  5  2 -1</clus>
<clus scale="   21.795">  1  5  2 -1</clus>
</clustering>
</event>
<event>
 9    2  0.5615294E-005  0.1151709E+03  0.7546771E-02  0.1255937E+00
          2   -1    0    0  502    0 -0.00000000000E+00  0.00000000000E+00  0.62811725569E+03  0.62811725569E+03  0.00000000000E+00 0. -1.
         21   -1    0    0  501  502  0.00000000000E+00 -0.00000000000E+00 -0.58077183093E+02  0.58077183093E+02  0.00000000000E+00 0. -1.
         24    2    1    2    0    0 -0.29993488777E+02 -0.61111422572E+02  0.49655286416E+03  0.50742550651E+03  0.79257065364E+02 0.  0.
         23    2    1    2    0    0 -0.43359030012E+00  0.82813239734E+02  0.45564498170E+02  0.13211645369E+03  0.92306084127E+02 0.  0.
        -11    1    3    3    0    0  0.18642876445E+02 -0.41720217832E+02  0.14600453322E+03  0.15298842159E+03  0.00000000000E+00 0.  1.
         12    1    3    3    0    0 -0.48636365222E+02 -0.19391204739E+02  0.35054833094E+03  0.35443708492E+03  0.00000000000E+00 0. -1.
        -11    1    4    4    0    0  0.22015107131E+02  0.78727636373E+02  0.66358467654E+00  0.81750510796E+02  0.00000000000E+00 0. -1.
         11    1    4    4    0    0 -0.22448697431E+02  0.40856033612E+01  0.44900913494E+02  0.50365942896E+02  0.00000000000E+00 0.  1.
          1    1    1    2  501    0  0.30427079077E+02 -0.21701817162E+02  0.27922710261E+02  0.46652478579E+02  0.00000000000E+00 0. -1.
<scales pt_clust_5="13000.00000" pt_clust_6="13000.00000" pt_clust_7="13000.00000" pt_clust_8="13000.00000" pt_clust_9="37.37347"></scales>
<clustering>
<clus scale="   37.373">  2  9  1 -1</clus>
<clus scale="   79.257">  5  6 -1 -1</clus>
<clus scale="   92.306">  7  8 -1 -1</clus>
<clus scale="  105.003">  1  5  2 -1</clus>
<clus scale="   37.373">  2  5  1 -1</clus>
</clustering>
</event>
<event>
 9    2  0.5615294E-005  0.1179463E+03  0.7546771E-02  0.1248883E+00
         21   -1    0    0  501  502  0.00000000000E+00  0.00000000000E+00  0.33831003142E+02  0.33831003142E+02  0.00000000000E+00 0. -1.
          2   -1    0    0  502    0 -0.00000000000E+00 -0.00000000000E+00 -0.72035226482E+03  0.72035226482E+03  0.00000000000E+00 0. -1.
         23    2    1    2    0    0  0.66714706817E+02 -0.80312327990E+02 -0.39513404275E+03  0.41843164157E+03  0.89739650059E+02 0.  0.
         24    2    1    2    0    0 -0.43943302972E+02  0.14832510497E+02 -0.13668870246E+03  0.16622943218E+03  0.82446379548E+02 0.  0.
        -13    1    4    4    0    0 -0.44100884323E+02  0.70780503039E+01 -0.14682369018E+03  0.15346720429E+03  0.00000000000E+00 0.  1.
         14    1    4    4    0    0  0.15758135103E+00  0.77544601930E+01  0.10134987721E+02  0.12762227896E+02  0.00000000000E+00 0. -1.
        -11    1    3    3    0    0  0.49625605980E+02 -0.93811548761E+02 -0.37119613997E+03  0.38606978875E+03  0.00000000000E+00 0. -1.
         11    1    3    3    0    0  0.17089100837E+02  0.13499220772E+02 -0.23937902778E+02  0.32361852825E+02  0.00000000000E+00 0.  1.
          1    1    1    2  501    0 -0.22771403845E+02  0.65479817493E+02 -0.15469851647E+03  0.16952219421E+03  0.00000000000E+00 0. -1.
<scales pt_clust_5="13000.00000" pt_clust_6="13000.00000" pt_clust_7="13000.00000" pt_clust_8="13000.00000" pt_clust_9="69.32639"></scales>
<clustering>
<clus scale="   69.326">  1  9  2 -1</clus>
<clus scale="   82.446">  5  6 -1 -1</clus>
<clus scale="   89.740">  7  8 -1 -1</clus>
<clus scale="  112.497">  1  5  2 -1</clus>
<clus scale="   69.326">  1  5  2 -1</clus>
</clustering>
</event>
<event>
 9    2  0.5615294E-005  0.9991921E+02  0.7546771E-02  0.1287357E+00
         -1   -1    0    0    0  501 -0.00000000000E+00  0.00000000000E+00  0.23842265107E+03  0.23842265107E+03  0.00000000000E+00 0.  1.
         21   -1    0    0  501  502  0.00000000000E+00 -0.00000000000E+00 -0.77774688111E+02  0.77774688111E+02  0.00000000000E+00 0.  1.
         24    2    1    2    0    0 -0.47762993557E+02 -0.31858662047E+02  0.12653476193E+03  0.15863743152E+03  0.76540909336E+02 0.  0.
         23    2    1    2    0    0  0.24933881535E+02 -0.98725258779E+01  0.50985611302E+02  0.10708874134E+03  0.90273477536E+02 0.  0.
        -11    1    3    3    0    0 -0.58478932995E+02 -0.44950699814E+01  0.51498443050E+02  0.78051783419E+02  0.00000000000E+00 0.  1.
         12    1    3    3    0    0  0.10715939439E+02 -0.27363592065E+02  0.75036318884E+02  0.80585648105E+02  0.00000000000E+00 0. -1.
        -13    1    4    4    0    0  0.92037332346E+01 -0.38910938959E+02  0.60680615947E+02  0.72669849510E+02  0.00000000000E+00 0.  1.
         13    1    4    4    0    0  0.15730148300E+02  0.29038413081E+02 -0.96950046446E+01  0.34418891831E+02  0.00000000000E+00 0. -1.
         -2    1    1    2    0  502  0.22829112022E+02  0.41731187925E+02 -0.16872410273E+02  0.50471166321E+02  0.00000000000E+00 0.  1.
<scales pt_clust_5="13000.00000" pt_clust_6="13000.00000" pt_clust_7="13000.00000" pt_clust_8="13000.00000" pt_clust_9="47.56743"></scales>
<clustering>
<clus scale="   47.567">  2  9  1 -1</clus>
<clus scale="   76.541">  5  6 -1 -1</clus>
<clus scale="   87.710">  1  5  2 -1</clus>
<clus scale="   90.273">  7  8 -1 -1</clus>
<clus scale="   47.567">  2  5  1 -1</clus>
</clustering>
</event>
<event>
 9    2  0.5615294E-005  0.1373314E+03  0.7546771E-02  0.1240327E+00
         -3   -1    0    0    0  501 -0.00000000000E+00  0.00000000000E+00  0.11298456737E+03  0.11298456737E+03  0.00000000000E+00 0.  1.
         21   -1    0    0  501  502  0.00000000000E+00 -0.00000000000E+00 -0.43797878992E+03  0.43797878992E+03  0.00000000000E+00 0.  1.
         24    2    1    2    0    0  0.33051997535E+02 -0.10133597306E+02 -0.69979486384E+02  0.10985389061E+03  0.77302163181E+02 0.  0.
         23    2    1    2    0    0  0.32398379028E+02  0.98216288165E+02 -0.29419857528E+03  0.32458614082E+03  0.90040362536E+02 0.  0.
        -11    1    3    3    0    0  0.29355514253E+02 -0.38328239663E+02 -0.19807106182E+02  0.52183537903E+02  0.00000000000E+00 0.  1.
         12    1    3    3    0    0  0.36964832813E+01  0.28194642358E+02 -0.50172380203E+02  0.57670352709E+02  0.00000000000E+00 0. -1.
        -13    1    4    4    0    0  0.50728158246E+02  0.69360583016E+02 -0.26822242073E+03  0.28165138646E+03  0.00000000000E+00 0.  1.
         13    1    4    4    0    0 -0.18329779218E+02  0.28855705149E+02 -0.25976154558E+02  0.42934754354E+02  0.00000000000E+00 0. -1.
         -4    1    1    2    0  502 -0.65450376563E+02 -0.88082690859E+02  0.39183839121E+02  0.11652332586E+03  0.00000000000E+00 0.  1.
<scales pt_clust_5="13000.00000" pt_clust_6="13000.00000" pt_clust_7="13000.00000" pt_clust_8="13000.00000" pt_clust_9="103.69496"></scales>
<clustering>
<clus scale="   77.302">  5  6 -1 -1</clus>
<clus scale="   84.680">  1  5  2 -1</clus>
<clus scale="   90.040">  7  8 -1 -1</clus>
<clus scale="  103.695">  2  9  1 -1</clus>
<clus scale="  103.695">  2  5  1 -1</clus>
</clustering>
</event>
<event>
 9    2  0.5615294E-005  0.1499412E+03  0.7546771E-02  0.1214584E+00
         -3   -1    0    0    0  501 -0.00000000000E+00  0.00000000000E+00  0.22374137317E+03  0.22374137317E+03  0.00000000000E+00 0.  1.
         21   -1    0    0  501  502  0.00000000000E+00 -0.00000000000E+00 -0.17666524303E+03  0.17666524303E+03  0.00000000000E+00 0. -1.
         24    2    1    2    0    0 -0.11689159884E+02  0.39601636378E+02  0.56180553807E+02  0.12437642762E+03  0.10299667499E+03 0.  0.
         23    2    1    2    0    0  0.52031337215E+02  0.75978406850E+02  0.44552436921E+02  0.14236906352E+03  0.99015414208E+02 0.  0.
        -13    1    3    3    0    0  0.32581284370E+02 -0.15349538408E+01  0.54985585334E+02  0.63932079342E+02  0.00000000000E+00 0.  1.
         14    1    3    3    0    0 -0.44270444254E+02  0.41136590219E+02  0.11949684738E+01  0.60444348280E+02  0.00000000000E+00 0. -1.
        -13    1    4    4    0    0 -0.13729940040E+02 -0.15933134695E+02  0.40159646002E+00  0.21036570881E+02  0.00000000000E+00 0.  1.
         13    1    4    4    0    0  0.65761277255E+02  0.91911541545E+02  0.44150840461E+02  0.12133249263E+03  0.00000000000E+00 0. -1.
         -4    1    1    2    0  502 -0.40342177331E+02 -0.11558004323E+03 -0.53656860590E+02  0.13366112506E+03  0.00000000000E+00 0.  1.
<scales pt_clust_5="13000.00000" pt_clust_6="13000.00000" pt_clust_7="13000.00000" pt_clust_8="13000.00000" pt_clust_9="112.59797"></scales>
<clustering>
<clus scale="   99.015">  7  8 -1 -1</clus>
<clus scale="  102.997">  5  6 -1 -1</clus>
<clus scale="  110.965">  1  5  2 -1</clus>
<clus scale="  112.598">  2  9  1 -1</clus>
<clus scale="  112.598">  2  5  1 -1</clus>
</clustering>
</event>
<event>
 9    2  0.7146746E-005  0.2433682E+03  0.7546771E-02  0.1160269E+00
          2   -1    0    0  502    0 -0.00000000000E+00  0.00000000000E+00  0.94432613264E+03  0.94432613264E+03  0.00000000000E+00 0. -1.
         21   -1    0    0  501  502  0.00000000000E+00 -0.00000000000E+00 -0.87704644543E+02  0.87704644543E+02  0.00000000000E+00 0. -1.
         24    2    1    2    0    0 -0.55213133661E+00 -0.33688455190E+02  0.17921937045E+03  0.19908153193E+03  0.79866493284E+02 0.  0.
         23    2    1    2    0    0 -0.59882730933E+02 -0.20431652282E+03  0.25503269166E+03  0.34438535574E+03  0.90710619380E+02 0.  0.
        -11    1    3    3    0    0  0.19207634368E+02  0.16448148264E+02  0.24356269826E+02  0.35109865838E+02  0.00000000000E+00 0.  1.
         12    1    3    3    0    0 -0.19759765705E+02 -0.50136603454E+02  0.15486310062E+03  0.16397166609E+03  0.00000000000E+00 0. -1.
        -11    1    4    4    0    0 -0.24953920134E+02 -0.95721211206E+00  0.31081434492E+02  0.39870665347E+02  0.00000000000E+00 0.  1.
         11    1    4    4    0    0 -0.34928810798E+02 -0.20335931071E+03  0.22395125717E+03  0.30451469039E+03  0.00000000000E+00 0. -1.
          1    1    1    2  501    0  0.60434862269E+02  0.23800497801E+03  0.42236942599E+03  0.48856388952E+03  0.00000000000E+00 0. -1.
<scales pt_clust_5="13000.00000" pt_clust_6="13000.00000" pt_clust_7="13000.00000" pt_clust_8="13000.00000" pt_clust_9="225.83119"></scales>
<clustering>
<clus scale="   79.866">  5  6 -1 -1</clus>
<clus scale="   86.683">  1  5  2 -1</clus>
<clus scale="   90.711">  7  8 -1 -1</clus>
<clus scale="  225.831">  2  9  1 -1</clus>
<clus scale="  225.831">  2  5  1 -1</clus>
</clustering>
</event>
<event>
 9    2  0.5615294E-005  0.1159102E+03  0.7546771E-02  0.1252567E+00
         -1   -1    0    0    0  501 -0.00000000000E+00  0.00000000000E+00  0.46801591699E+03  0.46801591699E+03  0.00000000000E+00 0.  1.
         21   -1    0    0  501  502  0.00000000000E+00 -0.00000000000E+00 -0.70398122395E+02  0.70398122395E+02  0.00000000000E+00 0.  1.
         24    2    1    2    0    0  0.63246932057E+01 -0.66671632012E+02  0.17680448856E+03  0.20592191059E+03  0.81602069991E+02 0.  0.
         23    2    1    2    0    0 -0.93257044520E+02  0.54392806560E+02  0.19664039391E+03  0.24142988118E+03  0.89249589654E+02 0.  0.
        -13    1    3    3    0    0 -0.28406081378E+02 -0.29659618133E+02  0.13192772719E+03  0.13817207970E+03  0.00000000000E+00 0.  1.
         14    1    3    3    0    0  0.34730774584E+02 -0.37012013879E+02  0.44876761369E+02  0.67749830890E+02  0.00000000000E+00 0. -1.
        -13    1    4    4    0    0 -0.78871775678E+02  0.16661579718E+02  0.64449602277E+02  0.10320909103E+03  0.00000000000E+00 0.  1.
         13    1    4    4    0    0 -0.14385268842E+02  0.37731226842E+02  0.13219079163E+03  0.13822079015E+03  0.00000000000E+00 0. -1.
         -2    1    1    2    0  502  0.86932351314E+02  0.12278825453E+02  0.24172912126E+02  0.91062247612E+02  0.00000000000E+00 0.  1.
<scales pt_clust_5="13000.00000" pt_clust_6="13000.00000" pt_clust_7="13000.00000" pt_clust_8="13000.00000" pt_clust_9="87.79523"></scales>
<clustering>
<clus scale="   81.602">  5  6 -1 -1</clus>
<clus scale="   87.795">  2  9  1 -1</clus>
<clus scale="   89.250">  7  8 -1 -1</clus>
<clus scale="  110.130">  1  5  2 -1</clus>
<clus scale="   87.795">  2  5  1 -1</clus>
</clustering>
</event>
<event>
 9    2  0.5615294E-005  0.2172160E+03  0.7546771E-02  0.1150669E+00
          2   -1    0    0  502    0 -0.00000000000E+00  0.00000000000E+00  0.39383141367E+03  0.39383141367E+03  0.00000000000E+00 0. -1.
         21   -1    0    0  501  502  0.00000000000E+00 -0.00000000000E+00 -0.24454918016E+03  0.24454918016E+03  0.00000000000E+00 0. -1.
         24    2    1    2    0    0 -0.10091060436E+03  0.78994017837E+02  0.51987388591E+02  0.16132159640E+03  0.83060002202E+02 0.  0.
         23    2    1    2    0    0  0.25946128389E+03 -0.11910157941E+03  0.94066785101E+02  0.31348224222E+03  0.88978716954E+02 0.  0.
        -13    1    3    3    0    0 -0.56491611299E+02  0.78088597759E+02  0.47843564138E+01  0.96498815088E+02  0.00000000000E+00 0.  1.
         14    1    3    3    0    0 -0.44418993062E+02  0.90542007775E+00  0.47203032178E+02  0.64822781311E+02  0.00000000000E+00 0. -1.
        -13    1    4    4    0    0  0.10591704569E+03 -0.38612616311E+01  0.46239065339E+02  0.11563468802E+03  0.00000000000E+00 0.  1.
         13    1    4    4    0    0  0.15354423820E+03 -0.11524031778E+03  0.47827719762E+02  0.19784755420E+03  0.00000000000E+00 0. -1.
          1    1    1    2  501    0 -0.15855067953E+03  0.40107561572E+02  0.32280598091E+01  0.16357675521E+03  0.00000000000E+00 0. -1.
<scales pt_clust_5="13000.00000" pt_clust_6="13000.00000" pt_clust_7="13000.00000" pt_clust_8="13000.00000" pt_clust_9="198.15540"></scales>
<clustering>
<clus scale="   83.060">  5  6 -1 -1</clus>
<clus scale="   88.979">  7  8 -1 -1</clus>
<clus scale="  152.715">  1  5  2 -1</clus>
<clus scale="  198.155">  2  9  1 -1</clus>
<clus scale="  198.155">  2  5  1 -1</clus>
</clustering>
</event>
<event>
 9    2  0.5615294E-005  0.1659741E+03  0.7546771E-02  0.1183752E+00
         21   -1    0    0  501  502  0.00000000000E+00  0.00000000000E+00  0.88747857487E+02  0.88747857487E+02  0.00000000000E+00 0.  1.
          2   -1    0    0  502    0 -0.00000000000E+00 -0.00000000000E+00 -0.37671886572E+03  0.37671886572E+03  0.00000000000E+00 0. -1.
         23    2    1    2    0    0  0.44132308368E+02  0.12135581906E+03 -0.15550400599E+03  0.22156006427E+03  0.90732963896E+02 0.  0.
         24    2    1    2    0    0 -0.40879514971E+02 -0.14583145431E+03 -0.13666742291E+03  0.21886108209E+03  0.79273204533E+02 0.  0.
        -13    1    4    4    0    0 -0.40254233073E+02 -0.65863938859E+02 -0.24267834781E+02  0.80915941120E+02  0.00000000000E+00 0.  1.
         14    1    4    4    0    0 -0.62528189812E+00 -0.79967515455E+02 -0.11239958813E+03  0.13794514097E+03  0.00000000000E+00 0. -1.
        -11    1    3    3    0    0 -0.28245978869E+02  0.29139311160E+02 -0.38913637623E+02  0.56224602891E+02  0.00000000000E+00 0. -1.
         11    1    3    3    0    0  0.72378287237E+02  0.92216507904E+02 -0.11659036837E+03  0.16533546138E+03  0.00000000000E+00 0.  1.
          1    1    1    2  501    0 -0.32527933968E+01  0.24475635250E+02  0.42004206704E+01  0.25045576847E+02  0.00000000000E+00 0. -1.
<scales pt_clust_5="13000.00000" pt_clust_6="13000.00000" pt_clust_7="13000.00000" pt_clust_8="13000.00000" pt_clust_9="24.69084"></scales>
<clustering>
<clus scale="   24.691">  1  9  2 -1</clus>
<clus scale="   79.273">  5  6 -1 -1</clus>
<clus scale="   90.733">  7  8 -1 -1</clus>
<clus scale="  159.997">  1  5  2 -1</clus>
<clus scale="   24.691">  1  5  2 -1</clus>
</clustering>
</event>
<event>
 9    2  0.5615294E-005  0.1290204E+03  0.7546771E-02  0.1231363E+00
         21   -1    0    0  501  502  0.00000000000E+00  0.00000000000E+00  0.14481781184E+02  0.14481781184E+02  0.00000000000E+00 0. -1.
          2   -1    0    0  502    0 -0.00000000000E+00 -0.00000000000E+00 -0.15555004503E+04  0.15555004503E+04  0.00000000000E+00 0. -1.
         24    2    1    2    0    0 -0.72966771459E+02 -0.75121919884E+02 -0.76993602568E+03  0.78140711255E+03  0.82632556074E+02 0.  0.
         23    2    1    2    0    0  0.70478779556E+02  0.31467330035E+02 -0.51461279092E+03  0.52840460068E+03  0.91802212453E+02 0.  0.
        -11    1    3    3    0    0 -0.10307238205E+02 -0.17329986520E+02 -0.27534457473E+02  0.34127905598E+02  0.00000000000E+00 0.  1.
         12    1    3    3    0    0 -0.62659533254E+02 -0.57791933364E+02 -0.74240156821E+03  0.74727920696E+03  0.00000000000E+00 0. -1.
        -13    1    4    4    0    0 -0.31619106400E+01  0.44514395072E+02 -0.21675589760E+03  0.22130216491E+03  0.00000000000E+00 0.  1.
         13    1    4    4    0    0  0.73640690196E+02 -0.13047065038E+02 -0.29785689332E+03  0.30710243577E+03  0.00000000000E+00 0. -1.
          1    1    1    2  501    0  0.24879919027E+01  0.43654589850E+02 -0.25646985250E+03  0.26017051824E+03  0.00000000000E+00 0. -1.
<scales pt_clust_5="13000.00000" pt_clust_6="13000.00000" pt_clust_7="13000.00000" pt_clust_8="13000.00000" pt_clust_9="43.72545"></scales>
<clustering>
<clus scale="   43.725">  1  9  2 -1</clus>
<clus scale="   82.633">  5  6 -1 -1</clus>
<clus scale="   91.802">  7  8 -1 -1</clus>
<clus scale="  122.665">  2  5  1 -1</clus>
<clus scale="   43.725">  1  5  2 -1</clus>
</clustering>
</event>
<event>
 9    2  0.5615294E-005  0.1017788E+03  0.7546771E-02  0.1281059E+00
          2   -1    0    0  502    0 -0.00000000000E+00  0.00000000000E+00  0.40961638083E+03  0.40961638083E+03  0.00000000000E+00 0. -1.
         21   -1    0    0  501  502  0.00000000000E+00 -0.00000000000E+00 -0.11310659735E+03  0.11310659735E+03  0.00000000000E+00 0. -1.
         24    2    1    2    0    0 -0.15066659204E+02  0.42082942552E+02  0.34681254362E+03  0.35927721316E+03  0.82481496160E+02 0.  0.
         23    2    1    2    0    0  0.51732115094E+02 -0.16430720962E+02 -0.52069847472E+02  0.11866279141E+03  0.91779130117E+02 0.  0.
        -11    1    3    3    0    0  0.16996414096E+02  0.44064526047E+02  0.10244885760E+03  0.11281103213E+03  0.00000000000E+00 0.  1.
         12    1    3    3    0    0 -0.32063073300E+02 -0.19815834949E+01  0.24436368602E+03  0.24646618102E+03  0.00000000000E+00 0. -1.
        -13    1    4    4    0    0  0.69622669494E+02 -0.26974406765E+02 -0.60649331770E+02  0.96193950807E+02  0.00000000000E+00 0.  1.
         13    1    4    4    0    0 -0.17890554400E+02  0.10543685803E+02  0.85794842982E+01  0.22468840599E+02  0.00000000000E+00 0. -1.
          1    1    1    2  501    0 -0.36665455890E+02 -0.25652221590E+02  0.17670873323E+01  0.44782973615E+02  0.00000000000E+00 0. -1.
<scales pt_clust_5="13000.00000" pt_clust_6="13000.00000" pt_clust_7="13000.00000" pt_clust_8="13000.00000" pt_clust_9="44.74810"></scales>
<clustering>
<clus scale="   44.748">  2  9  1 -1</clus>
<clus scale="   82.481">  5  6 -1 -1</clus>
<clus scale="   91.779">  7  8 -1 -1</clus>
<clus scale="   93.481">  1  5  2 -1</clus>
<clus scale="   44.748">  2  5  1 -1</clus>
</clustering>
</event>
<event>
 9    2  0.5615294E-005  0.9615451E+02  0.7546771E-02  0.1297765E+00
          2   -1    0    0  502    0 -0.00000000000E+00  0.00000000000E+00  0.86749146543E+02  0.86749146543E+02  0.00000000000E+00 0. -1.
         21   -1    0    0  501  502  0.00000000000E+00 -0.00000000000E+00 -0.14492498307E+03  0.14492498307E+03  0.00000000000E+00 0.  1.
         23    2    1    2    0    0  0.11448978973E+02 -0.12017058337E+02  0.16736896388E+02  0.98728473362E+02  0.95873348440E+02 0.  0.
         24    2    1    2    0    0  0.87427448356E+01 -0.70699326883E+01 -0.61458451079E+02  0.10207436479E+03  0.80719360769E+02 0.  0.
        -13    1    4    4    0    0  0.38936006741E+02  0.14719089097E+02 -0.45195250628E+02  0.61443265572E+02  0.00000000000E+00 0.  1.
         14    1    4    4    0    0 -0.30193261905E+02 -0.21789021785E+02 -0.16263200450E+02  0.40631099219E+02  0.00000000000E+00 0. -1.
        -11    1    3    3    0    0 -0.38530628172E+02  0.74620134898E+01  0.21720488687E+02  0.44856109744E+02  0.00000000000E+00 0. -1.
         11    1    3    3    0    0  0.49979607144E+02 -0.19479071827E+02 -0.49835922991E+01  0.53872363618E+02  0.00000000000E+00 0.  1.
          1    1    1    2  501    0 -0.20191723808E+02  0.19086991025E+02 -0.13454281837E+02  0.30871291461E+02  0.00000000000E+00 0. -1.
<scales pt_clust_5="13000.00000" pt_clust_6="13000.00000" pt_clust_7="13000.00000" pt_clust_8="13000.00000" pt_clust_9="27.78523"></scales>
<clustering>
<clus scale="   27.785">  2  9  1 -1</clus>
<clus scale="   80.719">  5  6 -1 -1</clus>
<clus scale="   81.053">  2  5  1 -1</clus>
<clus scale="   95.873">  7  8 -1 -1</clus>
<clus scale="   27.785">  2  5  1 -1</clus>
</clustering>
</event>
<event>
 9    2  0.5615294E-005  0.1120099E+03  0.7546771E-02  0.1262101E+00
         21   -1    0    0  501  502  0.00000000000E+00  0.00000000000E+00  0.21139474898E+03  0.21139474898E+03  0.00000000000E+00 0. -1.
         -1   -1    0    0    0  501 -0.00000000000E+00 -0.00000000000E+00 -0.15762182977E+03  0.15762182977E+03  0.00000000000E+00 0.  1.
         24    2    1    2    0    0 -0.84604450206E+01  0.66958445849E+02 -0.62288261527E+02  0.12083530837E+03  0.78525993306E+02 0.  0.
         23    2    1    2    0    0  0.81619410041E+01 -0.39716499533E+02  0.16435255848E+03  0.19273517124E+03  0.92146975743E+02 0.  0.
        -11    1    3    3    0    0  0.30197780020E+02  0.51920267147E+01 -0.19910478239E+02  0.36541622888E+02  0.00000000000E+00 0.  1.
         12    1    3    3    0    0 -0.38658225041E+02  0.61766419135E+02 -0.42377783287E+02  0.84293685483E+02  0.00000000000E+00 0. -1.
        -11    1    4    4    0    0  0.43654468680E+02 -0.20782986000E+02  0.42357901830E+02  0.64279366754E+02  0.00000000000E+00 0.  1.
         11    1    4    4    0    0 -0.35492527676E+02 -0.18933513533E+02  0.12199465665E+03  0.12845580449E+03  0.00000000000E+00 0. -1.
         -2    1    1    2    0  502  0.29850401653E+00 -0.27241946316E+02 -0.48291377745E+02  0.55446099126E+02  0.00000000000E+00 0.  1.
<scales pt_clust_5="13000.00000" pt_clust_6="13000.00000" pt_clust_7="13000.00000" pt_clust_8="13000.00000" pt_clust_9="27.24360"></scales>
<clustering>
<clus scale="   27.244">  1  9  2 -1</clus>
<clus scale="   78.526">  5  6 -1 -1</clus>
<clus scale="   92.147">  7  8 -1 -1</clus>
<clus scale="  101.101">  2  5  1 -1</clus>
<clus scale="   27.244">  1  5  2 -1</clus>
</clustering>
</event>
<event>
 9    2  0.5615294E-005  0.1095604E+03  0.7546771E-02  0.1263149E+00
         21   -1    0    0  501  502  0.00000000000E+00  0.00000000000E+00  0.40102360377E+02  0.40102360377E+02  0.00000000000E+00 0. -1.
         -1   -1    0    0    0  501 -0.00000000000E+00 -0.00000000000E+00 -0.62502995710E+03  0.62502995710E+03  0.00000000000E+00 0.  1.
         24    2    1    2    0    0  0.52861804626E+02 -0.44865785345E+02 -0.37795183092E+03  0.39375146795E+03  0.85937901620E+02 0.  0.
         23    2    1    2    0    0 -0.62530714862E+02 -0.18320391806E+02 -0.13601035093E+03  0.17587131641E+03  0.90477496201E+02 0.  0.
        -13    1    3    3    0    0  0.50975055950E+02  0.91875957505E+01 -0.12937205647E+03  0.13935565019E+03  0.00000000000E+00 0.  1.
         14    1    3    3    0    0  0.18867486761E+01 -0.54053381095E+02 -0.24857977445E+03  0.25439581776E+03  0.00000000000E+00 0. -1.
        -13    1    4    4    0    0 -0.60241104067E+02  0.15503443889E+02 -0.12600797209E+03  0.14052528748E+03  0.00000000000E+00 0.  1.
         13    1    4    4    0    0 -0.22896107945E+01 -0.33823835695E+02 -0.10002378844E+02  0.35346028932E+02  0.00000000000E+00 0. -1.
         -2    1    1    2    0  502  0.96689102362E+01  0.63186177151E+02 -0.70965414881E+02  0.95509533123E+02  0.00000000000E+00 0.  1.
<scales pt_clust_5="13000.00000" pt_clust_6="13000.00000" pt_clust_7="13000.00000" pt_clust_8="13000.00000" pt_clust_9="63.92168"></scales>
<clustering>
<clus scale="   63.922">  1  9  2 -1</clus>
<clus scale="   85.938">  5  6 -1 -1</clus>
<clus scale="   90.477">  7  8 -1 -1</clus>
<clus scale="  105.842">  2  5  1 -1</clus>
<clus scale="   63.922">  1  5  2 -1</clus>
</clustering>
</event>
<event>
 9    2  0.5615294E-005  0.9971548E+02  0.7546771E-02  0.1285172E+00
         21   -1    0    0  501  502  0.00000000000E+00  0.00000000000E+00  0.52577580931E+02  0.52577580931E+02  0.00000000000E+00 0.  1.
          2   -1    0    0  502    0 -0.00000000000E+00 -0.00000000000E+00 -0.34667613939E+03  0.34667613939E+03  0.00000000000E+00 0. -1.
         23    2    1    2    0    0 -0.26882398271E+02  0.20061112205E+02 -0.21721508448E+03  0.23757933829E+03  0.90202203387E+02 0.  0.
         24    2    1    2    0    0  0.53155814879E+02 -0.40991344811E+02 -0.71771080808E+02  0.12769639473E+03  0.81544160923E+02 0.  0.
        -13    1    4    4    0    0  0.10738568803E+02 -0.18999299803E+02  0.16475943055E+02  0.27344962105E+02  0.00000000000E+00 0.  1.
         14    1    4    4    0    0  0.42417246076E+02 -0.21992045007E+02 -0.88247023864E+02  0.10035143262E+03  0.00000000000E+00 0. -1.
        -11    1    3    3    0    0 -0.52288536209E+02  0.42367819244E+01 -0.19005463124E+03  0.19716187308E+03  0.00000000000E+00 0. -1.
         11    1    3    3    0    0  0.25406137938E+02  0.15824330281E+02 -0.27160453241E+02  0.40417465211E+02  0.00000000000E+00 0.  1.
          1    1    1    2  501    0 -0.26273416608E+02  0.20930232606E+02 -0.51123931626E+01  0.33977987301E+02  0.00000000000E+00 0. -1.
<scales pt_clust_5="13000.00000" pt_clust_6="13000.00000" pt_clust_7="13000.00000" pt_clust_8="13000.00000" pt_clust_9="33.59118"></scales>
<clustering>
<clus scale="   33.591">  1  9  2 -1</clus>
<clus scale="   81.544">  5  6 -1 -1</clus>
<clus scale="   90.202">  7  8 -1 -1</clus>
<clus scale="   91.958">  1  5  2 -1</clus>
<clus scale="   33.591">  1  5  2 -1</clus>
</clustering>
</event>
<event>
 9    2  0.5615294E-005  0.1059593E+03  0.7546771E-02  0.1270718E+00
          4   -1    0    0  502    0 -0.00000000000E+00  0.00000000000E+00  0.47412155400E+03  0.47412155400E+03  0.00000000000E+00 0. -1.
         21   -1    0    0  501  502  0.00000000000E+00 -0.00000000000E+00 -0.40145085378E+02  0.40145085378E+02  0.00000000000E+00 0.  1.
         24    2    1    2    0    0  0.33013578737E+02 -0.49254039932E+02  0.32515923113E+03  0.34076828569E+03  0.82937579637E+02 0.  0.
         23    2    1    2    0    0 -0.69566965002E+01  0.56084888315E+02  0.70904766150E+02  0.12699053622E+03  0.88911192232E+02 0.  0.
        -13    1    3    3    0    0  0.18642836282E+02  0.74540916514E+01  0.14798545659E+02  0.24942248909E+02  0.00000000000E+00 0.  1.
         14    1    3    3    0    0  0.14370742455E+02 -0.56708131584E+02  0.31036068547E+03  0.31582603678E+03  0.00000000000E+00 0. -1.
        -11    1    4    4    0    0  0.49861782121E+00  0.75105345856E+02  0.29261067018E+02  0.80605655130E+02  0.00000000000E+00 0.  1.
         11    1    4    4    0    0 -0.74553143214E+01 -0.19020457541E+02  0.41643699132E+02  0.46384881093E+02  0.00000000000E+00 0. -1.
          3    1    1    2  501    0 -0.26056882237E+02 -0.68308483832E+01  0.37912471344E+02  0.46507817460E+02  0.00000000000E+00 0. -1.
<scales pt_clust_5="13000.00000" pt_clust_6="13000.00000" pt_clust_7="13000.00000" pt_clust_8="13000.00000" pt_clust_9="26.93736"></scales>
<clustering>
<clus scale="   26.937">  2  9  1 -1</clus>
<clus scale="   82.938">  5  6 -1 -1</clus>
<clus scale="   88.911">  7  8 -1 -1</clus>
<clus scale="  100.999">  1  5  2 -1</clus>
<clus scale="   26.937">  2  5  1 -1</clus>
</clustering>
</event>
<event>
 9    2  0.5615294E-005  0.9314272E+02  0.7546771E-02  0.1302879E+00
         21   -1    0    0  501  502  0.00000000000E+00  0.00000000000E+00  0.43850746684E+02  0.43850746684E+02  0.00000000000E+00 0. -1.
          2   -1    0    0  502    0 -0.00000000000E+00 -0.00000000000E+00 -0.40566549523E+03  0.40566549523E+03  0.00000000000E+00 0. -1.
         24    2    1    2    0    0  0.15977324876E+02 -0.46077077740E+01 -0.23215457284E+03  0.24567207430E+03  0.78628980141E+02 0.  0.
         23    2    1    2    0    0 -0.93925833016E+00  0.53203666294E+02 -0.98160012329E+02  0.14401130939E+03  0.90952498039E+02 0.  0.
        -13    1    3    3    0    0  0.28926730257E+02 -0.12709774921E+02 -0.32120950571E+02  0.45056071372E+02  0.00000000000E+00 0.  1.
         14    1    3    3    0    0 -0.12949405380E+02  0.81020671470E+01 -0.20003362227E+03  0.20061600293E+03  0.00000000000E+00 0. -1.
        -13    1    4    4    0    0 -0.22322824613E+02 -0.89755364965E+01 -0.67115500907E+02  0.71297680299E+02  0.00000000000E+00 0.  1.
         13    1    4    4    0    0  0.21383566283E+02  0.62179202791E+02 -0.31044511422E+02  0.72713629094E+02  0.00000000000E+00 0. -1.
          1    1    1    2  501    0 -0.15038066546E+02 -0.48595958520E+02 -0.31500163371E+02  0.59832858216E+02  0.00000000000E+00 0. -1.
<scales pt_clust_5="13000.00000" pt_clust_6="13000.00000" pt_clust_7="13000.00000" pt_clust_8="13000.00000" pt_clust_9="50.86955"></scales>
<clustering>
<clus scale="   50.870">  1  9  2 -1</clus>
<clus scale="   78.629">  5  6 -1 -1</clus>
<clus scale="   81.152">  2  5  1 -1</clus>
<clus scale="   90.952">  7  8 -1 -1</clus>
<clus scale="   50.870">  1  5  2 -1</clus>
</clustering>
</event>
<event>
 9    2  0.5615294E-005  0.1626208E+03  0.7546771E-02  0.1213783E+00
         21   -1    0    0  501  502  0.00000000000E+00  0.00000000000E+00  0.12503459093E+03  0.12503459093E+03  0.00000000000E+00 0. -1.
          2   -1    0    0  502    0 -0.00000000000E+00 -0.00000000000E+00 -0.48651043491E+03  0.48651043491E+03  0.00000000000E+00 0. -1.
         24    2    1    2    0    0  0.37726011841E+01  0.28777573772E+02 -0.23073637381E+03  0.24711607709E+03  0.83574518164E+02 0.  0.
         23    2    1    2    0    0 -0.95559035455E+02  0.85902270129E+02  0.12833658174E+02  0.15902822018E+03  0.92814561141E+02 0.  0.
        -11    1    3    3    0    0 -0.39568044621E+00  0.50030742868E+02 -0.21392834303E+03  0.21970108727E+03  0.00000000000E+00 0.  1.
         12    1    3    3    0    0  0.41682816303E+01 -0.21253169096E+02 -0.16808030779E+02  0.27414989824E+02  0.00000000000E+00 0. -1.
        -11    1    4    4    0    0 -0.89236954697E+02  0.23228414986E+02  0.23455584470E+02  0.95147032477E+02  0.00000000000E+00 0. -1.
         11    1    4    4    0    0 -0.63220807587E+01  0.62673855143E+02 -0.10621926296E+02  0.63881187699E+02  0.00000000000E+00 0.  1.
          1    1    1    2  501    0  0.91786434271E+02 -0.11467984390E+03 -0.14357312835E+03  0.20540072857E+03  0.00000000000E+00 0. -1.
<scales pt_clust_5="13000.00000" pt_clust_6="13000.00000" pt_clust_7="13000.00000" pt_clust_8="13000.00000" pt_clust_9="133.53282"></scales>
<clustering>
<clus scale="   83.575">  5  6 -1 -1</clus>
<clus scale="   88.471">  2  5  1 -1</clus>
<clus scale="   92.815">  7  8 -1 -1</clus>
<clus scale="  133.533">  1  9  2 -1</clus>
<clus scale="  133.533">  1  5  2 -1</clus>
</clustering>
</event>
<event>
 9    2  0.5615294E-005  0.2164931E+03  0.7546771E-02  0.1167678E+00
          2   -1    0    0  502    0 -0.00000000000E+00  0.00000000000E+00  0.15993015683E+04  0.15993015683E+04  0.00000000000E+00 0. -1.
         21   -1    0    0  501  502  0.00000000000E+00 -0.00000000000E+00 -0.45945057552E+02  0.45945057552E+02  0.00000000000E+00 0. -1.
         23    2    1    2    0    0  0.15813349281E+02 -0.45033172151E+02  0.20525046125E+03  0.22998411714E+03  0.92124338187E+02 0.  0.
         24    2    1    2    0    0 -0.20332013098E+03  0.84569254742E+02  0.84809122656E+03  0.87978448099E+03  0.79189455784E+02 0.  0.
        -13    1    4    4    0    0 -0.12283552994E+03  0.11165055913E+02  0.39652317842E+03  0.41526359932E+03  0.00000000000E+00 0.  1.
         14    1    4    4    0    0 -0.80484601035E+02  0.73404198829E+02  0.45156804814E+03  0.46452088167E+03  0.00000000000E+00 0. -1.
        -13    1    3    3    0    0  0.29601256047E+02  0.83935856025E+01  0.14523663911E+03  0.14845998780E+03  0.00000000000E+00 0.  1.
         13    1    3    3    0    0 -0.13787906766E+02 -0.53426757754E+02  0.60013822141E+02  0.81524129342E+02  0.00000000000E+00 0. -1.
          1    1    1    2  501    0  0.18750678170E+03 -0.39536082591E+02  0.50001482290E+03  0.53547802769E+03  0.00000000000E+00 0. -1.
<scales pt_clust_5="13000.00000" pt_clust_6="13000.00000" pt_clust_7="13000.00000" pt_clust_8="13000.00000" pt_clust_9="201.49016"></scales>
<clustering>
<clus scale="   79.189">  5  6 -1 -1</clus>
<clus scale="   92.124">  7  8 -1 -1</clus>
<clus scale="  103.754">  1  7  2 -1</clus>
<clus scale="  201.490">  2  9  1 -1</clus>
<clus scale="  201.490">  2  5  1 -1</clus>
</clustering>
</event>
<event>
 9    2  0.5615294E-005  0.9958418E+02  0.7546771E-02  0.1285947E+00
         21   -1    0    0  501  502  0.00000000000E+00  0.00000000000E+00  0.37902147290E+03  0.37902147290E+03  0.00000000000E+00 0.  1.
          4   -1    0    0  502    0 -0.00000000000E+00 -0.00000000000E+00 -0.34748421194E+02  0.34748421194E+02  0.00000000000E+00 0. -1.
         24    2    1    2    0    0  0.40778088051E+02 -0.13373518132E+02  0.79884383993E+02  0.12116777615E+03  0.80364244035E+02 0.  0.
         23    2    1    2    0    0 -0.30564468205E+02  0.35130641619E+02  0.21412248979E+03  0.23688516275E+03  0.89987726944E+02 0.  0.
        -11    1    3    3    0    0 -0.19446651141E+02  0.14546401833E+02  0.16312783557E+02  0.29255374793E+02  0.00000000000E+00 0.  1.
         12    1    3    3    0    0  0.60224739192E+02 -0.27919919965E+02  0.63571600436E+02  0.91912401359E+02  0.00000000000E+00 0. -1.
        -11    1    4    4    0    0 -0.23490986515E+02 -0.27799737235E+02  0.58845491908E+02  0.69191356076E+02  0.00000000000E+00 0.  1.
         11    1    4    4    0    0 -0.70734816900E+01  0.62930378854E+02  0.15527699788E+03  0.16769380668E+03  0.00000000000E+00 0. -1.
          3    1    1    2  501    0 -0.10213619846E+02 -0.21757123487E+02  0.50266177923E+02  0.55716955191E+02  0.00000000000E+00 0. -1.
<scales pt_clust_5="13000.00000" pt_clust_6="13000.00000" pt_clust_7="13000.00000" pt_clust_8="13000.00000" pt_clust_9="24.03519"></scales>
<clustering>
<clus scale="   24.035">  1  9  2 -1</clus>
<clus scale="   80.364">  5  6 -1 -1</clus>
<clus scale="   89.988">  7  8 -1 -1</clus>
<clus scale="   90.981">  2  5  1 -1</clus>
<clus scale="   24.035">  1  5  2 -1</clus>
</clustering>
</event>
<event>
 9    2  0.5615294E-005  0.1253846E+03  0.7546771E-02  0.1241816E+00
         21   -1    0    0  501  502  0.00000000000E+00  0.00000000000E+00  0.78920708343E+02  0.78920708343E+02  0.00000000000E+00 0.  1.
          2   -1    0    0  502    0 -0.00000000000E+00 -0.00000000000E+00 -0.24574145891E+03  0.24574145891E+03  0.00000000000E+00 0. -1.
         24    2    1    2    0    0 -0.15062567611E+01 -0.75043582441E+02 -0.11558166187E+03  0.15954318602E+03  0.80380965214E+02 0.  0.
         23    2    1    2    0    0 -0.28967477500E+02  0.64504384129E+02 -0.43204786989E+02  0.13188837509E+03  0.10260584555E+03 0.  0.
        -11    1    3    3    0    0  0.35485633069E+02 -0.16445282146E+02 -0.29247047464E+02  0.48837150249E+02  0.00000000000E+00 0.  1.
         12    1    3    3    0    0 -0.36991889830E+02 -0.58598300295E+02 -0.86334614406E+02  0.11070603577E+03  0.00000000000E+00 0. -1.
        -11    1    4    4    0    0 -0.28933737493E+01  0.76237520756E+02 -0.61457057554E+02  0.97966836765E+02  0.00000000000E+00 0.  1.
         11    1    4    4    0    0 -0.26074103750E+02 -0.11733136627E+02  0.18252270564E+02  0.33921538324E+02  0.00000000000E+00 0. -1.
          1    1    1    2  501    0  0.30473734261E+02  0.10539198312E+02 -0.80343017055E+01  0.33230606145E+02  0.00000000000E+00 0. -1.
<scales pt_clust_5="13000.00000" pt_clust_6="13000.00000" pt_clust_7="13000.00000" pt_clust_8="13000.00000" pt_clust_9="32.24474"></scales>
<clustering>
<clus scale="   32.245">  1  9  2 -1</clus>
<clus scale="   80.381">  5  6 -1 -1</clus>
<clus scale="  102.606">  7  8 -1 -1</clus>
<clus scale="  107.956">  2  5  1 -1</clus>
<clus scale="   32.245">  1  5  2 -1</clus>
</clustering>
</event>
<event>
 9    2  0.5615294E-005  0.1150788E+03  0.7546771E-02  0.1255127E+00
          2   -1    0    0  502    0 -0.00000000000E+00  0.00000000000E+00  0.71995505257E+03  0.71995505257E+03  0.00000000000E+00 0. -1.
         21   -1    0    0  501  502  0.00000000000E+00 -0.00000000000E+00 -0.46520615005E+03  0.46520615005E+03  0.00000000000E+00 0. -1.
         24    2    1    2    0    0 -0.38544517653E+02  0.58343589361E+02  0.69215001749E+03  0.70037319334E+03  0.81001907223E+02 0.  0.
         23    2    1    2    0    0 -0.63642286795E+01 -0.83130295540E+02 -0.15790672929E+03  0.20062557700E+03  0.91460032513E+02 0.  0.
        -13    1    3    3    0    0  0.14413279464E+02  0.50293789388E+02  0.29144646314E+03  0.29610513125E+03  0.00000000000E+00 0.  1.
         14    1    3    3    0    0 -0.52957797117E+02  0.80497999731E+01  0.40070355435E+03  0.40426806208E+03  0.00000000000E+00 0. -1.
        -11    1    4    4    0    0  0.41778678208E+02 -0.28127968012E+02 -0.71317674166E+02  0.87308941041E+02  0.00000000000E+00 0.  1.
         11    1    4    4    0    0 -0.48142906888E+02 -0.55002327528E+02 -0.86589055127E+02  0.11331663596E+03  0.00000000000E+00 0. -1.
          1    1    1    2  501    0  0.44908746333E+02  0.24786706179E+02 -0.27949438567E+03  0.28416243228E+03  0.00000000000E+00 0. -1.
<scales pt_clust_5="13000.00000" pt_clust_6="13000.00000" pt_clust_7="13000.00000" pt_clust_8="13000.00000" pt_clust_9="51.29499"></scales>
<clustering>
<clus scale="   51.295">  2  9  1 -1</clus>
<clus scale="   81.002">  5  6 -1 -1</clus>
<clus scale="   91.460">  7  8 -1 -1</clus>
<clus scale="  106.956">  1  5  2 -1</clus>
<clus scale="   51.295">  2  5  1 -1</clus>
</clustering>
</event>
<event>
 9    2  0.5615294E-005  0.1056060E+03  0.7546771E-02  0.1282321E+00
          2   -1    0    0  502    0 -0.00000000000E+00  0.00000000000E+00  0.24845398089E+03  0.24845398089E+03  0.00000000000E+00 0. -1.
         21   -1    0    0  501  502  0.00000000000E+00 -0.00000000000E+00 -0.91968390981E+02  0.91968390981E+02  0.00000000000E+00 0. -1.
         24    2    1    2    0    0  0.98844546864E+01  0.67775307104E+02  0.12711514168E+03  0.15532296969E+03  0.57234351323E+02 0.  0.
         23    2    1    2    0    0  0.44917372135E+02 -0.35244661889E+02  0.52449819072E+02  0.11731931322E+03  0.88051582736E+02 0.  0.
        -13    1    3    3    0    0  0.24421760416E+02  0.77057975560E+01  0.23955517061E+02  0.35066629371E+02  0.00000000000E+00 0.  1.
         14    1    3    3    0    0 -0.14537305730E+02  0.60069509548E+02  0.10315962462E+03  0.12025634032E+03  0.00000000000E+00 0. -1.
        -11    1    4    4    0    0  0.40777302533E+01 -0.41133236754E+02 -0.99456894426E+01  0.42514559722E+02  0.00000000000E+00 0.  1.
         11    1    4    4    0    0  0.40839641881E+02  0.58885748650E+01  0.62395508515E+02  0.74804753497E+02  0.00000000000E+00 0. -1.
          1    1    1    2  501    0 -0.54801826821E+02 -0.32530645215E+02 -0.23079370844E+02  0.67780088961E+02  0.00000000000E+00 0. -1.
<scales pt_clust_5="13000.00000" pt_clust_6="13000.00000" pt_clust_7="13000.00000" pt_clust_8="13000.00000" pt_clust_9="63.72977"></scales>
<clustering>
<clus scale="   57.234">  5  6 -1 -1</clus>
<clus scale="   63.730">  2  9  1 -1</clus>
<clus scale="   81.703">  1  5  2 -1</clus>
<clus scale="   88.052">  7  8 -1 -1</clus>
<clus scale="   63.730">  2  5  1 -1</clus>
</clustering>
</event>
<event>
 9    2  0.5615294E-005  0.1228243E+03  0.7546771E-02  0.1241843E+00
          2   -1    0    0  502    0 -0.00000000000E+00  0.00000000000E+00  0.89562239353E+03  0.89562239353E+03  0.00000000000E+00 0. -1.
         21   -1    0    0  501  502  0.00000000000E+00 -0.00000000000E+00 -0.78276778521E+02  0.78276778521E+02  0.00000000000E+00 0. -1.
         24    2    1    2    0    0 -0.46850312039E+02  0.65365324233E+02  0.41044078952E+03  0.42600937179E+03  0.80961508158E+02 0.  0.
         23    2    1    2    0    0  0.11787538757E+03 -0.19810698237E+02  0.20316238889E+02  0.15219987040E+03  0.92005327165E+02 0.  0.
        -11    1    3    3    0    0 -0.67638643196E+02  0.48053155064E+02  0.25289638498E+03  0.26615911275E+03  0.00000000000E+00 0.  1.
         12    1    3    3    0    0  0.20788331157E+02  0.17312169170E+02  0.15754440454E+03  0.15985025904E+03  0.00000000000E+00 0. -1.
        -11    1    4    4    0    0  0.21365936265E+02 -0.15489095791E+02 -0.32685824851E+02  0.42009266444E+02  0.00000000000E+00 0.  1.
         11    1    4    4    0    0  0.96509451305E+02 -0.43216024457E+01  0.53002063740E+02  0.11019060395E+03  0.00000000000E+00 0. -1.
          1    1    1    2  501    0 -0.71025075531E+02 -0.45554625996E+02  0.38658858660E+03  0.39568992986E+03  0.00000000000E+00 0. -1.
<scales pt_clust_5="13000.00000" pt_clust_6="13000.00000" pt_clust_7="13000.00000" pt_clust_8="13000.00000" pt_clust_9="84.37886"></scales>
<clustering>
<clus scale="   80.962">  5  6 -1 -1</clus>
<clus scale="   84.379">  2  9  1 -1</clus>
<clus scale="   92.005">  7  8 -1 -1</clus>
<clus scale="  114.785">  1  5  2 -1</clus>
<clus scale="   84.379">  2  5  1 -1</clus>
</clustering>
</event>
<event>
 9    2  0.5615294E-005  0.2370752E+03  0.7546771E-02  0.1122517E+00
         21   -1    0    0  501  502  0.00000000000E+00  0.00000000000E+00  0.14109262964E+03  0.14109262964E+03  0.00000000000E+00 0.  1.
          2   -1    0    0  502    0 -0.00000000000E+00 -0.00000000000E+00 -0.77439465899E+03  0.77439465899E+03  0.00000000000E+00 0. -1.
         23    2    1    2    0    0 -0.21587052921E+02  0.15421287090E+03 -0.99074807271E+02  0.20732025499E+03  0.94436541058E+02 0.  0.
         24    2    1    2    0    0  0.16154222450E+03 -0.23893553500E+03 -0.37002528533E+03  0.47637476480E+03  0.82632466860E+02 0.  0.
        -11    1    4    4    0    0  0.16296476915E+03 -0.21866831266E+03 -0.36466714991E+03  0.45536301691E+03  0.00000000000E+00 0.  1.
         12    1    4    4    0    0 -0.14225446468E+01 -0.20267222336E+02 -0.53581354199E+01  0.21011747897E+02  0.00000000000E+00 0. -1.
        -11    1    3    3    0    0 -0.36058750235E+02  0.14746675785E+02 -0.70139604801E+01  0.39584006326E+02  0.00000000000E+00 0.  1.
         11    1    3    3    0    0  0.14471697314E+02  0.13946619511E+03 -0.92060846791E+02  0.16773624866E+03  0.00000000000E+00 0. -1.
          1    1    1    2  501    0 -0.13995517158E+03  0.84722664099E+02 -0.16420193675E+03  0.23179226884E+03  0.00000000000E+00 0. -1.
<scales pt_clust_5="13000.00000" pt_clust_6="13000.00000" pt_clust_7="13000.00000" pt_clust_8="13000.00000" pt_clust_9="163.60136"></scales>
<clustering>
<clus scale="   82.632">  5  6 -1 -1</clus>
<clus scale="   94.437">  7  8 -1 -1</clus>
<clus scale="  163.601">  1  9  2 -1</clus>
<clus scale="  232.625">  1  5  2 -1</clus>
<clus scale="  163.601">  1  5  2 -1</clus>
</clustering>
</event>
<event>
 9    2  0.5615294E-005  0.2255808E+03  0.7546771E-02  0.1154107E+00
          2   -1    0    0  502    0 -0.00000000000E+00  0.00000000000E+00  0.24839915877E+03  0.24839915877E+03  0.00000000000E+00 0. -1.
         21   -1    0    0  501  502  0.00000000000E+00 -0.00000000000E+00 -0.40151669663E+03  0.40151669663E+03  0.00000000000E+00 0. -1.
         24    2    1    2    0    0 -0.85819082269E+02  0.47967981983E+02  0.65121205286E+01  0.12589387509E+03  0.78364646963E+02 0.  0.
         23    2    1    2    0    0 -0.37416297975E+02  0.16541120115E+03 -0.17983061805E+03  0.27678583104E+03  0.12454115890E+03 0.  0.
        -11    1    3    3    0    0 -0.35454880215E+02  0.14779460190E+01 -0.31559226630E+02  0.47489131819E+02  0.00000000000E+00 0.  1.
         12    1    3    3    0    0 -0.50364202054E+02  0.46490035964E+02  0.38071347158E+02  0.78404743268E+02  0.00000000000E+00 0. -1.
        -11    1    4    4    0    0 -0.75157411477E+02  0.15006356871E+03 -0.15827884880E+03  0.23069439770E+03  0.00000000000E+00 0. -1.
         11    1    4    4    0    0  0.37741113502E+02  0.15347632439E+02 -0.21551769247E+02  0.46091433342E+02  0.00000000000E+00 0.  1.
          1    1    1    2  501    0  0.12323538024E+03 -0.21337918313E+03  0.20200959653E+02  0.24723614927E+03  0.00000000000E+00 0. -1.
<scales pt_clust_5="13000.00000" pt_clust_6="13000.00000" pt_clust_7="13000.00000" pt_clust_8="13000.00000" pt_clust_9="188.08565"></scales>
<clustering>
<clus scale="   78.365">  5  6 -1 -1</clus>
<clus scale="  124.541">  7  8 -1 -1</clus>
<clus scale="  125.725">  1  5  2 -1</clus>
<clus scale="  188.086">  2  9  1 -1</clus>
<clus scale="  188.086">  2  5  1 -1</clus>
</clustering>
</event>
<event>
 9    2  0.5615294E-005  0.1396142E+03  0.7546771E-02  0.1233059E+00
         21   -1    0    0  501  502  0.00000000000E+00  0.00000000000E+00  0.40059167570E+03  0.40059167570E+03  0.00000000000E+00 0. -1.
          2   -1    0    0  502    0 -0.00000000000E+00 -0.00000000000E+00 -0.97860717603E+02  0.97860717603E+02  0.00000000000E+00 0. -1.
         24    2    1    2    0    0  0.36091746121E+02 -0.34609978135E+02  0.57024777964E+02  0.10950824168E+03  0.78992182966E+02 0.  0.
         23    2    1    2    0    0  0.35232850141E+02 -0.82262545219E+02  0.20989139244E+03  0.24742000610E+03  0.95675402916E+02 0.  0.
        -13    1    3    3    0    0 -0.14194635161E+02 -0.40382144706E+02  0.28217547759E+02  0.51268267768E+02  0.00000000000E+00 0.  1.
         14    1    3    3    0    0  0.50286381282E+02  0.57721665707E+01  0.28807230205E+02  0.58239973914E+02  0.00000000000E+00 0. -1.
        -13    1    4    4    0    0  0.14664995160E+02  0.15725227919E+02  0.83242271722E+02  0.85974535053E+02  0.00000000000E+00 0.  1.
         13    1    4    4    0    0  0.20567854982E+02 -0.97987773137E+02  0.12664912072E+03  0.16144547105E+03  0.00000000000E+00 0. -1.
          1    1    1    2  501    0 -0.71324596262E+02  0.11687252335E+03  0.35814787685E+02  0.14152414552E+03  0.00000000000E+00 0. -1.
<scales pt_clust_5="13000.00000" pt_clust_6="13000.00000" pt_clust_7="13000.00000" pt_clust_8="13000.00000" pt_clust_9="101.67772"></scales>
<clustering>
<clus scale="   78.992">  5  6 -1 -1</clus>
<clus scale="   93.489">  2  5  1 -1</clus>
<clus scale="   95.675">  7  8 -1 -1</clus>
<clus scale="  101.678">  1  9  2 -1</clus>
<clus scale="  101.678">  1  5  2 -1</clus>
</clustering>
</event>
<event>
 9    2  0.5615294E-005  0.1138397E+03  0.7546771E-02  0.1257729E+00
          2   -1    0    0  502    0 -0.00000000000E+00  0.00000000000E+00  0.16174642281E+03  0.16174642281E+03  0.00000000000E+00 0. -1.
         21   -1    0    0  501  502  0.00000000000E+00 -0.00000000000E+00 -0.25608360334E+03  0.25608360334E+03  0.00000000000E+00 0. -1.
         24    2    1    2    0    0 -0.60066347137E+02 -0.25250207544E+02  0.10334472984E+03  0.14595504996E+03  0.79857400316E+02 0.  0.
         23    2    1    2    0    0  0.88642949217E+02  0.39933000973E+01 -0.83363290186E+02  0.15213682345E+03  0.91228592050E+02 0.  0.
        -11    1    3    3    0    0 -0.55115734653E+01 -0.40227020596E+02  0.68147687006E+02  0.79326526915E+02  0.00000000000E+00 0.  1.
         12    1    3    3    0    0 -0.54554773672E+02  0.14976813052E+02  0.35197042833E+02  0.66628523050E+02  0.00000000000E+00 0. -1.
        -11    1    4    4    0    0  0.48734949667E+02  0.26542357602E+02  0.16881741000E+01  0.55519744217E+02  0.00000000000E+00 0. -1.
         11    1    4    4    0    0  0.39907999551E+02 -0.22549057505E+02 -0.85051464287E+02  0.96617079234E+02  0.00000000000E+00 0.  1.
          1    1    1    2  501    0 -0.28576602080E+02  0.21256907446E+02 -0.11431862018E+03  0.11973815273E+03  0.00000000000E+00 0. -1.
<scales pt_clust_5="13000.00000" pt_clust_6="13000.00000" pt_clust_7="13000.00000" pt_clust_8="13000.00000" pt_clust_9="35.61570"></scales>
<clustering>
<clus scale="   35.616">  2  9  1 -1</clus>
<clus scale="   79.857">  5  6 -1 -1</clus>
<clus scale="   91.229">  7  8 -1 -1</clus>
<clus scale="  104.948">  1  5  2 -1</clus>
<clus scale="   35.616">  2  5  1 -1</clus>
</clustering>
</event>
<event>
 9    2  0.5615294E-005  0.1060958E+03  0.7546771E-02  0.1274378E+00
          2   -1    0    0  502    0 -0.00000000000E+00  0.00000000000E+00  0.50971436928E+02  0.50971436928E+02  0.00000000000E+00 0. -1.
         21   -1    0    0  501  502  0.00000000000E+00 -0.00000000000E+00 -0.28635670664E+03  0.28635670664E+03  0.00000000000E+00 0. -1.
         23    2    1    2    0    0  0.68943611457E+00  0.59775739305E+02 -0.11117372443E+03  0.15663555108E+03  0.92744188636E+02 0.  0.
         24    2    1    2    0    0  0.29890372100E+02 -0.39644257666E+02 -0.10204233865E+03  0.13789218424E+03  0.78335905484E+02 0.  0.
        -13    1    4    4    0    0 -0.10995471389E+02  0.18116732716E+02 -0.31547205998E+02  0.38004507649E+02  0.00000000000E+00 0.  1.
         14    1    4    4    0    0  0.40885843490E+02 -0.57760990381E+02 -0.70495132651E+02  0.99887676593E+02  0.00000000000E+00 0. -1.
        -13    1    3    3    0    0 -0.42377989834E+02  0.42950865000E+02 -0.42328667709E+02  0.73704728048E+02  0.00000000000E+00 0.  1.
         13    1    3    3    0    0  0.43067425948E+02  0.16824874304E+02 -0.68845056723E+02  0.82930823030E+02  0.00000000000E+00 0. -1.
          1    1    1    2  501    0 -0.30579808215E+02 -0.20131481639E+02 -0.22169206628E+02  0.42800408245E+02  0.00000000000E+00 0. -1.
<scales pt_clust_5="13000.00000" pt_clust_6="13000.00000" pt_clust_7="13000.00000" pt_clust_8="13000.00000" pt_clust_9="36.61151"></scales>
<clustering>
<clus scale="   36.612">  2  9  1 -1</clus>
<clus scale="   78.336">  5  6 -1 -1</clus>
<clus scale="   92.744">  7  8 -1 -1</clus>
<clus scale="   93.762">  2  5  1 -1</clus>
<clus scale="   36.612">  2  5  1 -1</clus>
</clustering>
</event>
<event>
 9    2  0.5615294E-005  0.2163367E+03  0.7546771E-02  0.1137506E+00
         21   -1    0    0  501  502  0.00000000000E+00  0.00000000000E+00  0.15710686260E+03  0.15710686260E+03  0.00000000000E+00 0. -1.
          2   -1    0    0  502    0 -0.00000000000E+00 -0.00000000000E+00 -0.44449235539E+03  0.44449235539E+03  0.00000000000E+00 0. -1.
         24    2    1    2    0    0  0.11615940799E+03 -0.16127956499E+03 -0.18821352362E+03  0.28510211688E+03  0.79716876675E+02 0.  0.
         23    2    1    2    0    0 -0.13259358566E+03  0.14200333887E+03 -0.14859889003E+03  0.26095724520E+03  0.90945293991E+02 0.  0.
        -11    1    3    3    0    0  0.13334262455E+02 -0.38074866065E+02 -0.85583073953E+02  0.94614800789E+02  0.00000000000E+00 0.  1.
         12    1    3    3    0    0  0.10282514554E+03 -0.12320469893E+03 -0.10263044966E+03  0.19048731609E+03  0.00000000000E+00 0. -1.
        -11    1    4    4    0    0 -0.59776268788E+02  0.11558765679E+03 -0.12383292267E+03  0.17963379818E+03  0.00000000000E+00 0. -1.
         11    1    4    4    0    0 -0.72817316873E+02  0.26415682082E+02 -0.24765967352E+02  0.81323447020E+02  0.00000000000E+00 0.  1.
          1    1    1    2  501    0  0.16434177668E+02  0.19276226122E+02  0.49426920852E+02  0.55539855905E+02  0.00000000000E+00 0. -1.
<scales pt_clust_5="13000.00000" pt_clust_6="13000.00000" pt_clust_7="13000.00000" pt_clust_8="13000.00000" pt_clust_9="25.33091"></scales>
<clustering>
<clus scale="   25.331">  1  9  2 -1</clus>
<clus scale="   79.717">  5  6 -1 -1</clus>
<clus scale="   90.945">  7  8 -1 -1</clus>
<clus scale="  211.861">  2  5  1 -1</clus>
<clus scale="   25.331">  1  5  2 -1</clus>
</clustering>
</event>
<event>
 9    2  0.5615294E-005  0.2192323E+03  0.7546771E-02  0.1135513E+00
         21   -1    0    0  501  502  0.00000000000E+00  0.00000000000E+00  0.86621430647E+02  0.86621430647E+02  0.00000000000E+00 0.  1.
          2   -1    0    0  502    0 -0.00000000000E+00 -0.00000000000E+00 -0.14659683407E+04  0.14659683407E+04  0.00000000000E+00 0. -1.
         23    2    1    2    0    0  0.64806123527E+02 -0.18504055291E+03 -0.70903108416E+03  0.74118047860E+03  0.90463161966E+02 0.  0.
         24    2    1    2    0    0 -0.16293165375E+03  0.16512596372E+03 -0.16117313707E+03  0.29251480625E+03  0.75992263251E+02 0.  0.
        -11    1    4    4    0    0 -0.93178764189E+02  0.13877571279E+03 -0.12973415825E+03  0.21159379096E+03  0.00000000000E+00 0.  1.
         12    1    4    4    0    0 -0.69752889559E+02  0.26350250929E+02 -0.31438978819E+02  0.80921015286E+02  0.00000000000E+00 0. -1.
        -13    1    3    3    0    0  0.97325179078E+01 -0.14577449707E+03 -0.43301230528E+03  0.45699516674E+03  0.00000000000E+00 0. -1.
         13    1    3    3    0    0  0.55073605619E+02 -0.39266055839E+02 -0.27601877888E+03  0.28418531185E+03  0.00000000000E+00 0.  1.
          1    1    1    2  501    0  0.98125530220E+02  0.19914589190E+02 -0.50914268886E+03  0.51889448654E+03  0.00000000000E+00 0. -1.
<scales pt_clust_5="13000.00000" pt_clust_6="13000.00000" pt_clust_7="13000.00000" pt_clust_8="13000.00000" pt_clust_9="100.12602"></scales>
<clustering>
<clus scale="   75.992">  5  6 -1 -1</clus>
<clus scale="   90.463">  7  8 -1 -1</clus>
<clus scale="  100.126">  1  9  2 -1</clus>
<clus scale="  213.668">  1  5  2 -1</clus>
<clus scale="  100.126">  1  5  2 -1</clus>
</clustering>
</event>
<event>
 9    2  0.5615294E-005  0.1375751E+03  0.7546771E-02  0.1234394E+00
          2   -1    0    0  502    0 -0.00000000000E+00  0.00000000000E+00  0.44213712081E+03  0.44213712081E+03  0.00000000000E+00 0. -1.
         21   -1    0    0  501  502  0.00000000000E+00 -0.00000000000E+00 -0.20221600406E+03  0.20221600406E+03  0.00000000000E+00 0. -1.
         24    2    1    2    0    0  0.21718487115E+01  0.52384508725E+02  0.35713602529E+03  0.36957252089E+03  0.79302294757E+02 0.  0.
         23    2    1    2    0    0  0.99781436623E+02 -0.52006861464E+02 -0.53301946578E+02  0.15444988590E+03  0.91392674830E+02 0.  0.
        -13    1    3    3    0    0 -0.21957647154E+02  0.12124345160E+02  0.30080172304E+02  0.39165734768E+02  0.00000000000E+00 0.  1.
         14    1    3    3    0    0  0.24129495865E+02  0.40260163565E+02  0.32705585298E+03  0.33040678612E+03  0.00000000000E+00 0. -1.
        -11    1    4    4    0    0 -0.77525183987E+01 -0.35258213565E+02 -0.11923227553E+02  0.38018502345E+02  0.00000000000E+00 0.  1.
         11    1    4    4    0    0  0.10753395502E+03 -0.16748647899E+02 -0.41378719025E+02  0.11643138356E+03  0.00000000000E+00 0. -1.
          1    1    1    2  501    0 -0.10195328533E+03 -0.37764726099E+00 -0.63912961953E+02  0.12033071808E+03  0.00000000000E+00 0. -1.
<scales pt_clust_5="13000.00000" pt_clust_6="13000.00000" pt_clust_7="13000.00000" pt_clust_8="13000.00000" pt_clust_9="102.83141"></scales>
<clustering>
<clus scale="   79.302">  5  6 -1 -1</clus>
<clus scale="   91.393">  7  8 -1 -1</clus>
<clus scale="   95.067">  1  5  2 -1</clus>
<clus scale="  102.831">  2  9  1 -1</clus>
<clus scale="  102.831">  2  5  1 -1</clus>
</clustering>
</event>
<event>
 9    2  0.5615294E-005  0.1002288E+03  0.7546771E-02  0.1286792E+00
         21   -1    0    0  501  502  0.00000000000E+00  0.00000000000E+00  0.10669400190E+03  0.10669400190E+03  0.00000000000E+00 0.  1.
          2   -1    0    0  502    0 -0.00000000000E+00 -0.00000000000E+00 -0.19452759202E+03  0.19452759202E+03  0.00000000000E+00 0. -1.
         24    2    1    2    0    0  0.15690537317E+02  0.18127479125E+02 -0.42264001276E+02  0.93504028821E+02  0.79887165060E+02 0.  0.
         23    2    1    2    0    0  0.21103331392E+02 -0.79189945059E+02 -0.21342523371E+01  0.12423677702E+03  0.93347864127E+02 0.  0.
        -11    1    3    3    0    0 -0.73832990360E+01 -0.29086999532E+02 -0.90813603375E+01  0.31353432858E+02  0.00000000000E+00 0.  1.
         12    1    3    3    0    0  0.23073836353E+02  0.47214478657E+02 -0.33182640939E+02  0.62150595963E+02  0.00000000000E+00 0. -1.
        -11    1    4    4    0    0  0.10450905919E+01 -0.96736270967E+02  0.42420723844E+01  0.96834877565E+02  0.00000000000E+00 0.  1.
         11    1    4    4    0    0  0.20058240800E+02  0.17546325907E+02 -0.63763247215E+01  0.27401899456E+02  0.00000000000E+00 0. -1.
          1    1    1    2  501    0 -0.36793868708E+02  0.61062465934E+02 -0.43435336510E+02  0.83480788078E+02  0.00000000000E+00 0. -1.
<scales pt_clust_5="13000.00000" pt_clust_6="13000.00000" pt_clust_7="13000.00000" pt_clust_8="13000.00000" pt_clust_9="71.29108"></scales>
<clustering>
<clus scale="   71.291">  1  9  2 -1</clus>
<clus scale="   79.887">  5  6 -1 -1</clus>
<clus scale="   87.829">  2  5  1 -1</clus>
<clus scale="   93.348">  7  8 -1 -1</clus>
<clus scale="   71.291">  1  5  2 -1</clus>
</clustering>
</event>
<event>
 9    2  0.5615294E-005  0.1005671E+03  0.7546771E-02  0.1281851E+00
         21   -1    0    0  501  502  0.00000000000E+00  0.00000000000E+00  0.10047586391E+03  0.10047586391E+03  0.00000000000E+00 0. -1.
          2   -1    0    0  502    0 -0.00000000000E+00 -0.00000000000E+00 -0.20335917803E+03  0.20335917803E+03  0.00000000000E+00 0. -1.
         23    2    1    2    0    0  0.19829020009E+02 -0.54979478665E+02 -0.12332437859E+03  0.16239756784E+03  0.88023488771E+02 0.  0.
         24    2    1    2    0    0  0.20636793780E+02  0.26197504322E+02  0.23425526206E+02  0.91690201369E+02  0.82134957593E+02 0.  0.
        -13    1    4    4    0    0  0.19679444559E+02 -0.27351119944E+02  0.12347740522E+01  0.33717784139E+02  0.00000000000E+00 0.  1.
         14    1    4    4    0    0  0.95734922152E+00  0.53548624266E+02  0.22190752154E+02  0.57972417230E+02  0.00000000000E+00 0. -1.
        -11    1    3    3    0    0 -0.21282357762E+01 -0.30188545237E+02  0.42811535683E+01  0.30564782461E+02  0.00000000000E+00 0.  1.
         11    1    3    3    0    0  0.21957255785E+02 -0.24790933428E+02 -0.12760553216E+03  0.13183278538E+03  0.00000000000E+00 0. -1.
          1    1    1    2  501    0 -0.40465813789E+02  0.28781974343E+02 -0.29844617279E+01  0.49747272734E+02  0.00000000000E+00 0. -1.
<scales pt_clust_5="13000.00000" pt_clust_6="13000.00000" pt_clust_7="13000.00000" pt_clust_8="13000.00000" pt_clust_9="49.65767"></scales>
<clustering>
<clus scale="   49.658">  1  9  2 -1</clus>
<clus scale="   82.135">  5  6 -1 -1</clus>
<clus scale="   88.023">  7  8 -1 -1</clus>
<clus scale="   95.456">  1  5  2 -1</clus>
<clus scale="   49.658">  1  5  2 -1</clus>
</clustering>
</event>
<event>
 9    2  0.5615294E-005  0.1072937E+03  0.7546771E-02  0.1269018E+00
         21   -1    0    0  501  502  0.00000000000E+00  0.00000000000E+00  0.16783467260E+03  0.16783467260E+03  0.00000000000E+00 0. -1.
          2   -1    0    0  502    0 -0.00000000000E+00 -0.00000000000E+00 -0.13292584663E+03  0.13292584663E+03  0.00000000000E+00 0. -1.
         23    2    1    2    0    0 -0.31818409849E+02  0.37611843085E+02 -0.15649828822E+02  0.10462621585E+03  0.90965190904E+02 0.  0.
         24    2    1    2    0    0  0.81858863490E+02  0.27534623642E+01  0.37038815204E+01  0.11658070722E+03  0.82878751617E+02 0.  0.
        -13    1    4    4    0    0  0.50634939373E+02  0.36007063955E+02  0.24062171118E+02  0.66628776208E+02  0.00000000000E+00 0.  1.
         14    1    4    4    0    0  0.31223924117E+02 -0.33253601591E+02 -0.20358289598E+02  0.49951931008E+02  0.00000000000E+00 0. -1.
        -13    1    3    3    0    0 -0.19751639865E+01 -0.29263093175E+02 -0.10725221765E+02  0.31229157479E+02  0.00000000000E+00 0.  1.
         13    1    3    3    0    0 -0.29843245862E+02  0.66874936261E+02 -0.49246070567E+01  0.73397058375E+02  0.00000000000E+00 0. -1.
          1    1    1    2  501    0 -0.50040453642E+02 -0.40365305449E+02  0.46854773272E+02  0.79553596167E+02  0.00000000000E+00 0. -1.
<scales pt_clust_5="13000.00000" pt_clust_6="13000.00000" pt_clust_7="13000.00000" pt_clust_8="13000.00000" pt_clust_9="64.29156"></scales>
<clustering>
<clus scale="   64.292">  1  9  2 -1</clus>
<clus scale="   82.879">  5  6 -1 -1</clus>
<clus scale="   90.965">  7  8 -1 -1</clus>
<clus scale="  100.529">  1  5  2 -1</clus>
<clus scale="   64.292">  1  5  2 -1</clus>
</clustering>
</event>
<event>
 9    2  0.5615294E-005  0.2334663E+03  0.7546771E-02  0.1124224E+00
         21   -1    0    0  501  502  0.00000000000E+00  0.00000000000E+00  0.49431822478E+02  0.49431822478E+02  0.00000000000E+00 0. -1.
          2   -1    0    0  502    0 -0.00000000000E+00 -0.00000000000E+00 -0.92237467360E+03  0.92237467360E+03  0.00000000000E+00 0. -1.
         24    2    1    2    0    0 -0.21485907612E+02  0.10127413673E+03 -0.16792138880E+03  0.21274255683E+03  0.79647395893E+02 0.  0.
         23    2    1    2    0    0 -0.36430292248E+02  0.33566031814E+02 -0.13081506719E+03  0.16640118399E+03  0.90127285243E+02 0.  0.
        -13    1    3    3    0    0  0.26059240734E+02  0.57145753527E+02 -0.10512639240E+03  0.12245929754E+03  0.00000000000E+00 0.  1.
         14    1    3    3    0    0 -0.47545148346E+02  0.44128383203E+02 -0.62794996395E+02  0.90283259287E+02  0.00000000000E+00 0. -1.
        -13    1    4    4    0    0 -0.31284361099E+02 -0.11163951814E+02 -0.60535412365E+01  0.33763744327E+02  0.00000000000E+00 0. -1.
         13    1    4    4    0    0 -0.51459311491E+01  0.44729983628E+02 -0.12476152595E+03  0.13263743967E+03  0.00000000000E+00 0.  1.
          1    1    1    2  501    0  0.57916199860E+02 -0.13484016854E+03 -0.57420639513E+03  0.59266275525E+03  0.00000000000E+00 0. -1.
<scales pt_clust_5="13000.00000" pt_clust_6="13000.00000" pt_clust_7="13000.00000" pt_clust_8="13000.00000" pt_clust_9="146.75210"></scales>
<clustering>
<clus scale="   79.647">  5  6 -1 -1</clus>
<clus scale="   90.127">  7  8 -1 -1</clus>
<clus scale="   96.083">  5  7 -1 -1</clus>
<clus scale="  146.752">  1  9  2 -1</clus>
<clus scale="  146.752">  1  5  2 -1</clus>
</clustering>
</event>
<event>
 9    2  0.5615294E-005  0.9954426E+02  0.7546771E-02  0.1288227E+00
         21   -1    0    0  501  502  0.00000000000E+00  0.00000000000E+00  0.46186299482E+02  0.46186299482E+02  0.00000000000E+00 0.  1.
         -3   -1    0    0    0  501 -0.00000000000E+00 -0.00000000000E+00 -0.36950165737E+03  0.36950165737E+03  0.00000000000E+00 0.  1.
         24    2    1    2    0    0  0.72074287446E+01 -0.27152734362E+02 -0.73177179051E+02  0.11276340978E+03  0.81064597932E+02 0.  0.
         23    2    1    2    0    0  0.29253430852E+02  0.35659262226E+02 -0.89100481337E+02  0.13759186635E+03  0.94155614346E+02 0.  0.
        -11    1    3    3    0    0 -0.13601817356E+02 -0.28034851192E+02  0.52661202431E+01  0.31602125548E+02  0.00000000000E+00 0.  1.
         12    1    3    3    0    0  0.20809246101E+02  0.88211682959E+00 -0.78443299294E+02  0.81161284228E+02  0.00000000000E+00 0. -1.
        -11    1    4    4    0    0 -0.24147491360E+02  0.25501004350E+02 -0.72821937285E+02  0.80848235057E+02  0.00000000000E+00 0. -1.
         11    1    4    4    0    0  0.53400922212E+02  0.10158257875E+02 -0.16278544052E+02  0.56743631296E+02  0.00000000000E+00 0.  1.
         -4    1    1    2    0  502 -0.36460859597E+02 -0.85065278637E+01 -0.16103769750E+03  0.16533268073E+03  0.00000000000E+00 0.  1.
<scales pt_clust_5="13000.00000" pt_clust_6="13000.00000" pt_clust_7="13000.00000" pt_clust_8="13000.00000" pt_clust_9="37.44004"></scales>
<clustering>
<clus scale="   37.440">  1  9  2 -1</clus>
<clus scale="   81.065">  5  6 -1 -1</clus>
<clus scale="   87.265">  2  5  1 -1</clus>
<clus scale="   94.156">  7  8 -1 -1</clus>
<clus scale="   37.440">  1  5  2 -1</clus>
</clustering>
</event>
<event>
 9    2  0.5615294E-005  0.1741731E+03  0.7546771E-02  0.1208393E+00
          2   -1    0    0  502    0 -0.00000000000E+00  0.00000000000E+00  0.10847302343E+03  0.10847302343E+03  0.00000000000E+00 0. -1.
         21   -1    0    0  501  502  0.00000000000E+00 -0.00000000000E+00 -0.38759663516E+03  0.38759663516E+03  0.00000000000E+00 0. -1.
         24    2    1    2    0    0 -0.26759188501E+01  0.51112154133E+01 -0.34423532898E+02  0.87804391052E+02  0.80568892298E+02 0.  0.
         23    2    1    2    0    0  0.14224937226E+03 -0.44153350519E+02 -0.96683263304E+02  0.20110828628E+03  0.94405969810E+02 0.  0.
        -11    1    3    3    0    0  0.38752299116E+02  0.14589478087E+01 -0.21012678837E+02  0.44106710231E+02  0.00000000000E+00 0.  1.
         12    1    3    3    0    0 -0.41428217966E+02  0.36522676046E+01 -0.13410854061E+02  0.43697680821E+02  0.00000000000E+00 0. -1.
        -13    1    4    4    0    0  0.11563207332E+03 -0.67384749960E+02 -0.97801998063E+02  0.16576100788E+03  0.00000000000E+00 0. -1.
         13    1    4    4    0    0  0.26617298932E+02  0.23231399441E+02  0.11187347586E+01  0.35347278394E+02  0.00000000000E+00 0.  1.
          1    1    1    2  501    0 -0.13957345341E+03  0.39042135106E+02 -0.14801681553E+03  0.20715698127E+03  0.00000000000E+00 0. -1.
<scales pt_clust_5="13000.00000" pt_clust_6="13000.00000" pt_clust_7="13000.00000" pt_clust_8="13000.00000" pt_clust_9="146.36863"></scales>
<clustering>
<clus scale="   80.569">  5  6 -1 -1</clus>
<clus scale="   80.775">  1  5  2 -1</clus>
<clus scale="   94.406">  7  8 -1 -1</clus>
<clus scale="  146.369">  2  9  1 -1</clus>
<clus scale="  146.369">  2  5  1 -1</clus>
</clustering>
</event>
<event>
 9    2  0.5615294E-005  0.1139950E+03  0.7546771E-02  0.1258886E+00
         21   -1    0    0  501  502  0.00000000000E+00  0.00000000000E+00  0.44024126602E+02  0.44024126602E+02  0.00000000000E+00 0.  1.
          2   -1    0    0  502    0 -0.00000000000E+00 -0.00000000000E+00 -0.12312406093E+04  0.12312406093E+04  0.00000000000E+00 0. -1.
         24    2    1    2    0    0  0.41628726408E+02 -0.52961225009E+02 -0.89534339390E+03  0.90114762743E+03  0.76742499278E+02 0.  0.
         23    2    1    2    0    0  0.11279195624E+02  0.92705356329E+02 -0.83222648459E+02  0.15522478234E+03  0.91908761770E+02 0.  0.
        -13    1    3    3    0    0  0.25231167970E+02 -0.50284512821E+01 -0.75939744584E+02  0.80179436060E+02  0.00000000000E+00 0.  1.
         14    1    3    3    0    0  0.16397558439E+02 -0.47932773727E+02 -0.81940364932E+03  0.82096819137E+03  0.00000000000E+00 0. -1.
        -11    1    4    4    0    0 -0.37936170184E+02  0.30068289517E+02 -0.15972018432E+02  0.50974115152E+02  0.00000000000E+00 0.  1.
         11    1    4    4    0    0  0.49215365807E+02  0.62637066812E+02 -0.67250630027E+02  0.10425066719E+03  0.00000000000E+00 0. -1.
          1    1    1    2  501    0 -0.52907922032E+02 -0.39744131321E+02 -0.20865044035E+03  0.21889232615E+03  0.00000000000E+00 0. -1.
<scales pt_clust_5="13000.00000" pt_clust_6="13000.00000" pt_clust_7="13000.00000" pt_clust_8="13000.00000" pt_clust_9="66.17287"></scales>
<clustering>
<clus scale="   66.173">  1  9  2 -1</clus>
<clus scale="   76.742">  5  6 -1 -1</clus>
<clus scale="   91.909">  7  8 -1 -1</clus>
<clus scale="  102.162">  2  5  1 -1</clus>
<clus scale="   66.173">  1  5  2 -1</clus>
</clustering>
</event>
<event>
 9    2  0.5615294E-005  0.4113569E+03  0.7546771E-02  0.1098461E+00
         21   -1    0    0  501  502  0.00000000000E+00  0.00000000000E+00  0.19945164210E+04  0.19945164210E+04  0.00000000000E+00 0.  1.
         -1   -1    0    0    0  501 -0.00000000000E+00 -0.00000000000E+00 -0.14187708966E+03  0.14187708966E+03  0.00000000000E+00 0.  1.
         24    2    1    2    0    0  0.68265591125E+01  0.27661006627E+02 -0.25765002179E+02  0.86088579828E+02  0.77043332239E+02 0.  0.
         23    2    1    2    0    0 -0.40390229302E+03 -0.24564522650E+02  0.11180293032E+04  0.11924885674E+04  0.91098751122E+02 0.  0.
        -11    1    3    3    0    0 -0.99001980338E+01  0.51684877368E+02 -0.19716846970E+02  0.56196926287E+02  0.00000000000E+00 0.  1.
         12    1    3    3    0    0  0.16726757146E+02 -0.24023870741E+02 -0.60481552095E+01  0.29891653541E+02  0.00000000000E+00 0. -1.
        -11    1    4    4    0    0 -0.20631134229E+03  0.19747754871E+02  0.47283819551E+03  0.51626572897E+03  0.00000000000E+00 0.  1.
         11    1    4    4    0    0 -0.19759095073E+03 -0.44312277520E+02  0.64519110767E+03  0.67622283840E+03  0.00000000000E+00 0. -1.
         -2    1    1    2    0  502  0.39707573391E+03 -0.30964839776E+01  0.76037503030E+03  0.85781636343E+03  0.00000000000E+00 0.  1.
<scales pt_clust_5="13000.00000" pt_clust_6="13000.00000" pt_clust_7="13000.00000" pt_clust_8="13000.00000" pt_clust_9="401.14295"></scales>
<clustering>
<clus scale="   77.043">  5  6 -1 -1</clus>
<clus scale="   82.143">  2  5  1 -1</clus>
<clus scale="   91.099">  7  8 -1 -1</clus>
<clus scale="  401.143">  1  9  2 -1</clus>
<clus scale="  401.143">  1  5  2 -1</clus>
</clustering>
</event>
<event>
 9    2  0.5615294E-005  0.1020563E+03  0.7546771E-02  0.1283099E+00
         21   -1    0    0  501  502  0.00000000000E+00  0.00000000000E+00  0.21598200547E+03  0.21598200547E+03  0.00000000000E+00 0. -1.
         -1   -1    0    0    0  501 -0.00000000000E+00 -0.00000000000E+00 -0.60168884154E+02  0.60168884154E+02  0.00000000000E+00 0.  1.
         23    2    1    2    0    0  0.18831966774E+02  0.27119819524E+02  0.31677346773E+02  0.10470988268E+03  0.94183744077E+02 0.  0.
         24    2    1    2    0    0 -0.15337850369E+02 -0.47846402953E+02  0.85525570378E+02  0.12748025200E+03  0.80075361573E+02 0.  0.
        -11    1    4    4    0    0  0.12316052561E+02 -0.26359192646E+02 -0.58028501638E+01  0.29667579235E+02  0.00000000000E+00 0.  1.
         12    1    4    4    0    0 -0.27653902930E+02 -0.21487210306E+02  0.91328420542E+02  0.97812672761E+02  0.00000000000E+00 0. -1.
        -13    1    3    3    0    0  0.12581178347E+02  0.46527851194E+02 -0.17654468154E+02  0.51330373378E+02  0.00000000000E+00 0.  1.
         13    1    3    3    0    0  0.62507884273E+01 -0.19408031669E+02  0.49331814926E+02  0.53379509301E+02  0.00000000000E+00 0. -1.
         -2    1    1    2    0  502 -0.34941164049E+01  0.20726583428E+02  0.38610204168E+02  0.43960754952E+02  0.00000000000E+00 0.  1.
<scales pt_clust_5="13000.00000" pt_clust_6="13000.00000" pt_clust_7="13000.00000" pt_clust_8="13000.00000" pt_clust_9="21.01904"></scales>
<clustering>
<clus scale="   21.019">  1  9  2 -1</clus>
<clus scale="   80.075">  5  6 -1 -1</clus>
<clus scale="   89.202">  1  5  2 -1</clus>
<clus scale="   94.184">  7  8 -1 -1</clus>
<clus scale="   21.019">  1  5  2 -1</clus>
</clustering>
</event>
<event>
 9    2  0.5615294E-005  0.9270362E+02  0.7546771E-02  0.1303800E+00
         21   -1    0    0  501  502  0.00000000000E+00  0.00000000000E+00  0.42498340380E+03  0.42498340380E+03  0.00000000000E+00 0. -1.
          2   -1    0    0  502    0 -0.00000000000E+00 -0.00000000000E+00 -0.20089275327E+03  0.20089275327E+03  0.00000000000E+00 0. -1.
         24    2    1    2    0    0 -0.22391440199E+01 -0.11436969594E+02 -0.15855604516E+03  0.17830645549E+03  0.80730134229E+02 0.  0.
         23    2    1    2    0    0 -0.19262291625E+02 -0.55208708888E+02  0.76555644125E+02  0.13357019515E+03  0.92526714889E+02 0.  0.
        -11    1    3    3    0    0 -0.17941769483E+02  0.18898205589E+02 -0.13627247537E+02  0.29406651324E+02  0.00000000000E+00 0.  1.
         12    1    3    3    0    0  0.15702625463E+02 -0.30335175183E+02 -0.14492879762E+03  0.14889980416E+03  0.00000000000E+00 0. -1.
        -13    1    4    4    0    0 -0.27060629690E+02 -0.78257801548E+02  0.46737702164E+02  0.95084036441E+02  0.00000000000E+00 0. -1.
         13    1    4    4    0    0  0.77983380651E+01  0.23049092661E+02  0.29817941961E+02  0.38486158705E+02  0.00000000000E+00 0.  1.
          1    1    1    2  501    0  0.21501435645E+02  0.66645678481E+02  0.30609105156E+03  0.31399950643E+03  0.00000000000E+00 0. -1.
<scales pt_clust_5="13000.00000" pt_clust_6="13000.00000" pt_clust_7="13000.00000" pt_clust_8="13000.00000" pt_clust_9="70.02827"></scales>
<clustering>
<clus scale="   70.028">  1  9  2 -1</clus>
<clus scale="   80.730">  5  6 -1 -1</clus>
<clus scale="   80.933">  2  5  1 -1</clus>
<clus scale="   92.527">  7  8 -1 -1</clus>
<clus scale="   70.028">  1  5  2 -1</clus>
</clustering>
</event>
<event>
 9    2  0.5615294E-005  0.9569182E+02  0.7546771E-02  0.1295982E+00
          4   -1    0    0  502    0 -0.00000000000E+00  0.00000000000E+00  0.76317715959E+02  0.76317715959E+02  0.00000000000E+00 0. -1.
         21   -1    0    0  501  502  0.00000000000E+00 -0.00000000000E+00 -0.31176119203E+03  0.31176119203E+03  0.00000000000E+00 0.  1.
         24    2    1    2    0    0  0.24340158672E+02  0.31375196942E+02  0.18657189262E+02  0.91138567867E+02  0.79883049105E+02 0.  0.
         23    2    1    2    0    0  0.21763726747E+02 -0.12513567218E+00 -0.12422669039E+03  0.15562726943E+03  0.91180595111E+02 0.  0.
        -11    1    3    3    0    0 -0.24897387965E+02  0.17638428413E+02  0.25239958754E+02  0.39598606064E+02  0.00000000000E+00 0.  1.
         12    1    3    3    0    0  0.49237546637E+02  0.13736768529E+02 -0.65827694913E+01  0.51539961803E+02  0.00000000000E+00 0. -1.
        -13    1    4    4    0    0 -0.29574063768E+02  0.22664265039E+02 -0.43398079847E+02  0.57198666872E+02  0.00000000000E+00 0. -1.
         13    1    4    4    0    0  0.51337790515E+02 -0.22789400711E+02 -0.80828610543E+02  0.98428602560E+02  0.00000000000E+00 0.  1.
          3    1    1    2  501    0 -0.46103885419E+02 -0.31250061270E+02 -0.12987397494E+03  0.14131307069E+03  0.00000000000E+00 0. -1.
<scales pt_clust_5="13000.00000" pt_clust_6="13000.00000" pt_clust_7="13000.00000" pt_clust_8="13000.00000" pt_clust_9="55.69681"></scales>
<clustering>
<clus scale="   55.697">  2  9  1 -1</clus>
<clus scale="   79.883">  5  6 -1 -1</clus>
<clus scale="   84.996">  1  5  2 -1</clus>
<clus scale="   91.181">  7  8 -1 -1</clus>
<clus scale="   55.697">  2  5  1 -1</clus>
</clustering>
</event>
<event>
 9    2  0.5615294E-005  0.1342277E+03  0.7546771E-02  0.1233839E+00
         21   -1    0    0  501  502  0.00000000000E+00  0.00000000000E+00  0.77887949643E+02  0.77887949643E+02  0.00000000000E+00 0.  1.
          2   -1    0    0  502    0 -0.00000000000E+00 -0.00000000000E+00 -0.64358059423E+03  0.64358059423E+03  0.00000000000E+00 0. -1.
         24    2    1    2    0    0 -0.11817785462E+00  0.67954853207E+02 -0.18931153587E+03  0.21577082611E+03  0.78104518083E+02 0.  0.
         23    2    1    2    0    0  0.92608801001E+02 -0.15255663214E+02 -0.23493232574E+02  0.13710366854E+03  0.97140921694E+02 0.  0.
        -13    1    3    3    0    0 -0.27565299560E+02  0.33340586416E+02 -0.15171555801E+03  0.15776264128E+03  0.00000000000E+00 0.  1.
         14    1    3    3    0    0  0.27447121705E+02  0.34614266791E+02 -0.37595977863E+02  0.58008184826E+02  0.00000000000E+00 0. -1.
        -13    1    4    4    0    0  0.83734598767E+01  0.32738392119E+02 -0.21659257150E+02  0.40137769857E+02  0.00000000000E+00 0. -1.
         13    1    4    4    0    0  0.84235341124E+02 -0.47994055332E+02 -0.18339754243E+01  0.96965898683E+02  0.00000000000E+00 0.  1.
          1    1    1    2  501    0 -0.92490623146E+02 -0.52699189993E+02 -0.35288787614E+03  0.36859404922E+03  0.00000000000E+00 0. -1.
<scales pt_clust_5="13000.00000" pt_clust_6="13000.00000" pt_clust_7="13000.00000" pt_clust_8="13000.00000" pt_clust_9="92.63222"></scales>
<clustering>
<clus scale="   78.105">  5  6 -1 -1</clus>
<clus scale="   97.141">  7  8 -1 -1</clus>
<clus scale="  103.529">  2  5  1 -1</clus>
<clus scale="   92.632">  1  9  2 -1</clus>
<clus scale="   92.632">  1  5  2 -1</clus>
</clustering>
</event>
<event>
 9    2  0.5615294E-005  0.1345115E+03  0.7546771E-02  0.1226864E+00
         21   -1    0    0  501  502  0.00000000000E+00  0.00000000000E+00  0.10241803814E+03  0.10241803814E+03  0.00000000000E+00 0. -1.
         -1   -1    0    0    0  501 -0.00000000000E+00 -0.00000000000E+00 -0.23468363496E+03  0.23468363496E+03  0.00000000000E+00 0.  1.
         24    2    1    2    0    0  0.35548529402E+02  0.97456845969E+02 -0.10705272638E+03  0.17019860898E+03  0.82132487514E+02 0.  0.
         23    2    1    2    0    0 -0.17794770134E+02 -0.55771199900E+02 -0.25161379095E+02  0.12159421612E+03  0.10356146877E+03 0.  0.
        -11    1    3    3    0    0  0.59757554213E+02  0.52775040874E+02 -0.78604479760E+02  0.11195907495E+03  0.00000000000E+00 0.  1.
         12    1    3    3    0    0 -0.24209024810E+02  0.44681805094E+02 -0.28448246616E+02  0.58239534032E+02  0.00000000000E+00 0. -1.
        -11    1    4    4    0    0  0.97563599464E+01 -0.55124862490E+02  0.27338790327E+02  0.62300453293E+02  0.00000000000E+00 0. -1.
         11    1    4    4    0    0 -0.27551130080E+02 -0.64633740986E+00 -0.52500169422E+02  0.59293762826E+02  0.00000000000E+00 0.  1.
         -2    1    1    2    0  502 -0.17753759268E+02 -0.41685646069E+02 -0.51491346596E-01  0.45308848007E+02  0.00000000000E+00 0.  1.
<scales pt_clust_5="13000.00000" pt_clust_6="13000.00000" pt_clust_7="13000.00000" pt_clust_8="13000.00000" pt_clust_9="45.30882"></scales>
<clustering>
<clus scale="   45.309">  1  9  2 -1</clus>
<clus scale="   82.132">  5  6 -1 -1</clus>
<clus scale="  103.561">  7  8 -1 -1</clus>
<clus scale="  118.803">  2  5  1 -1</clus>
<clus scale="   45.309">  1  5  2 -1</clus>
</clustering>
</event>
<event>
 9    2  0.5615294E-005  0.1373676E+03  0.7546771E-02  0.1220248E+00
         21   -1    0    0  501  502  0.00000000000E+00  0.00000000000E+00  0.15342535030E+03  0.15342535030E+03  0.00000000000E+00 0. -1.
          2   -1    0    0  502    0 -0.00000000000E+00 -0.00000000000E+00 -0.25425939363E+03  0.25425939363E+03  0.00000000000E+00 0. -1.
         23    2    1    2    0    0  0.20750492871E+02 -0.60038903779E+02  0.10432713177E+02  0.11192854590E+03  0.91563666167E+02 0.  0.
         24    2    1    2    0    0  0.27300935915E+02  0.14795435558E+03 -0.42477799610E+02  0.17422436243E+03  0.76902097285E+02 0.  0.
        -11    1    4    4    0    0 -0.14965128269E+02  0.16668033178E+02 -0.27533905769E+02  0.35494990647E+02  0.00000000000E+00 0.  1.
         12    1    4    4    0    0  0.42266064185E+02  0.13128632240E+03 -0.14943893841E+02  0.13872937178E+03  0.00000000000E+00 0. -1.
        -11    1    3    3    0    0 -0.11902893794E+02  0.19354993468E+02  0.12741887916E+02  0.26050918612E+02  0.00000000000E+00 0. -1.
         11    1    3    3    0    0  0.32653386665E+02 -0.79393897247E+02 -0.23091747393E+01  0.85877627289E+02  0.00000000000E+00 0.  1.
          1    1    1    2  501    0 -0.48051428786E+02 -0.87915451801E+02 -0.68788956897E+02  0.12153183560E+03  0.00000000000E+00 0. -1.
<scales pt_clust_5="13000.00000" pt_clust_6="13000.00000" pt_clust_7="13000.00000" pt_clust_8="13000.00000" pt_clust_9="100.19020"></scales>
<clustering>
<clus scale="   76.902">  5  6 -1 -1</clus>
<clus scale="   91.564">  7  8 -1 -1</clus>
<clus scale="  100.190">  1  9  2 -1</clus>
<clus scale="  128.062">  1  5  2 -1</clus>
<clus scale="  100.190">  1  5  2 -1</clus>
</clustering>
</event>
<event>
 9    2  0.5615294E-005  0.1530182E+03  0.7546771E-02  0.1199130E+00
          2   -1    0    0  502    0 -0.00000000000E+00  0.00000000000E+00  0.58715247977E+03  0.58715247977E+03  0.00000000000E+00 0. -1.
         21   -1    0    0  501  502  0.00000000000E+00 -0.00000000000E+00 -0.66578350124E+02  0.66578350124E+02  0.00000000000E+00 0.  1.
         24    2    1    2    0    0 -0.12800668226E+03  0.72405077146E+02  0.25468892556E+03  0.30445906027E+03  0.78744299316E+02 0.  0.
         23    2    1    2    0    0  0.46510100568E+02 -0.94453992232E+02  0.14106903051E+03  0.19858359932E+03  0.91925124143E+02 0.  0.
        -13    1    3    3    0    0 -0.63482600133E+02  0.72583782114E+02  0.11156364276E+03  0.14746149440E+03  0.00000000000E+00 0.  1.
         14    1    3    3    0    0 -0.64524082125E+02 -0.17870496831E+00  0.14312528281E+03  0.15699756587E+03  0.00000000000E+00 0. -1.
        -13    1    4    4    0    0  0.58020940510E+02 -0.38997942162E+02  0.34635755291E+02  0.78018616850E+02  0.00000000000E+00 0.  1.
         13    1    4    4    0    0 -0.11510839943E+02 -0.55456050070E+02  0.10643327522E+03  0.12056498247E+03  0.00000000000E+00 0. -1.
          1    1    1    2  501    0  0.81496581690E+02  0.22048915086E+02  0.12481617358E+03  0.15068817031E+03  0.00000000000E+00 0. -1.
<scales pt_clust_5="13000.00000" pt_clust_6="13000.00000" pt_clust_7="13000.00000" pt_clust_8="13000.00000" pt_clust_9="84.42662"></scales>
<clustering>
<clus scale="   78.744">  5  6 -1 -1</clus>
<clus scale="   84.427">  2  9  1 -1</clus>
<clus scale="   91.925">  7  8 -1 -1</clus>
<clus scale="  145.482">  1  5  2 -1</clus>
<clus scale="   84.427">  2  5  1 -1</clus>
</clustering>
</event>
<event>
 9    2  0.5615294E-005  0.8856700E+02  0.7546771E-02  0.1311681E+00
         21   -1    0    0  501  502  0.00000000000E+00  0.00000000000E+00  0.17060249620E+02  0.17060249620E+02  0.00000000000E+00 0.  1.
          2   -1    0    0  502    0 -0.00000000000E+00 -0.00000000000E+00 -0.67548965540E+03  0.67548965540E+03  0.00000000000E+00 0. -1.
         23    2    1    2    0    0  0.33604602590E+01  0.76523664281E+01 -0.40229925247E+03  0.41196697539E+03  0.88330339434E+02 0.  0.
         24    2    1    2    0    0 -0.11030293655E+02  0.21894384288E+02 -0.17967548572E+03  0.19825946385E+03  0.80140522815E+02 0.  0.
        -13    1    4    4    0    0  0.74120568433E+01  0.39525734555E+02 -0.41651519511E+02  0.57897075542E+02  0.00000000000E+00 0.  1.
         14    1    4    4    0    0 -0.18442350498E+02 -0.17631350267E+02 -0.13802396621E+03  0.14036238831E+03  0.00000000000E+00 0. -1.
        -13    1    3    3    0    0  0.37822804544E+01 -0.38890021179E+02 -0.13096403194E+03  0.13666863961E+03  0.00000000000E+00 0. -1.
         13    1    3    3    0    0 -0.42182019534E+00  0.46542387607E+02 -0.27133522054E+03  0.27529833578E+03  0.00000000000E+00 0.  1.
          1    1    1    2  501    0  0.76698333956E+01 -0.29546750716E+02 -0.76454667583E+02  0.82323465777E+02  0.00000000000E+00 0. -1.
<scales pt_clust_5="13000.00000" pt_clust_6="13000.00000" pt_clust_7="13000.00000" pt_clust_8="13000.00000" pt_clust_9="30.52600"></scales>
<clustering>
<clus scale="   30.526">  1  9  2 -1</clus>
<clus scale="   80.141">  5  6 -1 -1</clus>
<clus scale="   80.401">  1  5  2 -1</clus>
<clus scale="   88.330">  7  8 -1 -1</clus>
<clus scale="   30.526">  1  5  2 -1</clus>
</clustering>
</event>
<event>
 9    2  0.5615294E-005  0.1150780E+03  0.7546771E-02  0.1256297E+00
         21   -1    0    0  501  502  0.00000000000E+00  0.00000000000E+00  0.57848455240E+02  0.57848455240E+02  0.00000000000E+00 0.  1.
          2   -1    0    0  502    0 -0.00000000000E+00 -0.00000000000E+00 -0.40795218061E+03  0.40795218061E+03  0.00000000000E+00 0. -1.
         23    2    1    2    0    0  0.11306452826E+02  0.94769281859E+02 -0.17695205387E+03  0.22098912551E+03  0.91733917198E+02 0.  0.
         24    2    1    2    0    0  0.33333787570E+02 -0.38866560195E+02 -0.60126260909E+02  0.11104825383E+03  0.78069177871E+02 0.  0.
        -11    1    4    4    0    0  0.45335255091E+02 -0.55605076995E+02 -0.39498606787E+02  0.81898411950E+02  0.00000000000E+00 0.  1.
         12    1    4    4    0    0 -0.12001467521E+02  0.16738516799E+02 -0.20627654122E+02  0.29149841884E+02  0.00000000000E+00 0. -1.
        -11    1    3    3    0    0 -0.28429278162E+01  0.77039685186E+02 -0.18208461968E+03  0.19773215231E+03  0.00000000000E+00 0.  1.
         11    1    3    3    0    0  0.14149380643E+02  0.17729596673E+02  0.51325658082E+01  0.23256973202E+02  0.00000000000E+00 0. -1.
          1    1    1    2  501    0 -0.44640240396E+02 -0.55902721663E+02 -0.11302541059E+03  0.13376325650E+03  0.00000000000E+00 0. -1.
<scales pt_clust_5="13000.00000" pt_clust_6="13000.00000" pt_clust_7="13000.00000" pt_clust_8="13000.00000" pt_clust_9="71.53929"></scales>
<clustering>
<clus scale="   71.539">  1  9  2 -1</clus>
<clus scale="   78.069">  5  6 -1 -1</clus>
<clus scale="   91.734">  7  8 -1 -1</clus>
<clus scale="  104.511">  1  5  2 -1</clus>
<clus scale="   71.539">  1  5  2 -1</clus>
</clustering>
</event>
<event>
 9    2  0.5615294E-005  0.2825281E+03  0.7546771E-02  0.1105405E+00
         21   -1    0    0  501  502  0.00000000000E+00  0.00000000000E+00  0.57528332249E+03  0.57528332249E+03  0.00000000000E+00 0.  1.
         -1   -1    0    0    0  501 -0.00000000000E+00 -0.00000000000E+00 -0.33985656725E+03  0.33985656725E+03  0.00000000000E+00 0.  1.
         24    2    1    2    0    0  0.12232700572E+03 -0.15200378250E+03  0.24662574755E+03  0.32513699725E+03  0.82587901087E+02 0.  0.
         23    2    1    2    0    0  0.21063568916E+03  0.11264433424E+03 -0.10717475530E+02  0.25472158641E+03  0.87818464544E+02 0.  0.
        -11    1    3    3    0    0  0.69584401645E+02 -0.10262374118E+03  0.21063298956E+03  0.24441742470E+03  0.00000000000E+00 0.  1.
         12    1    3    3    0    0  0.52742604074E+02 -0.49380041326E+02  0.35992757989E+02  0.80719572555E+02  0.00000000000E+00 0. -1.
        -11    1    4    4    0    0  0.39049015352E+02  0.51007409130E+02 -0.30904819622E+02  0.71285968199E+02  0.00000000000E+00 0. -1.
         11    1    4    4    0    0  0.17158667381E+03  0.61636925114E+02  0.20187344092E+02  0.18343561821E+03  0.00000000000E+00 0.  1.
         -2    1    1    2    0  502 -0.33296269488E+03  0.39359448258E+02 -0.48151677659E+00  0.33528130608E+03  0.00000000000E+00 0.  1.
<scales pt_clust_5="13000.00000" pt_clust_6="13000.00000" pt_clust_7="13000.00000" pt_clust_8="13000.00000" pt_clust_9="268.53332"></scales>
<clustering>
<clus scale="   82.588">  5  6 -1 -1</clus>
<clus scale="   87.818">  7  8 -1 -1</clus>
<clus scale="  211.872">  2  5  1 -1</clus>
<clus scale="  268.533">  1  9  2 -1</clus>
<clus scale="  268.533">  1  5  2 -1</clus>
</clustering>
</event>
<event>
 9    2  0.5615294E-005  0.1136507E+03  0.7546771E-02  0.1255463E+00
         21   -1    0    0  501  502  0.00000000000E+00  0.00000000000E+00  0.33890089481E+03  0.33890089481E+03  0.00000000000E+00 0. -1.
          4   -1    0    0  502    0 -0.00000000000E+00 -0.00000000000E+00 -0.35383180577E+03  0.35383180577E+03  0.00000000000E+00 0. -1.
         24    2    1    2    0    0 -0.49980334085E+02  0.10659485732E+02 -0.22405466011E+03  0.24842451387E+03  0.94353536991E+02 0.  0.
         23    2    1    2    0    0  0.10045876652E+03 -0.36368498078E+02 -0.72144208760E+02  0.15739236352E+03  0.90293620006E+02 0.  0.
        -13    1    3    3    0    0  0.27453913358E+02  0.10295853204E+02 -0.50842336097E+02  0.58691269297E+02  0.00000000000E+00 0.  1.
         14    1    3    3    0    0 -0.77434247444E+02  0.36363252809E+00 -0.17321232401E+03  0.18973324457E+03  0.00000000000E+00 0. -1.
        -13    1    4    4    0    0  0.33051600088E+02  0.25431939014E+02 -0.13202591443E+01  0.41724511676E+02  0.00000000000E+00 0.  1.
         13    1    4    4    0    0  0.67407166428E+02 -0.61800437092E+02 -0.70823949615E+02  0.11566785184E+03  0.00000000000E+00 0. -1.
          3    1    1    2  501    0 -0.50478432431E+02  0.25709012346E+02  0.28126795791E+03  0.28691582320E+03  0.00000000000E+00 0. -1.
<scales pt_clust_5="13000.00000" pt_clust_6="13000.00000" pt_clust_7="13000.00000" pt_clust_8="13000.00000" pt_clust_9="56.64826"></scales>
<clustering>
<clus scale="   56.648">  1  9  2 -1</clus>
<clus scale="   90.294">  7  8 -1 -1</clus>
<clus scale="   94.354">  5  6 -1 -1</clus>
<clus scale="  110.303">  1  7  2 -1</clus>
<clus scale="   56.648">  1  5  2 -1</clus>
</clustering>
</event>
<event>
 9    2  0.5615294E-005  0.9497708E+02  0.7546771E-02  0.1298364E+00
         -1   -1    0    0    0  501 -0.00000000000E+00  0.00000000000E+00  0.66992477712E+02  0.66992477712E+02  0.00000000000E+00 0.  1.
         21   -1    0    0  501  502  0.00000000000E+00 -0.00000000000E+00 -0.17807052881E+03  0.17807052881E+03  0.00000000000E+00 0. -1.
         23    2    1    2    0    0  0.13910128978E+02 -0.21181175593E+02 -0.26343308921E+02  0.10015105939E+03  0.93242323457E+02 0.  0.
         24    2    1    2    0    0 -0.11080895413E+02 -0.14589523760E+01 -0.89761061252E+02  0.12154864599E+03  0.81191812645E+02 0.  0.
        -13    1    4    4    0    0  0.17137803977E+02  0.27983540302E+02 -0.14346398845E+02  0.35813433412E+02  0.00000000000E+00 0.  1.
         14    1    4    4    0    0 -0.28218699389E+02 -0.29442492678E+02 -0.75414662408E+02  0.85735212582E+02  0.00000000000E+00 0. -1.
        -13    1    3    3    0    0  0.53508250850E+02 -0.14521965379E+02 -0.22421324186E+02  0.59805820501E+02  0.00000000000E+00 0.  1.
         13    1    3    3    0    0 -0.39598121872E+02 -0.66592102146E+01 -0.39219847344E+01  0.40345238886E+02  0.00000000000E+00 0. -1.
         -2    1    1    2    0  502 -0.28292335649E+01  0.22640127969E+02  0.50263190714E+01  0.23363301146E+02  0.00000000000E+00 0.  1.
<scales pt_clust_5="13000.00000" pt_clust_6="13000.00000" pt_clust_7="13000.00000" pt_clust_8="13000.00000" pt_clust_9="22.81623"></scales>
<clustering>
<clus scale="   22.816">  2  9  1 -1</clus>
<clus scale="   81.192">  5  6 -1 -1</clus>
<clus scale="   83.178">  2  5  1 -1</clus>
<clus scale="   93.242">  7  8 -1 -1</clus>
<clus scale="   22.816">  2  5  1 -1</clus>
</clustering>
</event>
<event>
 9    2  0.5615294E-005  0.1266933E+03  0.7546771E-02  0.1235808E+00
         21   -1    0    0  501  502  0.00000000000E+00  0.00000000000E+00  0.22017281719E+03  0.22017281719E+03  0.00000000000E+00 0. -1.
          2   -1    0    0  502    0 -0.00000000000E+00 -0.00000000000E+00 -0.45215550523E+03  0.45215550523E+03  0.00000000000E+00 0. -1.
         23    2    1    2    0    0  0.47521671545E+02 -0.73403339579E+02 -0.39519239268E+03  0.41525363425E+03  0.92801907310E+02 0.  0.
         24    2    1    2    0    0 -0.62044904837E+02  0.51945663999E+02  0.25869162354E+02  0.11731138576E+03  0.80900095442E+02 0.  0.
        -11    1    4    4    0    0 -0.58530315961E+02  0.51952993563E+02  0.50036348379E+02  0.92889975701E+02  0.00000000000E+00 0.  1.
         12    1    4    4    0    0 -0.35145888758E+01 -0.73295633025E-02 -0.24167186025E+02  0.24421410055E+02  0.00000000000E+00 0. -1.
        -13    1    3    3    0    0 -0.13917290426E+02 -0.15697152464E+02 -0.14898164405E+02  0.25730271490E+02  0.00000000000E+00 0.  1.
         13    1    3    3    0    0  0.61438961971E+02 -0.57706187115E+02 -0.38029422827E+03  0.38952336276E+03  0.00000000000E+00 0. -1.
          1    1    1    2  501    0  0.14523233292E+02  0.21457675580E+02  0.13734054228E+03  0.13976330241E+03  0.00000000000E+00 0. -1.
<scales pt_clust_5="13000.00000" pt_clust_6="13000.00000" pt_clust_7="13000.00000" pt_clust_8="13000.00000" pt_clust_9="25.91054"></scales>
<clustering>
<clus scale="   25.911">  1  9  2 -1</clus>
<clus scale="   80.900">  5  6 -1 -1</clus>
<clus scale="   92.802">  7  8 -1 -1</clus>
<clus scale="  118.253">  1  5  2 -1</clus>
<clus scale="   25.911">  1  5  2 -1</clus>
</clustering>
</event>
<event>
 9    2  0.5615294E-005  0.1272760E+03  0.7546771E-02  0.1234828E+00
         21   -1    0    0  501  502  0.00000000000E+00  0.00000000000E+00  0.73041899138E+03  0.73041899138E+03  0.00000000000E+00 0. -1.
          4   -1    0    0  502    0 -0.00000000000E+00 -0.00000000000E+00 -0.35468597376E+02  0.35468597376E+02  0.00000000000E+00 0. -1.
         24    2    1    2    0    0 -0.99938007121E+02  0.12252226250E+02  0.18075213473E+03  0.22133699377E+03  0.78619388747E+02 0.  0.
         23    2    1    2    0    0  0.75068248688E+02  0.22953951042E+02  0.25497985363E+03  0.28177281504E+03  0.90659074076E+02 0.  0.
        -11    1    3    3    0    0 -0.62473894190E+02  0.27575723402E+02  0.16377880736E+03  0.17744550069E+03  0.00000000000E+00 0.  1.
         12    1    3    3    0    0 -0.37464112931E+02 -0.15323497151E+02  0.16973327373E+02  0.43891493079E+02  0.00000000000E+00 0. -1.
        -11    1    4    4    0    0  0.39159460065E+02 -0.13928594659E+02  0.30726669482E+02  0.51687496352E+02  0.00000000000E+00 0.  1.
         11    1    4    4    0    0  0.35908788623E+02  0.36882545701E+02  0.22425318414E+03  0.23008531869E+03  0.00000000000E+00 0. -1.
          3    1    1    2  501    0  0.24869758433E+02 -0.35206177292E+02  0.25921840565E+03  0.26277777994E+03  0.00000000000E+00 0. -1.
<scales pt_clust_5="13000.00000" pt_clust_6="13000.00000" pt_clust_7="13000.00000" pt_clust_8="13000.00000" pt_clust_9="43.10429"></scales>
<clustering>
<clus scale="   43.104">  1  9  2 -1</clus>
<clus scale="   78.619">  5  6 -1 -1</clus>
<clus scale="   90.659">  7  8 -1 -1</clus>
<clus scale="  119.000">  2  5  1 -1</clus>
<clus scale="   43.104">  1  5  2 -1</clus>
</clustering>
</event>
<event>
 9    2  0.5615294E-005  0.9641947E+02  0.7546771E-02  0.1293501E+00
         21   -1    0    0  501  502  0.00000000000E+00  0.00000000000E+00  0.35502800513E+03  0.35502800513E+03  0.00000000000E+00 0. -1.
         -1   -1    0    0    0  501 -0.00000000000E+00 -0.00000000000E+00 -0.36058292633E+02  0.36058292633E+02  0.00000000000E+00 0.  1.
         23    2    1    2    0    0  0.19613706819E+02 -0.16010171565E+02  0.91735566523E+02  0.13251450856E+03  0.92215279234E+02 0.  0.
         24    2    1    2    0    0 -0.39484802329E+02 -0.28152260651E+01  0.20041257846E+03  0.22024878676E+03  0.82324670358E+02 0.  0.
        -13    1    4    4    0    0 -0.21308408338E+02  0.15827524003E+02  0.10476244711E+02  0.28536125967E+02  0.00000000000E+00 0.  1.
         14    1    4    4    0    0 -0.18176393992E+02 -0.18642750068E+02  0.18993633375E+03  0.19171266079E+03  0.00000000000E+00 0. -1.
        -11    1    3    3    0    0  0.44051756810E+02  0.22728696068E+02  0.42836685419E+02  0.65514368811E+02  0.00000000000E+00 0.  1.
         11    1    3    3    0    0 -0.24438049991E+02 -0.38738867633E+02  0.48898881103E+02  0.67000139746E+02  0.00000000000E+00 0. -1.
         -2    1    1    2    0  502  0.19871095510E+02  0.18825397630E+02  0.26821567507E+02  0.38323002443E+02  0.00000000000E+00 0.  1.
<scales pt_clust_5="13000.00000" pt_clust_6="13000.00000" pt_clust_7="13000.00000" pt_clust_8="13000.00000" pt_clust_9="27.37256"></scales>
<clustering>
<clus scale="   27.373">  1  9  2 -1</clus>
<clus scale="   82.325">  5  6 -1 -1</clus>
<clus scale="   87.008">  1  5  2 -1</clus>
<clus scale="   92.215">  7  8 -1 -1</clus>
<clus scale="   27.373">  1  5  2 -1</clus>
</clustering>
</event>
<event>
 9    2  0.5615294E-005  0.1032336E+03  0.7546771E-02  0.1278776E+00
         21   -1    0    0  501  502  0.00000000000E+00  0.00000000000E+00  0.71929822757E+02  0.71929822757E+02  0.00000000000E+00 0. -1.
          2   -1    0    0  502    0 -0.00000000000E+00 -0.00000000000E+00 -0.74185485989E+03  0.74185485989E+03  0.00000000000E+00 0. -1.
         24    2    1    2    0    0  0.37715180890E+02  0.21766048395E+02 -0.53037810283E+03  0.53827620204E+03  0.80895871257E+02 0.  0.
         23    2    1    2    0    0 -0.10027564818E+03  0.38970467156E+02 -0.12141991820E+03  0.18645049330E+03  0.91908035493E+02 0.  0.
        -13    1    3    3    0    0  0.10310506778E+02 -0.23895602053E+02 -0.67476777606E+02  0.72321655564E+02  0.00000000000E+00 0.  1.
         14    1    3    3    0    0  0.27404674111E+02  0.45661650448E+02 -0.46290132523E+03  0.46595454648E+03  0.00000000000E+00 0. -1.
        -11    1    4    4    0    0 -0.20742856704E+02  0.15561646578E+02  0.12622967110E+02  0.28840427305E+02  0.00000000000E+00 0.  1.
         11    1    4    4    0    0 -0.79532791479E+02  0.23408820578E+02 -0.13404288531E+03  0.15761006600E+03  0.00000000000E+00 0. -1.
          1    1    1    2  501    0  0.62560467294E+02 -0.60736515551E+02 -0.18127016096E+02  0.89057987300E+02  0.00000000000E+00 0. -1.
<scales pt_clust_5="13000.00000" pt_clust_6="13000.00000" pt_clust_7="13000.00000" pt_clust_8="13000.00000" pt_clust_9="87.19367"></scales>
<clustering>
<clus scale="   80.896">  5  6 -1 -1</clus>
<clus scale="   87.194">  1  9  2 -1</clus>
<clus scale="   91.908">  7  8 -1 -1</clus>
<clus scale="   93.564">  2  5  1 -1</clus>
<clus scale="   87.194">  1  5  2 -1</clus>
</clustering>
</event>
