<event>
 9    2  0.4178938E-005  0.2023638E+03  0.7546771E-02  0.1184989E+00
          2   -1    0    0  502    0 -0.00000000000E+00  0.00000000000E+00  0.83256597281E+03  0.83256597281E+03  0.00000000000E+00 0. -1.
         21   -1    0    0  501  502  0.00000000000E+00 -0.00000000000E+00 -0.32870153494E+02  0.32870153494E+02  0.00000000000E+00 0. -1.
         24    2    1    2    0    0  0.27171049754E+02 -0.14883642151E+02  0.47604481235E+03  0.48372801937E+03  0.80089603639E+02 0.  0.
         23    2    1    2    0    0  0.25773849301E+02 -0.14725629481E+02  0.61482389042E+02  0.11261285330E+03  0.89556881898E+02 0.  0.
        -13    1    3    3    0    0  0.16162351033E+02 -0.25198952269E+02  0.56751569132E+02  0.64163458334E+02  0.00000000000E+00 0.  1.
         14    1    3    3    0    0  0.11008698721E+02  0.10315310118E+02  0.41929324322E+03  0.41956456104E+03  0.00000000000E+00 0. -1.
        -13    1    4    4    0    0  0.12340164073E+02  0.37891067061E+02  0.29605140430E+02  0.49643498590E+02  0.00000000000E+00 0.  1.
         13    1    4    4    0    0  0.13433685227E+02 -0.52616696542E+02  0.31877248612E+02  0.62969354712E+02  0.00000000000E+00 0. -1.
          1    1    1    2  501    0 -0.52944899054E+02  0.29609271633E+02  0.26216861792E+03  0.26909525363E+03  0.00000000000E+00 0. -1.
<scales pt_clust_5="13000.00000" pt_clust_6="13000.00000" pt_clust_7="13000.00000" pt_clust_8="13000.00000" pt_clust_9="13000.00000"></scales>
<clustering>
<clus scale="   80.090">  5  6 -1 -1</clus>
<clus scale="   85.873">  1  5  2 -1</clus>
<clus scale="   89.557">  7  8 -1 -1</clus>
<clus scale="   37.329">  7  9 -1 -1</clus>
<clus scale="  202.364">  2  5  1 -1</clus>
</clustering>
</event>
<event>
 9    2  0.4178938E-005  0.1577439E+03  0.7546771E-02  0.1218127E+00
         21   -1    0    0  501  502  0.00000000000E+00  0.00000000000E+00  0.13343284009E+03  0.13343284009E+03  0.00000000000E+00 0.  1.
          2   -1    0    0  502    0 -0.00000000000E+00 -0.00000000000E+00 -0.11441255223E+03  0.11441255223E+03  0.00000000000E+00 0. -1.
         24    2    1    2    0    0  0.28321234241E+02 -0.34236723749E+01 -0.35286287281E+01  0.88498013507E+02  0.83699661484E+02 0.  0.
         23    2    1    2    0    0 -0.56857540476E+02  0.37388804692E+02  0.25074318579E+02  0.11491396074E+03  0.89139184961E+02 0.  0.
        -11    1    3    3    0    0 -0.30810019996E+01 -0.38488153155E+02  0.92905574195E+01  0.39713284475E+02  0.00000000000E+00 0.  1.
         12    1    3    3    0    0  0.31402236241E+02  0.35064480780E+02 -0.12819186148E+02  0.48784729033E+02  0.00000000000E+00 0. -1.
        -11    1    4    4    0    0 -0.41670959018E+02  0.57762070461E+02 -0.96605178240E+01  0.71876638862E+02  0.00000000000E+00 0.  1.
         11    1    4    4    0    0 -0.15186581457E+02 -0.20373265770E+02  0.34734836403E+02  0.43037321878E+02  0.00000000000E+00 0. -1.
          1    1    1    2  501    0  0.28536306234E+02 -0.33965132317E+02 -0.25254019878E+01  0.44433418077E+02  0.00000000000E+00 0. -1.
<scales pt_clust_5="13000.00000" pt_clust_6="13000.00000" pt_clust_7="13000.00000" pt_clust_8="13000.00000" pt_clust_9="13000.00000"></scales>
<clustering>
<clus scale="   83.700">  5  6 -1 -1</clus>
<clus scale="   88.428">  2  5  1 -1</clus>
<clus scale="   89.139">  7  8 -1 -1</clus>
<clus scale="   51.947">  7  9 -1 -1</clus>
<clus scale="  157.744">  1  5  2 -1</clus>
</clustering>
</event>
<event>
 9    2  0.4178938E-005  0.2708768E+03  0.7546771E-02  0.1133001E+00
         21   -1    0    0  501  502  0.00000000000E+00  0.00000000000E+00  0.64256075055E+02  0.64256075055E+02  0.00000000000E+00 0.  1.
          2   -1    0    0  502    0 -0.00000000000E+00 -0.00000000000E+00 -0.61682481837E+03  0.61682481837E+03  0.00000000000E+00 0. -1.
         24    2    1    2    0    0  0.83855415056E+02 -0.18939481479E+02 -0.11538778184E+03  0.16678385241E+03  0.84333140772E+02 0.  0.
         23    2    1    2    0    0  0.15304232836E+02  0.76918616436E+02 -0.93065616970E+02  0.15151668573E+03  0.90251891368E+02 0.  0.
        -11    1    3    3    0    0  0.46079498599E+02  0.20514755083E+02 -0.15212123480E+02  0.52683812200E+02  0.00000000000E+00 0.  1.
         12    1    3    3    0    0  0.37775916457E+02 -0.39454236562E+02 -0.10017565836E+03  0.11410004021E+03  0.00000000000E+00 0. -1.
        -11    1    4    4    0    0 -0.20118770315E+02  0.72820841732E+02 -0.34738920977E+02  0.83153066932E+02  0.00000000000E+00 0. -1.
         11    1    4    4    0    0  0.35423003151E+02  0.40977747041E+01 -0.58326695993E+02  0.68363618798E+02  0.00000000000E+00 0.  1.
          1    1    1    2  501    0 -0.99159647892E+02 -0.57979134957E+02 -0.34411534450E+03  0.36278035529E+03  0.00000000000E+00 0. -1.
<scales pt_clust_5="13000.00000" pt_clust_6="13000.00000" pt_clust_7="13000.00000" pt_clust_8="13000.00000" pt_clust_9="13000.00000"></scales>
<clustering>
<clus scale="   84.333">  5  6 -1 -1</clus>
<clus scale="   90.252">  7  8 -1 -1</clus>
<clus scale="  114.866">  7  9 -1 -1</clus>
<clus scale="  120.426">  2  5  1 -1</clus>
<clus scale="  270.877">  1  5  2 -1</clus>
</clustering>
</event>
<event>
 9    2  0.4178938E-005  0.1342880E+03  0.7546771E-02  0.1241192E+00
         21   -1    0    0  501  502  0.00000000000E+00  0.00000000000E+00  0.18708013678E+03  0.18708013678E+03  0.00000000000E+00 0.  1.
          2   -1    0    0  502    0 -0.00000000000E+00 -0.00000000000E+00 -0.18522956788E+03  0.18522956788E+03  0.00000000000E+00 0. -1.
         24    2    1    2    0    0 -0.11262962671E+02 -0.35958405604E+02 -0.14699775374E+03  0.17183754891E+03  0.80622219952E+02 0.  0.
         23    2    1    2    0    0 -0.87670295063E+01  0.56279383988E+02  0.12377527468E+03  0.16248794214E+03  0.88531253529E+02 0.  0.
        -13    1    3    3    0    0 -0.29635218909E+02  0.14642312696E+02 -0.38680214399E+02  0.50880276207E+02  0.00000000000E+00 0.  1.
         14    1    3    3    0    0  0.18372256237E+02 -0.50600718300E+02 -0.10831753934E+03  0.12095727271E+03  0.00000000000E+00 0. -1.
        -11    1    4    4    0    0 -0.22080692867E+02  0.75837789875E+02  0.10894030750E+03  0.13456194844E+03  0.00000000000E+00 0.  1.
         11    1    4    4    0    0  0.13313663361E+02 -0.19558405887E+02  0.14834967183E+02  0.27925993702E+02  0.00000000000E+00 0. -1.
          1    1    1    2  501    0  0.20029992178E+02 -0.20320978384E+02  0.25073047954E+02  0.37984213601E+02  0.00000000000E+00 0. -1.
<scales pt_clust_5="13000.00000" pt_clust_6="13000.00000" pt_clust_7="13000.00000" pt_clust_8="13000.00000" pt_clust_9="13000.00000"></scales>
<clustering>
<clus scale="   80.622">  5  6 -1 -1</clus>
<clus scale="   88.531">  7  8 -1 -1</clus>
<clus scale="   28.533">  7  9 -1 -1</clus>
<clus scale="   88.993">  2  5  1 -1</clus>
<clus scale="  134.288">  1  5  2 -1</clus>
</clustering>
</event>
<event>
 9    2  0.4178938E-005  0.2052131E+03  0.7546771E-02  0.1184314E+00
         21   -1    0    0  501  502  0.00000000000E+00  0.00000000000E+00  0.13242777660E+03  0.13242777660E+03  0.00000000000E+00 0. -1.
          4   -1    0    0  502    0 -0.00000000000E+00 -0.00000000000E+00 -0.19643359859E+03  0.19643359859E+03  0.00000000000E+00 0. -1.
         24    2    1    2    0    0  0.20680133496E+02 -0.89377248161E+01  0.46634573312E+02  0.95722532338E+02  0.80501359758E+02 0.  0.
         23    2    1    2    0    0 -0.15083423677E+02  0.47361029513E+02  0.12372967789E+02  0.10414287004E+03  0.90675632127E+02 0.  0.
        -11    1    3    3    0    0 -0.28322311381E+02  0.97917527477E+01  0.94542297829E+01  0.31423147592E+02  0.00000000000E+00 0.  1.
         12    1    3    3    0    0  0.49002444877E+02 -0.18729477564E+02  0.37180343529E+02  0.64299384745E+02  0.00000000000E+00 0. -1.
        -13    1    4    4    0    0  0.30451914008E+02 -0.31150108627E+01  0.18697020891E+02  0.35869220087E+02  0.00000000000E+00 0.  1.
         13    1    4    4    0    0 -0.45535337686E+02  0.50476040376E+02 -0.63240531020E+01  0.68273649952E+02  0.00000000000E+00 0. -1.
          3    1    1    2  501    0 -0.55967098184E+01 -0.38423304697E+02 -0.12301336309E+03  0.12899597282E+03  0.00000000000E+00 0. -1.
<scales pt_clust_5="13000.00000" pt_clust_6="13000.00000" pt_clust_7="13000.00000" pt_clust_8="13000.00000" pt_clust_9="13000.00000"></scales>
<clustering>
<clus scale="   80.501">  5  6 -1 -1</clus>
<clus scale="   83.594">  2  5  1 -1</clus>
<clus scale="   90.676">  7  8 -1 -1</clus>
<clus scale="   45.981">  7  9 -1 -1</clus>
<clus scale="  205.213">  1  5  2 -1</clus>
</clustering>
</event>
<event>
 9    2  0.4178938E-005  0.1950676E+03  0.7546771E-02  0.1162169E+00
          2   -1    0    0  502    0 -0.00000000000E+00  0.00000000000E+00  0.23915291686E+03  0.23915291686E+03  0.00000000000E+00 0. -1.
         21   -1    0    0  501  502  0.00000000000E+00 -0.00000000000E+00 -0.15186589618E+03  0.15186589618E+03  0.00000000000E+00 0.  1.
         24    2    1    2    0    0  0.12037091519E+03 -0.71212289253E+02  0.10939588160E+03  0.19470226120E+03  0.79882189765E+02 0.  0.
         23    2    1    2    0    0 -0.11280212089E+03  0.45911347161E+02 -0.46452296246E+02  0.16039960373E+03  0.93477520159E+02 0.  0.
        -13    1    3    3    0    0  0.10428166369E+03 -0.87153745974E+02  0.10472965151E+03  0.17157721505E+03  0.00000000000E+00 0.  1.
         14    1    3    3    0    0  0.16089251501E+02  0.15941456721E+02  0.46662300896E+01  0.23125046151E+02  0.00000000000E+00 0. -1.
        -11    1    4    4    0    0 -0.70290121684E+02  0.71298888390E+02 -0.47623048839E+02  0.11087013788E+03  0.00000000000E+00 0.  1.
         11    1    4    4    0    0 -0.42511999209E+02 -0.25387541229E+02  0.11707525934E+01  0.49529465856E+02  0.00000000000E+00 0. -1.
          1    1    1    2  501    0 -0.75687943013E+01  0.25300942093E+02  0.24343435321E+02  0.35916948105E+02  0.00000000000E+00 0. -1.
<scales pt_clust_5="13000.00000" pt_clust_6="13000.00000" pt_clust_7="13000.00000" pt_clust_8="13000.00000" pt_clust_9="13000.00000"></scales>
<clustering>
<clus scale="   79.882">  5  6 -1 -1</clus>
<clus scale="   93.478">  7  8 -1 -1</clus>
<clus scale="   26.409">  7  9 -1 -1</clus>
<clus scale="  161.064">  1  5  2 -1</clus>
<clus scale="  195.068">  2  5  1 -1</clus>
</clustering>
</event>
<event>
 9    2  0.4178938E-005  0.2103175E+03  0.7546771E-02  0.1170360E+00
          2   -1    0    0  502    0 -0.00000000000E+00  0.00000000000E+00  0.86489590495E+03  0.86489590495E+03  0.00000000000E+00 0. -1.
         21   -1    0    0  501  502  0.00000000000E+00 -0.00000000000E+00 -0.29138732263E+02  0.29138732263E+02  0.00000000000E+00 0. -1.
         24    2    1    2    0    0  0.55730996450E+02  0.41325448185E+02  0.25214713965E+03  0.27368463511E+03  0.80693015985E+02 0.  0.
         23    2    1    2    0    0 -0.56115617332E+02  0.43149265120E+02  0.23332152164E+03  0.26001936735E+03  0.90334474866E+02 0.  0.
        -13    1    3    3    0    0 -0.20957653432E+02  0.55496114846E+01  0.46427394316E+02  0.51239870881E+02  0.00000000000E+00 0.  1.
         14    1    3    3    0    0  0.76688649883E+02  0.35775836701E+02  0.20571974533E+03  0.22244476423E+03  0.00000000000E+00 0. -1.
        -13    1    4    4    0    0 -0.71487010324E+02  0.58641731447E+02  0.17881102024E+03  0.20130232555E+03  0.00000000000E+00 0. -1.
         13    1    4    4    0    0  0.15371392992E+02 -0.15492466327E+02  0.54510501396E+02  0.58717041800E+02  0.00000000000E+00 0.  1.
          1    1    1    2  501    0  0.38462088171E+00 -0.84474713306E+02  0.35028851140E+03  0.36033063475E+03  0.00000000000E+00 0. -1.
<scales pt_clust_5="13000.00000" pt_clust_6="13000.00000" pt_clust_7="13000.00000" pt_clust_8="13000.00000" pt_clust_9="13000.00000"></scales>
<clustering>
<clus scale="   80.693">  5  6 -1 -1</clus>
<clus scale="   90.334">  7  8 -1 -1</clus>
<clus scale="   84.476">  7  9 -1 -1</clus>
<clus scale="  106.420">  1  5  2 -1</clus>
<clus scale="  210.318">  2  5  1 -1</clus>
</clustering>
</event>
<event>
 9    2  0.4178938E-005  0.2144934E+03  0.7546771E-02  0.1161423E+00
          2   -1    0    0  502    0 -0.00000000000E+00  0.00000000000E+00  0.18880527546E+03  0.18880527546E+03  0.00000000000E+00 0. -1.
         21   -1    0    0  501  502  0.00000000000E+00 -0.00000000000E+00 -0.16872942586E+03  0.16872942586E+03  0.00000000000E+00 0. -1.
         24    2    1    2    0    0  0.70754737342E+02  0.60949337191E+02 -0.48329833820E+02  0.13239754751E+03  0.80450501490E+02 0.  0.
         23    2    1    2    0    0  0.75973295554E+01 -0.92084563339E+02  0.36734407601E+02  0.13507318539E+03  0.91422439740E+02 0.  0.
        -13    1    3    3    0    0  0.20957153632E+02  0.55216801644E+02  0.49217552700E+01  0.59264839045E+02  0.00000000000E+00 0.  1.
         14    1    3    3    0    0  0.49797583710E+02  0.57325355471E+01 -0.53251589090E+02  0.73132708467E+02  0.00000000000E+00 0. -1.
        -11    1    4    4    0    0 -0.37470349629E+02 -0.21360871543E+02 -0.92889770472E+00  0.43141358177E+02  0.00000000000E+00 0.  1.
         11    1    4    4    0    0  0.45067679184E+02 -0.70723691796E+02  0.37663305306E+02  0.91931827213E+02  0.00000000000E+00 0. -1.
          1    1    1    2  501    0 -0.78352066897E+02  0.31135226148E+02  0.31671275822E+02  0.90063968414E+02  0.00000000000E+00 0. -1.
<scales pt_clust_5="13000.00000" pt_clust_6="13000.00000" pt_clust_7="13000.00000" pt_clust_8="13000.00000" pt_clust_9="13000.00000"></scales>
<clustering>
<clus scale="   80.451">  5  6 -1 -1</clus>
<clus scale="   91.422">  7  8 -1 -1</clus>
<clus scale="   84.312">  7  9 -1 -1</clus>
<clus scale="  123.261">  1  5  2 -1</clus>
<clus scale="  214.493">  2  5  1 -1</clus>
</clustering>
</event>
<event>
 9    2  0.4178938E-005  0.3234826E+03  0.7546771E-02  0.1122341E+00
          2   -1    0    0  502    0 -0.00000000000E+00  0.00000000000E+00  0.77467137871E+03  0.77467137871E+03  0.00000000000E+00 0. -1.
         21   -1    0    0  501  502  0.00000000000E+00 -0.00000000000E+00 -0.58877090511E+02  0.58877090511E+02  0.00000000000E+00 0. -1.
         24    2    1    2    0    0  0.46331793362E+02 -0.27127332951E+01  0.87889965006E+02  0.12721651732E+03  0.79406563533E+02 0.  0.
         23    2    1    2    0    0  0.84855247993E+02  0.87315922571E+02  0.42424000263E+03  0.44972545369E+03  0.86307128415E+02 0.  0.
        -11    1    3    3    0    0  0.12866533593E-01 -0.34394408705E+02  0.22750252493E+02  0.41237719435E+02  0.00000000000E+00 0.  1.
         12    1    3    3    0    0  0.46318926828E+02  0.31681675410E+02  0.65139712513E+02  0.85978797884E+02  0.00000000000E+00 0. -1.
        -13    1    4    4    0    0  0.50175408320E+02 -0.37548206651E+01  0.11585090049E+03  0.12630558745E+03  0.00000000000E+00 0.  1.
         13    1    4    4    0    0  0.34679839673E+02  0.91070743237E+02  0.30838910214E+03  0.32341986623E+03  0.00000000000E+00 0. -1.
          1    1    1    2  501    0 -0.13118704135E+03 -0.84603189276E+02  0.20366432056E+03  0.25660649821E+03  0.00000000000E+00 0. -1.
<scales pt_clust_5="13000.00000" pt_clust_6="13000.00000" pt_clust_7="13000.00000" pt_clust_8="13000.00000" pt_clust_9="13000.00000"></scales>
<clustering>
<clus scale="   79.407">  5  6 -1 -1</clus>
<clus scale="   86.307">  7  8 -1 -1</clus>
<clus scale="   91.975">  1  5  2 -1</clus>
<clus scale="  143.488">  7  9 -1 -1</clus>
<clus scale="  323.483">  2  5  1 -1</clus>
</clustering>
</event>
<event>
 9    2  0.4178938E-005  0.3765960E+03  0.7546771E-02  0.1064416E+00
         -1   -1    0    0    0  501 -0.00000000000E+00  0.00000000000E+00  0.38369995790E+03  0.38369995790E+03  0.00000000000E+00 0.  1.
         21   -1    0    0  501  502  0.00000000000E+00 -0.00000000000E+00 -0.30128701105E+03  0.30128701105E+03  0.00000000000E+00 0.  1.
         24    2    1    2    0    0  0.10441606991E+03 -0.23297449844E+03  0.14371512559E+03  0.30343419603E+03  0.78983804768E+02 0.  0.
         23    2    1    2    0    0  0.33558201560E+02  0.16749126238E+02 -0.76835023135E+02  0.12458666538E+03  0.90617494390E+02 0.  0.
        -13    1    3    3    0    0  0.77258686658E+02 -0.21145745392E+03  0.14661978604E+03  0.26866432800E+03  0.00000000000E+00 0.  1.
         14    1    3    3    0    0  0.27157383248E+02 -0.21517044522E+02 -0.29046604551E+01  0.34769868021E+02  0.00000000000E+00 0. -1.
        -13    1    4    4    0    0  0.92508608347E+01 -0.35864854198E+02 -0.45603496932E+02  0.58749852130E+02  0.00000000000E+00 0.  1.
         13    1    4    4    0    0  0.24307340725E+02  0.52613980436E+02 -0.31231526203E+02  0.65836813254E+02  0.00000000000E+00 0. -1.
         -2    1    1    2    0  502 -0.13797427147E+03  0.21622537220E+03  0.15532844397E+02  0.25696610754E+03  0.00000000000E+00 0.  1.
<scales pt_clust_5="13000.00000" pt_clust_6="13000.00000" pt_clust_7="13000.00000" pt_clust_8="13000.00000" pt_clust_9="13000.00000"></scales>
<clustering>
<clus scale="   78.984">  5  6 -1 -1</clus>
<clus scale="   90.617">  7  8 -1 -1</clus>
<clus scale="  256.496">  7  9 -1 -1</clus>
<clus scale="  267.242">  1  5  2 -1</clus>
<clus scale="  376.596">  2  5  1 -1</clus>
</clustering>
</event>
<event>
 9    2  0.4178938E-005  0.3955600E+03  0.7546771E-02  0.1066644E+00
         21   -1    0    0  501  502  0.00000000000E+00  0.00000000000E+00  0.10523194568E+03  0.10523194568E+03  0.00000000000E+00 0.  1.
          2   -1    0    0  502    0 -0.00000000000E+00 -0.00000000000E+00 -0.94470218500E+03  0.94470218500E+03  0.00000000000E+00 0. -1.
         24    2    1    2    0    0  0.19716564441E+03 -0.10009042000E+02 -0.42433112725E+03  0.47651614653E+03  0.89645189997E+02 0.  0.
         23    2    1    2    0    0 -0.98063589116E+02 -0.14617264868E+03 -0.15001632894E+03  0.25014715652E+03  0.95319411624E+02 0.  0.
        -13    1    3    3    0    0  0.18157428905E+02 -0.31008946813E+02 -0.57626431092E+02  0.67912094411E+02  0.00000000000E+00 0.  1.
         14    1    3    3    0    0  0.17900821551E+03  0.20999904813E+02 -0.36670469616E+03  0.40860405212E+03  0.00000000000E+00 0. -1.
        -11    1    4    4    0    0 -0.21752392385E+01 -0.49047560604E+02 -0.86824566369E+02  0.99744173725E+02  0.00000000000E+00 0. -1.
         11    1    4    4    0    0 -0.95888349877E+02 -0.97125088074E+02 -0.63191762575E+02  0.15040298279E+03  0.00000000000E+00 0.  1.
          1    1    1    2  501    0 -0.99102055299E+02  0.15618169068E+03 -0.26512278313E+03  0.32327082763E+03  0.00000000000E+00 0. -1.
<scales pt_clust_5="13000.00000" pt_clust_6="13000.00000" pt_clust_7="13000.00000" pt_clust_8="13000.00000" pt_clust_9="13000.00000"></scales>
<clustering>
<clus scale="   89.645">  5  6 -1 -1</clus>
<clus scale="   95.319">  7  8 -1 -1</clus>
<clus scale="  184.970">  7  9 -1 -1</clus>
<clus scale="  216.820">  2  5  1 -1</clus>
<clus scale="  395.560">  1  5  2 -1</clus>
</clustering>
</event>
<event>
 9    2  0.4178938E-005  0.5137948E+03  0.7546771E-02  0.1035734E+00
         21   -1    0    0  501  502  0.00000000000E+00  0.00000000000E+00  0.43702302384E+03  0.43702302384E+03  0.00000000000E+00 0. -1.
          2   -1    0    0  502    0 -0.00000000000E+00 -0.00000000000E+00 -0.59664638278E+03  0.59664638278E+03  0.00000000000E+00 0. -1.
         24    2    1    2    0    0  0.15377637467E+03 -0.16853270739E+03 -0.40053894642E+03  0.46619660082E+03  0.69694878987E+02 0.  0.
         23    2    1    2    0    0  0.14321964531E+01 -0.83632096582E+02 -0.66202046538E+02  0.14086053448E+03  0.91992393401E+02 0.  0.
        -13    1    3    3    0    0  0.60660859501E+02 -0.44871546105E+02 -0.19346405539E+03  0.20765725668E+03  0.00000000000E+00 0.  1.
         14    1    3    3    0    0  0.93115515165E+02 -0.12366116128E+03 -0.20707489103E+03  0.25853934414E+03  0.00000000000E+00 0. -1.
        -13    1    4    4    0    0  0.26471800851E+02 -0.30766385192E+02  0.12801557490E+02  0.42558272665E+02  0.00000000000E+00 0. -1.
         13    1    4    4    0    0 -0.25039604398E+02 -0.52865711390E+02 -0.79003604027E+02  0.98302261818E+02  0.00000000000E+00 0.  1.
          1    1    1    2  501    0 -0.15520857112E+03  0.25216480397E+03  0.30711763401E+03  0.42661227131E+03  0.00000000000E+00 0. -1.
<scales pt_clust_5="13000.00000" pt_clust_6="13000.00000" pt_clust_7="13000.00000" pt_clust_8="13000.00000" pt_clust_9="13000.00000"></scales>
<clustering>
<clus scale="   69.695">  5  6 -1 -1</clus>
<clus scale="   91.992">  7  8 -1 -1</clus>
<clus scale="  238.554">  2  5  1 -1</clus>
<clus scale="  214.656">  7  9 -1 -1</clus>
<clus scale="  513.795">  1  5  2 -1</clus>
</clustering>
</event>
<event>
 9    2  0.4178938E-005  0.2784644E+03  0.7546771E-02  0.1131074E+00
         21   -1    0    0  501  502  0.00000000000E+00  0.00000000000E+00  0.36689677134E+03  0.36689677134E+03  0.00000000000E+00 0.  1.
          2   -1    0    0  502    0 -0.00000000000E+00 -0.00000000000E+00 -0.11514688497E+03  0.11514688497E+03  0.00000000000E+00 0. -1.
         24    2    1    2    0    0 -0.53999171011E+02 -0.61700599267E+02  0.14012873304E+03  0.18204080061E+03  0.82340250447E+02 0.  0.
         23    2    1    2    0    0  0.22934310738E+02 -0.63639421698E+02  0.12990194522E+03  0.16958301920E+03  0.85486410761E+02 0.  0.
        -11    1    3    3    0    0 -0.62590491532E+02 -0.75408112390E+02  0.13055147654E+03  0.16324105204E+03  0.00000000000E+00 0.  1.
         12    1    3    3    0    0  0.85913205216E+01  0.13707513123E+02  0.95772565088E+01  0.18799748577E+02  0.00000000000E+00 0. -1.
        -11    1    4    4    0    0 -0.55156152022E+01 -0.53937432837E+02  0.23634325250E+02  0.59146005801E+02  0.00000000000E+00 0.  1.
         11    1    4    4    0    0  0.28449925940E+02 -0.97019888612E+01  0.10626761997E+03  0.11043701340E+03  0.00000000000E+00 0. -1.
          1    1    1    2  501    0  0.31064860273E+02  0.12534002097E+03 -0.18280791900E+02  0.13041983650E+03  0.00000000000E+00 0. -1.
<scales pt_clust_5="13000.00000" pt_clust_6="13000.00000" pt_clust_7="13000.00000" pt_clust_8="13000.00000" pt_clust_9="13000.00000"></scales>
<clustering>
<clus scale="   82.340">  5  6 -1 -1</clus>
<clus scale="   85.486">  7  8 -1 -1</clus>
<clus scale="  116.202">  2  5  1 -1</clus>
<clus scale="   77.503">  7  9 -1 -1</clus>
<clus scale="  278.464">  1  5  2 -1</clus>
</clustering>
</event>
<event>
 9    2  0.4178938E-005  0.1360419E+03  0.7546771E-02  0.1242055E+00
         21   -1    0    0  501  502  0.00000000000E+00  0.00000000000E+00  0.46091025950E+02  0.46091025950E+02  0.00000000000E+00 0.  1.
          2   -1    0    0  502    0 -0.00000000000E+00 -0.00000000000E+00 -0.30708950229E+03  0.30708950229E+03  0.00000000000E+00 0. -1.
         24    2    1    2    0    0  0.19919003189E+02 -0.41116566471E+01 -0.16952559449E+03  0.18924555005E+03  0.81616656498E+02 0.  0.
         23    2    1    2    0    0 -0.30486022198E+01  0.37523916394E+02 -0.59213125335E+02  0.11452160530E+03  0.90507820605E+02 0.  0.
        -11    1    3    3    0    0 -0.23772303764E+02  0.44019984547E+01 -0.15035268159E+02  0.28470323237E+02  0.00000000000E+00 0.  1.
         12    1    3    3    0    0  0.43691306953E+02 -0.85136551018E+01 -0.15449032634E+03  0.16077522682E+03  0.00000000000E+00 0. -1.
        -11    1    4    4    0    0  0.18594903266E+02  0.54142945487E+02 -0.98077562337E+01  0.58081159216E+02  0.00000000000E+00 0.  1.
         11    1    4    4    0    0 -0.21643505486E+02 -0.16619029093E+02 -0.49405369101E+02  0.56440446081E+02  0.00000000000E+00 0. -1.
          1    1    1    2  501    0 -0.16870400969E+02 -0.33412259747E+02 -0.32259756511E+02  0.49413372890E+02  0.00000000000E+00 0. -1.
<scales pt_clust_5="13000.00000" pt_clust_6="13000.00000" pt_clust_7="13000.00000" pt_clust_8="13000.00000" pt_clust_9="13000.00000"></scales>
<clustering>
<clus scale="   81.617">  5  6 -1 -1</clus>
<clus scale="   84.113">  2  5  1 -1</clus>
<clus scale="   90.508">  7  8 -1 -1</clus>
<clus scale="   36.280">  7  9 -1 -1</clus>
<clus scale="  136.042">  1  5  2 -1</clus>
</clustering>
</event>
<event>
 9    2  0.4178938E-005  0.3038036E+03  0.7546771E-02  0.1125285E+00
         21   -1    0    0  501  502  0.00000000000E+00  0.00000000000E+00  0.28034097540E+03  0.28034097540E+03  0.00000000000E+00 0. -1.
          4   -1    0    0  502    0 -0.00000000000E+00 -0.00000000000E+00 -0.16357669765E+03  0.16357669765E+03  0.00000000000E+00 0. -1.
         24    2    1    2    0    0 -0.55038916726E+02 -0.16645997017E+02 -0.28650993795E+02  0.10710580245E+03  0.85699486009E+02 0.  0.
         23    2    1    2    0    0 -0.60458076042E+02  0.64123451296E+01 -0.41157919851E+02  0.11714430650E+03  0.91282621839E+02 0.  0.
        -13    1    3    3    0    0  0.11159151597E+02 -0.20715666347E+02  0.14817845234E+02  0.27807086038E+02  0.00000000000E+00 0.  1.
         14    1    3    3    0    0 -0.66198068324E+02  0.40696693302E+01 -0.43468839029E+02  0.79298716413E+02  0.00000000000E+00 0. -1.
        -13    1    4    4    0    0 -0.62578394839E+02 -0.25437678863E+02 -0.33088156914E+01  0.67631939701E+02  0.00000000000E+00 0. -1.
         13    1    4    4    0    0  0.21203187967E+01  0.31850023992E+02 -0.37849104160E+02  0.49512366797E+02  0.00000000000E+00 0.  1.
          3    1    1    2  501    0  0.11549699277E+03  0.10233651887E+02  0.18657319140E+03  0.21966756410E+03  0.00000000000E+00 0. -1.
<scales pt_clust_5="13000.00000" pt_clust_6="13000.00000" pt_clust_7="13000.00000" pt_clust_8="13000.00000" pt_clust_9="13000.00000"></scales>
<clustering>
<clus scale="   85.699">  5  6 -1 -1</clus>
<clus scale="   91.283">  7  8 -1 -1</clus>
<clus scale="  103.203">  2  5  1 -1</clus>
<clus scale="  106.235">  7  9 -1 -1</clus>
<clus scale="  303.804">  1  5  2 -1</clus>
</clustering>
</event>
<event>
 9    2  0.4178938E-005  0.1238851E+03  0.7546771E-02  0.1261453E+00
         -3   -1    0    0    0  501 -0.00000000000E+00  0.00000000000E+00  0.15402535972E+03  0.15402535972E+03  0.00000000000E+00 0.  1.
         21   -1    0    0  501  502  0.00000000000E+00 -0.00000000000E+00 -0.79550137167E+02  0.79550137167E+02  0.00000000000E+00 0. -1.
         24    2    1    2    0    0  0.61174618279E+01 -0.56316140625E+01  0.79271512869E+02  0.10959759446E+03  0.75223144990E+02 0.  0.
         23    2    1    2    0    0 -0.28449449979E+02 -0.95371353247E+01 -0.11522362602E+02  0.96156171690E+02  0.90625141985E+02 0.  0.
        -13    1    3    3    0    0  0.22717691808E+02 -0.35125612331E+02  0.44430663095E+02  0.61024470385E+02  0.00000000000E+00 0.  1.
         14    1    3    3    0    0 -0.16600229980E+02  0.29493998268E+02  0.34840849774E+02  0.48573124073E+02  0.00000000000E+00 0. -1.
        -13    1    4    4    0    0  0.32322628812E+02  0.48751634615E+01 -0.24843329681E+00  0.32689161372E+02  0.00000000000E+00 0.  1.
         13    1    4    4    0    0 -0.60772078790E+02 -0.14412298786E+02 -0.11273929306E+02  0.63467010319E+02  0.00000000000E+00 0. -1.
         -4    1    1    2    0  502  0.22331988151E+02  0.15168749387E+02  0.67260722812E+01  0.27821730735E+02  0.00000000000E+00 0.  1.
<scales pt_clust_5="13000.00000" pt_clust_6="13000.00000" pt_clust_7="13000.00000" pt_clust_8="13000.00000" pt_clust_9="13000.00000"></scales>
<clustering>
<clus scale="   75.223">  5  6 -1 -1</clus>
<clus scale="   75.681">  1  5  2 -1</clus>
<clus scale="   90.625">  7  8 -1 -1</clus>
<clus scale="   27.646">  7  9 -1 -1</clus>
<clus scale="  123.885">  2  5  1 -1</clus>
</clustering>
</event>
<event>
 9    2  0.4178938E-005  0.1671219E+03  0.7546771E-02  0.1197413E+00
         21   -1    0    0  501  502  0.00000000000E+00  0.00000000000E+00  0.93773318356E+02  0.93773318356E+02  0.00000000000E+00 0. -1.
          2   -1    0    0  502    0 -0.00000000000E+00 -0.00000000000E+00 -0.61153101041E+03  0.61153101041E+03  0.00000000000E+00 0. -1.
         24    2    1    2    0    0 -0.76402454357E+02  0.29739355372E+02 -0.52537141838E+03  0.53800912096E+03  0.81956834358E+02 0.  0.
         23    2    1    2    0    0  0.71988054573E+01 -0.12299500162E+02  0.16761505610E+02  0.95344006032E+02  0.92770851628E+02 0.  0.
        -13    1    3    3    0    0  0.18689770983E+01  0.28277735322E+02 -0.63317052449E+02  0.69369824283E+02  0.00000000000E+00 0.  1.
         14    1    3    3    0    0 -0.78271431456E+02  0.14616200502E+01 -0.46205436593E+03  0.46863929668E+03  0.00000000000E+00 0. -1.
        -13    1    4    4    0    0 -0.16888649772E+02 -0.16990144746E+02  0.49168518888E+02  0.54694010268E+02  0.00000000000E+00 0. -1.
         13    1    4    4    0    0  0.24087455230E+02  0.46906445840E+01 -0.32407013278E+02  0.40649995764E+02  0.00000000000E+00 0.  1.
          1    1    1    2  501    0  0.69203648900E+02 -0.17439855210E+02 -0.91477792862E+01  0.71951201774E+02  0.00000000000E+00 0. -1.
<scales pt_clust_5="13000.00000" pt_clust_6="13000.00000" pt_clust_7="13000.00000" pt_clust_8="13000.00000" pt_clust_9="13000.00000"></scales>
<clustering>
<clus scale="   81.957">  5  6 -1 -1</clus>
<clus scale="   92.771">  7  8 -1 -1</clus>
<clus scale="   71.367">  7  9 -1 -1</clus>
<clus scale="  115.925">  2  5  1 -1</clus>
<clus scale="  167.122">  1  5  2 -1</clus>
</clustering>
</event>
<event>
 9    2  0.4178938E-005  0.1516883E+03  0.7546771E-02  0.1225589E+00
          2   -1    0    0  502    0 -0.00000000000E+00  0.00000000000E+00  0.28298975853E+03  0.28298975853E+03  0.00000000000E+00 0. -1.
         21   -1    0    0  501  502  0.00000000000E+00 -0.00000000000E+00 -0.81843377836E+02  0.81843377836E+02  0.00000000000E+00 0.  1.
         24    2    1    2    0    0  0.27987853038E+01  0.27296539346E+02  0.19531186907E+03  0.21303265701E+03  0.80518646882E+02 0.  0.
         23    2    1    2    0    0  0.18564929511E+02 -0.52108440351E+01 -0.36378675564E+02  0.99588034276E+02  0.90678327244E+02 0.  0.
        -11    1    3    3    0    0  0.39585461602E+02  0.11344738967E+02  0.13028233596E+03  0.13663527705E+03  0.00000000000E+00 0.  1.
         12    1    3    3    0    0 -0.36786676298E+02  0.15951800378E+02  0.65029533111E+02  0.76397379962E+02  0.00000000000E+00 0. -1.
        -11    1    4    4    0    0 -0.16743460177E+02 -0.27566550135E+02 -0.46498558317E+02  0.56589522622E+02  0.00000000000E+00 0.  1.
         11    1    4    4    0    0  0.35308389688E+02  0.22355706099E+02  0.10119882752E+02  0.42998511654E+02  0.00000000000E+00 0. -1.
          1    1    1    2  501    0 -0.21363714815E+02 -0.22085695311E+02  0.42213187186E+02  0.52212445073E+02  0.00000000000E+00 0. -1.
<scales pt_clust_5="13000.00000" pt_clust_6="13000.00000" pt_clust_7="13000.00000" pt_clust_8="13000.00000" pt_clust_9="13000.00000"></scales>
<clustering>
<clus scale="   80.519">  5  6 -1 -1</clus>
<clus scale="   85.066">  1  5  2 -1</clus>
<clus scale="   90.678">  7  8 -1 -1</clus>
<clus scale="   20.505">  7  9 -1 -1</clus>
<clus scale="  151.688">  2  5  1 -1</clus>
</clustering>
</event>
<event>
 9    2  0.4178938E-005  0.2206171E+03  0.7546771E-02  0.1156775E+00
          2   -1    0    0  502    0 -0.00000000000E+00  0.00000000000E+00  0.47037696481E+03  0.47037696481E+03  0.00000000000E+00 0. -1.
         21   -1    0    0  501  502  0.00000000000E+00 -0.00000000000E+00 -0.78426294688E+02  0.78426294688E+02  0.00000000000E+00 0.  1.
         24    2    1    2    0    0  0.39292211402E+02 -0.88259730240E+02  0.26679722323E+03  0.29515921637E+03  0.81268363009E+02 0.  0.
         23    2    1    2    0    0 -0.19129799888E+02 -0.30121461100E+02  0.31492903472E+02  0.10135180204E+03  0.89482585712E+02 0.  0.
        -11    1    3    3    0    0  0.59150236846E+02 -0.37961228636E+02  0.17547338513E+03  0.18902569743E+03  0.00000000000E+00 0.  1.
         12    1    3    3    0    0 -0.19858025444E+02 -0.50298501604E+02  0.91323838102E+02  0.10613351895E+03  0.00000000000E+00 0. -1.
        -11    1    4    4    0    0  0.19877683314E+02  0.12289712304E+02  0.36684839737E+02  0.43496399725E+02  0.00000000000E+00 0. -1.
         11    1    4    4    0    0 -0.39007483202E+02 -0.42411173404E+02 -0.51919362647E+01  0.57855402319E+02  0.00000000000E+00 0.  1.
          1    1    1    2  501    0 -0.20162411514E+02  0.11838119134E+03  0.93660543423E+02  0.15229224109E+03  0.00000000000E+00 0. -1.
<scales pt_clust_5="13000.00000" pt_clust_6="13000.00000" pt_clust_7="13000.00000" pt_clust_8="13000.00000" pt_clust_9="13000.00000"></scales>
<clustering>
<clus scale="   81.268">  5  6 -1 -1</clus>
<clus scale="   89.483">  7  8 -1 -1</clus>
<clus scale="  120.086">  7  9 -1 -1</clus>
<clus scale="  126.247">  1  5  2 -1</clus>
<clus scale="  220.617">  2  5  1 -1</clus>
</clustering>
</event>
<event>
 9    2  0.4178938E-005  0.2803490E+03  0.7546771E-02  0.1134874E+00
          2   -1    0    0  502    0 -0.00000000000E+00  0.00000000000E+00  0.69451895299E+03  0.69451895299E+03  0.00000000000E+00 0. -1.
         21   -1    0    0  501  502  0.00000000000E+00 -0.00000000000E+00 -0.77212412435E+02  0.77212412435E+02  0.00000000000E+00 0. -1.
         24    2    1    2    0    0  0.46614162863E+02 -0.27226627759E+02  0.11767114764E+02  0.10444316663E+03  0.88632616048E+02 0.  0.
         23    2    1    2    0    0 -0.14603032557E+03  0.43773151294E+02  0.34525611881E+03  0.38817395563E+03  0.90753994323E+02 0.  0.
        -13    1    3    3    0    0  0.39817757356E+02 -0.51859745296E+02  0.31098086294E+02  0.72401505193E+02  0.00000000000E+00 0.  1.
         14    1    3    3    0    0  0.67964055064E+01  0.24633117537E+02 -0.19330971530E+02  0.32041661438E+02  0.00000000000E+00 0. -1.
        -13    1    4    4    0    0 -0.13096894473E+03  0.21742820315E+00  0.24415603290E+03  0.27706511899E+03  0.00000000000E+00 0.  1.
         13    1    4    4    0    0 -0.15061380844E+02  0.43555723091E+02  0.10110008591E+03  0.11110883664E+03  0.00000000000E+00 0. -1.
          1    1    1    2  501    0  0.99416162711E+02 -0.16546523535E+02  0.26028330698E+03  0.27911424317E+03  0.00000000000E+00 0. -1.
<scales pt_clust_5="13000.00000" pt_clust_6="13000.00000" pt_clust_7="13000.00000" pt_clust_8="13000.00000" pt_clust_9="13000.00000"></scales>
<clustering>
<clus scale="   88.633">  5  6 -1 -1</clus>
<clus scale="   90.754">  7  8 -1 -1</clus>
<clus scale="  100.784">  7  9 -1 -1</clus>
<clus scale="  103.778">  1  5  2 -1</clus>
<clus scale="  280.349">  2  5  1 -1</clus>
</clustering>
</event>
<event>
 9    2  0.4178938E-005  0.3888181E+03  0.7546771E-02  0.1071667E+00
          2   -1    0    0  502    0 -0.00000000000E+00  0.00000000000E+00  0.15693650922E+04  0.15693650922E+04  0.00000000000E+00 0. -1.
         21   -1    0    0  501  502  0.00000000000E+00 -0.00000000000E+00 -0.55035489084E+02  0.55035489084E+02  0.00000000000E+00 0. -1.
         24    2    1    2    0    0  0.68805725473E+02  0.16909770794E+03  0.52760212907E+03  0.56382968848E+03  0.78814011012E+02 0.  0.
         23    2    1    2    0    0 -0.56073819261E+02  0.72228238188E+02  0.13798285365E+03  0.17809270929E+03  0.65700484046E+02 0.  0.
        -11    1    3    3    0    0  0.44075751133E+02  0.42878136373E+02  0.10086813264E+03  0.11813376570E+03  0.00000000000E+00 0.  1.
         12    1    3    3    0    0  0.24729974340E+02  0.12621957156E+03  0.42673399643E+03  0.44569592278E+03  0.00000000000E+00 0. -1.
        -13    1    4    4    0    0 -0.64131027222E+02  0.49764753736E+02  0.74145126428E+02  0.10994007068E+03  0.00000000000E+00 0. -1.
         13    1    4    4    0    0  0.80572079607E+01  0.22463484452E+02  0.63837727222E+02  0.68152638619E+02  0.00000000000E+00 0.  1.
          1    1    1    2  501    0 -0.12731906212E+02 -0.24132594612E+03  0.84874462038E+03  0.88247818349E+03  0.00000000000E+00 0. -1.
<scales pt_clust_5="13000.00000" pt_clust_6="13000.00000" pt_clust_7="13000.00000" pt_clust_8="13000.00000" pt_clust_9="13000.00000"></scales>
<clustering>
<clus scale="   65.700">  7  8 -1 -1</clus>
<clus scale="   78.814">  5  6 -1 -1</clus>
<clus scale="  198.846">  1  5  2 -1</clus>
<clus scale="  108.331">  7  9 -1 -1</clus>
<clus scale="  388.818">  2  5  1 -1</clus>
</clustering>
</event>
<event>
 9    2  0.4178938E-005  0.7462213E+03  0.7546771E-02  0.1014086E+00
          2   -1    0    0  502    0 -0.00000000000E+00  0.00000000000E+00  0.23747391213E+03  0.23747391213E+03  0.00000000000E+00 0. -1.
         21   -1    0    0  501  502  0.00000000000E+00 -0.00000000000E+00 -0.97817602898E+03  0.97817602898E+03  0.00000000000E+00 0. -1.
         24    2    1    2    0    0  0.94047387078E+02 -0.81233623660E+02  0.19654928168E+02  0.15029127868E+03  0.82203038978E+02 0.  0.
         23    2    1    2    0    0  0.34492010640E+02 -0.10839025959E+03 -0.81635759936E+03  0.82952894430E+03  0.93490064837E+02 0.  0.
        -11    1    3    3    0    0 -0.13284879349E+02 -0.20967846022E+02 -0.34085903582E+01  0.25055080809E+02  0.00000000000E+00 0.  1.
         12    1    3    3    0    0  0.10733226643E+03 -0.60265777638E+02  0.23063518526E+02  0.12523619787E+03  0.00000000000E+00 0. -1.
        -13    1    4    4    0    0 -0.30813629963E+02 -0.18091552596E+02 -0.20896678420E+03  0.21199976643E+03  0.00000000000E+00 0.  1.
         13    1    4    4    0    0  0.65305640603E+02 -0.90298706995E+02 -0.60739081516E+03  0.61752917787E+03  0.00000000000E+00 0. -1.
          1    1    1    2  501    0 -0.12853939772E+03  0.18962388325E+03  0.56000554350E+02  0.23582971813E+03  0.00000000000E+00 0. -1.
<scales pt_clust_5="13000.00000" pt_clust_6="13000.00000" pt_clust_7="13000.00000" pt_clust_8="13000.00000" pt_clust_9="13000.00000"></scales>
<clustering>
<clus scale="   82.203">  5  6 -1 -1</clus>
<clus scale="   93.490">  7  8 -1 -1</clus>
<clus scale="  149.001">  1  5  2 -1</clus>
<clus scale="  118.354">  7  9 -1 -1</clus>
<clus scale="  746.221">  2  5  1 -1</clus>
</clustering>
</event>
<event>
 9    2  0.4178938E-005  0.2633372E+03  0.7546771E-02  0.1146081E+00
         21   -1    0    0  501  502  0.00000000000E+00  0.00000000000E+00  0.21328841513E+03  0.21328841513E+03  0.00000000000E+00 0. -1.
          2   -1    0    0  502    0 -0.00000000000E+00 -0.00000000000E+00 -0.16903833492E+03  0.16903833492E+03  0.00000000000E+00 0. -1.
         24    2    1    2    0    0 -0.45253532579E+02  0.48380416116E+02  0.68920324655E+02  0.11783647391E+03  0.68897580216E+02 0.  0.
         23    2    1    2    0    0 -0.20290366659E+02 -0.50442832610E+02 -0.11213219422E+03  0.15517491149E+03  0.92463213407E+02 0.  0.
        -13    1    3    3    0    0 -0.55163441128E+01  0.41479442202E+02  0.48446961707E+01  0.42124164784E+02  0.00000000000E+00 0.  1.
         14    1    3    3    0    0 -0.39737188466E+02  0.69009739138E+01  0.64075628485E+02  0.75712309130E+02  0.00000000000E+00 0. -1.
        -13    1    4    4    0    0  0.18185608032E+02  0.11224170400E+02 -0.65300758783E+02  0.68708714428E+02  0.00000000000E+00 0.  1.
         13    1    4    4    0    0 -0.38475974692E+02 -0.61667003010E+02 -0.46831435435E+02  0.86466197058E+02  0.00000000000E+00 0. -1.
          1    1    1    2  501    0  0.65543899238E+02  0.20624164938E+01  0.87461949771E+02  0.10931536464E+03  0.00000000000E+00 0. -1.
<scales pt_clust_5="13000.00000" pt_clust_6="13000.00000" pt_clust_7="13000.00000" pt_clust_8="13000.00000" pt_clust_9="13000.00000"></scales>
<clustering>
<clus scale="   68.898">  5  6 -1 -1</clus>
<clus scale="   92.463">  7  8 -1 -1</clus>
<clus scale="   65.576">  7  9 -1 -1</clus>
<clus scale="   95.579">  2  5  1 -1</clus>
<clus scale="  263.337">  1  5  2 -1</clus>
</clustering>
</event>
<event>
 9    2  0.4178938E-005  0.5535175E+03  0.7546771E-02  0.1060835E+00
         21   -1    0    0  501  502  0.00000000000E+00  0.00000000000E+00  0.63976746628E+03  0.63976746628E+03  0.00000000000E+00 0. -1.
          2   -1    0    0  502    0 -0.00000000000E+00 -0.00000000000E+00 -0.18631796133E+03  0.18631796133E+03  0.00000000000E+00 0. -1.
         24    2    1    2    0    0  0.25583544940E+02  0.40753900775E+02  0.19325253375E+03  0.21446131997E+03  0.79572091604E+02 0.  0.
         23    2    1    2    0    0 -0.20041718098E+03 -0.20531178936E+03  0.75421472682E+02  0.30865862472E+03  0.85216024262E+02 0.  0.
        -13    1    3    3    0    0  0.50261040716E+02  0.15412462597E+02  0.79282959692E+02  0.95128880550E+02  0.00000000000E+00 0.  1.
         14    1    3    3    0    0 -0.24677495777E+02  0.25341438178E+02  0.11396957406E+03  0.11933243942E+03  0.00000000000E+00 0. -1.
        -11    1    4    4    0    0 -0.12942197278E+03 -0.17043195685E+03  0.82248486237E+02  0.22926384896E+03  0.00000000000E+00 0. -1.
         11    1    4    4    0    0 -0.70995208203E+02 -0.34879832513E+02 -0.68270135549E+01  0.79394775760E+02  0.00000000000E+00 0.  1.
          1    1    1    2  501    0  0.17483363604E+03  0.16455788859E+03  0.18477549851E+03  0.30296548291E+03  0.00000000000E+00 0. -1.
<scales pt_clust_5="13000.00000" pt_clust_6="13000.00000" pt_clust_7="13000.00000" pt_clust_8="13000.00000" pt_clust_9="13000.00000"></scales>
<clustering>
<clus scale="   79.572">  5  6 -1 -1</clus>
<clus scale="   85.216">  7  8 -1 -1</clus>
<clus scale="   92.990">  2  5  1 -1</clus>
<clus scale="  255.788">  7  9 -1 -1</clus>
<clus scale="  553.517">  1  5  2 -1</clus>
</clustering>
</event>
<event>
 9    2  0.4178938E-005  0.2251523E+03  0.7546771E-02  0.1162994E+00
         21   -1    0    0  501  502  0.00000000000E+00  0.00000000000E+00  0.72965738692E+02  0.72965738692E+02  0.00000000000E+00 0.  1.
         -1   -1    0    0    0  501 -0.00000000000E+00 -0.00000000000E+00 -0.36942885997E+03  0.36942885997E+03  0.00000000000E+00 0.  1.
         24    2    1    2    0    0 -0.63230139132E+02  0.88122398218E+01 -0.10381932669E+03  0.14607520623E+03  0.80522091478E+02 0.  0.
         23    2    1    2    0    0 -0.30796636929E+02  0.49393391089E+02 -0.62799845123E+02  0.12576622975E+03  0.92115058864E+02 0.  0.
        -13    1    3    3    0    0 -0.32301972726E+02 -0.29837567340E+02 -0.79664290987E+02  0.90995039014E+02  0.00000000000E+00 0.  1.
         14    1    3    3    0    0 -0.30928166406E+02  0.38649807162E+02 -0.24155035702E+02  0.55080167217E+02  0.00000000000E+00 0. -1.
        -13    1    4    4    0    0 -0.29874887947E+02  0.73010569235E+02 -0.64741394697E+02  0.10205145926E+03  0.00000000000E+00 0.  1.
         13    1    4    4    0    0 -0.92174898222E+00 -0.23617178146E+02  0.19415495743E+01  0.23714770493E+02  0.00000000000E+00 0. -1.
         -2    1    1    2    0  502  0.94026776061E+02 -0.58205630911E+02 -0.12984394946E+03  0.17055316267E+03  0.00000000000E+00 0.  1.
<scales pt_clust_5="13000.00000" pt_clust_6="13000.00000" pt_clust_7="13000.00000" pt_clust_8="13000.00000" pt_clust_9="13000.00000"></scales>
<clustering>
<clus scale="   80.522">  5  6 -1 -1</clus>
<clus scale="   92.115">  7  8 -1 -1</clus>
<clus scale="  102.759">  2  5  1 -1</clus>
<clus scale="   76.367">  7  9 -1 -1</clus>
<clus scale="  225.152">  1  5  2 -1</clus>
</clustering>
</event>
<event>
 9    2  0.4178938E-005  0.8017868E+03  0.7546771E-02  0.9989617E-01
         21   -1    0    0  501  502  0.00000000000E+00  0.00000000000E+00  0.10515122265E+04  0.10515122265E+04  0.00000000000E+00 0. -1.
         -1   -1    0    0    0  501 -0.00000000000E+00 -0.00000000000E+00 -0.23640546843E+03  0.23640546843E+03  0.00000000000E+00 0.  1.
         24    2    1    2    0    0 -0.38500294701E+02  0.17246206964E+03  0.11903924107E+03  0.22613992438E+03  0.75785792390E+02 0.  0.
         23    2    1    2    0    0 -0.16325322841E+03 -0.40124225785E+03  0.21485056577E+03  0.49202816524E+03  0.91016392484E+02 0.  0.
        -11    1    3    3    0    0 -0.23641036339E+01  0.67051124195E+02  0.59205713603E+01  0.67353510725E+02  0.00000000000E+00 0.  1.
         12    1    3    3    0    0 -0.36136191068E+02  0.10541094544E+03  0.11311866971E+03  0.15878641366E+03  0.00000000000E+00 0. -1.
        -13    1    4    4    0    0 -0.11539267130E+03 -0.28660217224E+03  0.10534792483E+03  0.32642680495E+03  0.00000000000E+00 0. -1.
         13    1    4    4    0    0 -0.47860557109E+02 -0.11464008561E+03  0.10950264094E+03  0.16560136028E+03  0.00000000000E+00 0.  1.
         -2    1    1    2    0  502  0.20175352311E+03  0.22878018821E+03  0.48121695125E+03  0.56974960534E+03  0.00000000000E+00 0.  1.
<scales pt_clust_5="13000.00000" pt_clust_6="13000.00000" pt_clust_7="13000.00000" pt_clust_8="13000.00000" pt_clust_9="13000.00000"></scales>
<clustering>
<clus scale="   75.786">  5  6 -1 -1</clus>
<clus scale="   91.016">  7  8 -1 -1</clus>
<clus scale="  192.273">  2  5  1 -1</clus>
<clus scale="  331.990">  7  9 -1 -1</clus>
<clus scale="  801.787">  1  5  2 -1</clus>
</clustering>
</event>
<event>
 9    2  0.4178938E-005  0.2144074E+03  0.7546771E-02  0.1175765E+00
         -1   -1    0    0    0  501 -0.00000000000E+00  0.00000000000E+00  0.24806583132E+03  0.24806583132E+03  0.00000000000E+00 0.  1.
         21   -1    0    0  501  502  0.00000000000E+00 -0.00000000000E+00 -0.93167884478E+02  0.93167884478E+02  0.00000000000E+00 0.  1.
         24    2    1    2    0    0 -0.33435899016E+02 -0.15123641176E+02  0.56960555032E+02  0.10551724524E+03  0.80886960308E+02 0.  0.
         23    2    1    2    0    0  0.12486948185E+02  0.49734787082E+02  0.14280683876E+03  0.17530076704E+03  0.87790049587E+02 0.  0.
        -13    1    3    3    0    0 -0.29771384308E+02 -0.47066741756E+02  0.28418626731E+02  0.62523850237E+02  0.00000000000E+00 0.  1.
         14    1    3    3    0    0 -0.36645147079E+01  0.31943100580E+02  0.28541928301E+02  0.42993395003E+02  0.00000000000E+00 0. -1.
        -11    1    4    4    0    0  0.40753078041E+02  0.58053241187E+02  0.87526589460E+02  0.11265831547E+03  0.00000000000E+00 0.  1.
         11    1    4    4    0    0 -0.28266129856E+02 -0.83184541053E+01  0.55280249300E+02  0.62642451568E+02  0.00000000000E+00 0. -1.
         -2    1    1    2    0  502  0.20948950831E+02 -0.34611145905E+02 -0.44869446952E+02  0.60415703518E+02  0.00000000000E+00 0.  1.
<scales pt_clust_5="13000.00000" pt_clust_6="13000.00000" pt_clust_7="13000.00000" pt_clust_8="13000.00000" pt_clust_9="13000.00000"></scales>
<clustering>
<clus scale="   80.887">  5  6 -1 -1</clus>
<clus scale="   87.790">  7  8 -1 -1</clus>
<clus scale="   40.457">  7  9 -1 -1</clus>
<clus scale="   88.822">  1  5  2 -1</clus>
<clus scale="  214.407">  2  5  1 -1</clus>
</clustering>
</event>
<event>
 9    2  0.4178938E-005  0.1583355E+03  0.7546771E-02  0.1220403E+00
         21   -1    0    0  501  502  0.00000000000E+00  0.00000000000E+00  0.37625557099E+02  0.37625557099E+02  0.00000000000E+00 0.  1.
          2   -1    0    0  502    0 -0.00000000000E+00 -0.00000000000E+00 -0.40123479138E+03  0.40123479138E+03  0.00000000000E+00 0. -1.
         24    2    1    2    0    0  0.21425736163E+02  0.39531190883E+01 -0.16501515583E+03  0.18487268865E+03  0.80456323763E+02 0.  0.
         23    2    1    2    0    0 -0.60572392856E+02  0.59667741249E+01 -0.10484515034E+03  0.15191059809E+03  0.91540740071E+02 0.  0.
        -11    1    3    3    0    0 -0.20210820558E+02  0.27148750314E+02 -0.50052907208E+02  0.60422060799E+02  0.00000000000E+00 0.  1.
         12    1    3    3    0    0  0.41636556721E+02 -0.23195631225E+02 -0.11496224862E+03  0.12445062785E+03  0.00000000000E+00 0. -1.
        -13    1    4    4    0    0 -0.43204582396E+01  0.37459121250E+02 -0.67739290722E+02  0.77527179955E+02  0.00000000000E+00 0. -1.
         13    1    4    4    0    0 -0.56251934617E+02 -0.31492347125E+02 -0.37105859616E+02  0.74383418135E+02  0.00000000000E+00 0.  1.
          1    1    1    2  501    0  0.39146656694E+02 -0.99198932132E+01 -0.93748928117E+02  0.10207706175E+03  0.00000000000E+00 0. -1.
<scales pt_clust_5="13000.00000" pt_clust_6="13000.00000" pt_clust_7="13000.00000" pt_clust_8="13000.00000" pt_clust_9="13000.00000"></scales>
<clustering>
<clus scale="   80.456">  5  6 -1 -1</clus>
<clus scale="   83.354">  2  5  1 -1</clus>
<clus scale="   91.541">  7  8 -1 -1</clus>
<clus scale="   49.108">  7  9 -1 -1</clus>
<clus scale="  158.335">  1  5  2 -1</clus>
</clustering>
</event>
<event>
 9    2  0.4178938E-005  0.5381999E+03  0.7546771E-02  0.1067642E+00
         21   -1    0    0  501  502  0.00000000000E+00  0.00000000000E+00  0.11294679030E+03  0.11294679030E+03  0.00000000000E+00 0. -1.
          2   -1    0    0  502    0 -0.00000000000E+00 -0.00000000000E+00 -0.86561345803E+03  0.86561345803E+03  0.00000000000E+00 0. -1.
         24    2    1    2    0    0  0.13743344847E+02 -0.15010401569E+02 -0.69257095128E+02  0.10867073386E+03  0.81231714804E+02 0.  0.
         23    2    1    2    0    0  0.23202970495E+03  0.76602749793E+02 -0.47651677283E+03  0.54277693451E+03  0.88503110644E+02 0.  0.
        -13    1    3    3    0    0  0.41421067073E+01 -0.46177825736E+02 -0.22166514102E+02  0.51389716725E+02  0.00000000000E+00 0.  1.
         14    1    3    3    0    0  0.96012381400E+01  0.31167424167E+02 -0.47090581027E+02  0.57281017139E+02  0.00000000000E+00 0. -1.
        -11    1    4    4    0    0  0.21421056017E+03  0.58585089441E+02 -0.35572025346E+03  0.41935101707E+03  0.00000000000E+00 0. -1.
         11    1    4    4    0    0  0.17819144781E+02  0.18017660353E+02 -0.12079651937E+03  0.12342591744E+03  0.00000000000E+00 0.  1.
          1    1    1    2  501    0 -0.24577304980E+03 -0.61592348225E+02 -0.20689279977E+03  0.32711257995E+03  0.00000000000E+00 0. -1.
<scales pt_clust_5="13000.00000" pt_clust_6="13000.00000" pt_clust_7="13000.00000" pt_clust_8="13000.00000" pt_clust_9="13000.00000"></scales>
<clustering>
<clus scale="   81.232">  5  6 -1 -1</clus>
<clus scale="   83.742">  2  5  1 -1</clus>
<clus scale="   88.503">  7  8 -1 -1</clus>
<clus scale="  250.120">  7  9 -1 -1</clus>
<clus scale="  538.200">  1  5  2 -1</clus>
</clustering>
</event>
<event>
 9    2  0.4178938E-005  0.3545224E+03  0.7546771E-02  0.1108434E+00
          2   -1    0    0  502    0 -0.00000000000E+00  0.00000000000E+00  0.13261013131E+04  0.13261013131E+04  0.00000000000E+00 0. -1.
         21   -1    0    0  501  502  0.00000000000E+00 -0.00000000000E+00 -0.42030710966E+02  0.42030710966E+02  0.00000000000E+00 0. -1.
         24    2    1    2    0    0 -0.39800894310E+02  0.45443222524E+02  0.14925800294E+03  0.17923094754E+03  0.78718380651E+02 0.  0.
         23    2    1    2    0    0 -0.37240870969E+02  0.12006174268E+03  0.34153582215E+03  0.37488917729E+03  0.89963731086E+02 0.  0.
        -11    1    3    3    0    0 -0.39226460440E+02 -0.11124945730E+02  0.80119097780E+02  0.89897438480E+02  0.00000000000E+00 0.  1.
         12    1    3    3    0    0 -0.57443386964E+00  0.56568168254E+02  0.69138905158E+02  0.89333509056E+02  0.00000000000E+00 0. -1.
        -13    1    4    4    0    0 -0.64361219865E+02  0.59563550485E+02  0.17813586015E+03  0.19855117185E+03  0.00000000000E+00 0.  1.
         13    1    4    4    0    0  0.27120348896E+02  0.60498192195E+02  0.16339996200E+03  0.17633800544E+03  0.00000000000E+00 0. -1.
          1    1    1    2  501    0  0.77041765278E+02 -0.16550496520E+03  0.79327677705E+03  0.81401189924E+03  0.00000000000E+00 0. -1.
<scales pt_clust_5="13000.00000" pt_clust_6="13000.00000" pt_clust_7="13000.00000" pt_clust_8="13000.00000" pt_clust_9="13000.00000"></scales>
<clustering>
<clus scale="   78.718">  5  6 -1 -1</clus>
<clus scale="   89.964">  7  8 -1 -1</clus>
<clus scale="   99.226">  1  5  2 -1</clus>
<clus scale="  142.923">  7  9 -1 -1</clus>
<clus scale="  354.522">  2  5  1 -1</clus>
</clustering>
</event>
<event>
 9    2  0.4178938E-005  0.2868163E+03  0.7546771E-02  0.1123899E+00
         -3   -1    0    0    0  501 -0.00000000000E+00  0.00000000000E+00  0.17510088018E+03  0.17510088018E+03  0.00000000000E+00 0.  1.
         21   -1    0    0  501  502  0.00000000000E+00 -0.00000000000E+00 -0.27959099463E+03  0.27959099463E+03  0.00000000000E+00 0. -1.
         24    2    1    2    0    0  0.31813186541E+02  0.67192102126E+02 -0.10978802913E+03  0.16782668933E+03  0.10288599947E+03 0.  0.
         23    2    1    2    0    0  0.10227969465E+03 -0.39899038485E+02  0.35427840438E+02  0.14674514931E+03  0.90696955616E+02 0.  0.
        -11    1    3    3    0    0 -0.31295123786E+02 -0.38611652225E+01 -0.33051755533E+02  0.45680541957E+02  0.00000000000E+00 0.  1.
         12    1    3    3    0    0  0.63108310327E+02  0.71053267348E+02 -0.76736273598E+02  0.12214614738E+03  0.00000000000E+00 0. -1.
        -11    1    4    4    0    0  0.10042021747E+03 -0.63438425681E+02  0.30253773816E+02  0.12257220223E+03  0.00000000000E+00 0. -1.
         11    1    4    4    0    0  0.18594771779E+01  0.23539387197E+02  0.51740666218E+01  0.24172947077E+02  0.00000000000E+00 0.  1.
         -4    1    1    2    0  502 -0.13409288119E+03 -0.27293063641E+02 -0.30129925758E+02  0.14012003617E+03  0.00000000000E+00 0.  1.
<scales pt_clust_5="13000.00000" pt_clust_6="13000.00000" pt_clust_7="13000.00000" pt_clust_8="13000.00000" pt_clust_9="13000.00000"></scales>
<clustering>
<clus scale="   90.697">  7  8 -1 -1</clus>
<clus scale="  102.886">  5  6 -1 -1</clus>
<clus scale="  126.935">  1  5  2 -1</clus>
<clus scale="  122.133">  7  9 -1 -1</clus>
<clus scale="  286.816">  2  5  1 -1</clus>
</clustering>
</event>
<event>
 9    2  0.4178938E-005  0.1494247E+03  0.7546771E-02  0.1225759E+00
         21   -1    0    0  501  502  0.00000000000E+00  0.00000000000E+00  0.84247614894E+02  0.84247614894E+02  0.00000000000E+00 0.  1.
          2   -1    0    0  502    0 -0.00000000000E+00 -0.00000000000E+00 -0.29217594868E+03  0.29217594868E+03  0.00000000000E+00 0. -1.
         24    2    1    2    0    0 -0.60594589131E+01 -0.25996247065E+02 -0.20895813284E+03  0.22699535491E+03  0.84562804883E+02 0.  0.
         23    2    1    2    0    0 -0.22853917159E+02  0.10274599169E+02  0.36019706741E+02  0.10139231408E+03  0.91406308110E+02 0.  0.
        -13    1    3    3    0    0  0.35565668083E+02 -0.26112681758E+02 -0.78410595598E+02  0.89972275712E+02  0.00000000000E+00 0.  1.
         14    1    3    3    0    0 -0.41625126997E+02  0.11643469364E+00 -0.13054753724E+03  0.13702307920E+03  0.00000000000E+00 0. -1.
        -13    1    4    4    0    0 -0.48253629610E+02  0.33231772501E+02  0.32433667437E+02  0.66967949479E+02  0.00000000000E+00 0. -1.
         13    1    4    4    0    0  0.25399712450E+02 -0.22957173333E+02  0.35860393048E+01  0.34424364596E+02  0.00000000000E+00 0.  1.
          1    1    1    2  501    0  0.28913376073E+02  0.15721647896E+02 -0.34989907694E+02  0.48035894589E+02  0.00000000000E+00 0. -1.
<scales pt_clust_5="13000.00000" pt_clust_6="13000.00000" pt_clust_7="13000.00000" pt_clust_8="13000.00000" pt_clust_9="13000.00000"></scales>
<clustering>
<clus scale="   84.563">  5  6 -1 -1</clus>
<clus scale="   88.676">  2  5  1 -1</clus>
<clus scale="   91.406">  7  8 -1 -1</clus>
<clus scale="   25.550">  7  9 -1 -1</clus>
<clus scale="  149.425">  1  5  2 -1</clus>
</clustering>
</event>
<event>
 9    2  0.4178938E-005  0.3706928E+03  0.7546771E-02  0.1078806E+00
         21   -1    0    0  501  502  0.00000000000E+00  0.00000000000E+00  0.25232803469E+03  0.25232803469E+03  0.00000000000E+00 0. -1.
          2   -1    0    0  502    0 -0.00000000000E+00 -0.00000000000E+00 -0.31117625068E+03  0.31117625068E+03  0.00000000000E+00 0. -1.
         24    2    1    2    0    0 -0.14658272438E+03  0.88281119866E+02 -0.61579598198E+01  0.18908547270E+03  0.80220597778E+02 0.  0.
         23    2    1    2    0    0  0.17527739795E+03 -0.18331318747E+03 -0.23230313417E+02  0.27086995274E+03  0.92222518416E+02 0.  0.
        -11    1    3    3    0    0 -0.89702252122E+01  0.31934822826E+02 -0.21601348056E+02  0.39584290914E+02  0.00000000000E+00 0.  1.
         12    1    3    3    0    0 -0.13761249916E+03  0.56346297040E+02  0.15443388236E+02  0.14950118179E+03  0.00000000000E+00 0. -1.
        -11    1    4    4    0    0  0.91925158021E+02 -0.60672850786E+02 -0.48674258256E+02  0.12041849076E+03  0.00000000000E+00 0.  1.
         11    1    4    4    0    0  0.83352239926E+02 -0.12264033669E+03  0.25443944839E+02  0.15045146198E+03  0.00000000000E+00 0. -1.
          1    1    1    2  501    0 -0.28694673571E+02  0.95032067607E+02 -0.29459942760E+02  0.10354885993E+03  0.00000000000E+00 0. -1.
<scales pt_clust_5="13000.00000" pt_clust_6="13000.00000" pt_clust_7="13000.00000" pt_clust_8="13000.00000" pt_clust_9="13000.00000"></scales>
<clustering>
<clus scale="   80.221">  5  6 -1 -1</clus>
<clus scale="   92.223">  7  8 -1 -1</clus>
<clus scale="   99.270">  7  9 -1 -1</clus>
<clus scale="  188.985">  2  5  1 -1</clus>
<clus scale="  370.693">  1  5  2 -1</clus>
</clustering>
</event>
<event>
 9    2  0.4178938E-005  0.4186382E+03  0.7546771E-02  0.1067854E+00
          2   -1    0    0  502    0 -0.00000000000E+00  0.00000000000E+00  0.13351979920E+04  0.13351979920E+04  0.00000000000E+00 0. -1.
         21   -1    0    0  501  502  0.00000000000E+00 -0.00000000000E+00 -0.68086389673E+02  0.68086389673E+02  0.00000000000E+00 0. -1.
         24    2    1    2    0    0 -0.10227341604E+03 -0.11936580176E+03  0.28173819184E+03  0.33266834353E+03  0.81140444833E+02 0.  0.
         23    2    1    2    0    0  0.53949693449E+02 -0.12126623966E+03  0.27479680927E+03  0.31884608149E+03  0.92376766521E+02 0.  0.
        -11    1    3    3    0    0 -0.34659444324E+02 -0.22543669345E+02  0.20869909747E+02  0.46314654713E+02  0.00000000000E+00 0.  1.
         12    1    3    3    0    0 -0.67613971715E+02 -0.96822132416E+02  0.26086828210E+03  0.28635368882E+03  0.00000000000E+00 0. -1.
        -11    1    4    4    0    0 -0.11136645382E+02 -0.78857464225E+02  0.17588553185E+03  0.19307574899E+03  0.00000000000E+00 0.  1.
         11    1    4    4    0    0  0.65086338831E+02 -0.42408775438E+02  0.98911277418E+02  0.12577033250E+03  0.00000000000E+00 0. -1.
          1    1    1    2  501    0  0.48323722590E+02  0.24063204142E+03  0.71057660123E+03  0.75176995666E+03  0.00000000000E+00 0. -1.
<scales pt_clust_5="13000.00000" pt_clust_6="13000.00000" pt_clust_7="13000.00000" pt_clust_8="13000.00000" pt_clust_9="13000.00000"></scales>
<clustering>
<clus scale="   81.140">  5  6 -1 -1</clus>
<clus scale="   92.377">  7  8 -1 -1</clus>
<clus scale="  176.895">  1  5  2 -1</clus>
<clus scale="  157.635">  7  9 -1 -1</clus>
<clus scale="  418.638">  2  5  1 -1</clus>
</clustering>
</event>
<event>
 9    2  0.4178938E-005  0.1349847E+03  0.7546771E-02  0.1242461E+00
         -3   -1    0    0    0  501 -0.00000000000E+00  0.00000000000E+00  0.82905781549E+02  0.82905781549E+02  0.00000000000E+00 0.  1.
         21   -1    0    0  501  502  0.00000000000E+00 -0.00000000000E+00 -0.24180840922E+03  0.24180840922E+03  0.00000000000E+00 0. -1.
         24    2    1    2    0    0 -0.29829438703E+02 -0.39175267434E+01  0.31752663246E+02  0.91111301893E+02  0.79924309696E+02 0.  0.
         23    2    1    2    0    0  0.54788548778E+02 -0.78678457446E+01 -0.15515643787E+03  0.18863600386E+03  0.91903937160E+02 0.  0.
        -13    1    3    3    0    0 -0.11852719592E+02  0.37866524341E+02  0.18162001665E+02  0.43637357069E+02  0.00000000000E+00 0.  1.
         14    1    3    3    0    0 -0.17976719111E+02 -0.41784051085E+02  0.13590661580E+02  0.47473944825E+02  0.00000000000E+00 0. -1.
        -13    1    4    4    0    0 -0.23625042982E+02 -0.11200150968E+02 -0.22465317390E+02  0.34471387020E+02  0.00000000000E+00 0.  1.
         13    1    4    4    0    0  0.78413591761E+02  0.33323052238E+01 -0.13269112048E+03  0.15416461684E+03  0.00000000000E+00 0. -1.
         -4    1    1    2    0  502 -0.24959110075E+02  0.11785372488E+02 -0.35498853046E+02  0.44966885016E+02  0.00000000000E+00 0.  1.
<scales pt_clust_5="13000.00000" pt_clust_6="13000.00000" pt_clust_7="13000.00000" pt_clust_8="13000.00000" pt_clust_9="13000.00000"></scales>
<clustering>
<clus scale="   79.924">  5  6 -1 -1</clus>
<clus scale="   85.399">  1  5  2 -1</clus>
<clus scale="   91.904">  7  8 -1 -1</clus>
<clus scale="   33.373">  7  9 -1 -1</clus>
<clus scale="  134.985">  2  5  1 -1</clus>
</clustering>
</event>
<event>
 9    2  0.4178938E-005  0.3191496E+03  0.7546771E-02  0.1098122E+00
         21   -1    0    0  501  502  0.00000000000E+00  0.00000000000E+00  0.31903577913E+03  0.31903577913E+03  0.00000000000E+00 0. -1.
         -1   -1    0    0    0  501 -0.00000000000E+00 -0.00000000000E+00 -0.24688801731E+03  0.24688801731E+03  0.00000000000E+00 0.  1.
         24    2    1    2    0    0 -0.15426102976E+03 -0.15841049247E+02  0.15563876975E+03  0.23603410123E+03  0.86262773821E+02 0.  0.
         23    2    1    2    0    0 -0.21795073670E+02 -0.73828981333E+02 -0.15220696481E+02  0.12085070037E+03  0.91910165145E+02 0.  0.
        -13    1    3    3    0    0 -0.52369593344E+02 -0.20627604956E+02  0.83926474536E+01  0.56907898613E+02  0.00000000000E+00 0.  1.
         14    1    3    3    0    0 -0.10189143642E+03  0.47865557090E+01  0.14724612230E+03  0.17912620261E+03  0.00000000000E+00 0. -1.
        -11    1    4    4    0    0 -0.31909323774E+02  0.89160499206E+01 -0.17478383451E+02  0.37459241556E+02  0.00000000000E+00 0. -1.
         11    1    4    4    0    0  0.10114250103E+02 -0.82745031254E+02  0.22576869695E+01  0.83391458812E+02  0.00000000000E+00 0.  1.
         -2    1    1    2    0  502  0.17605610343E+03  0.89670030581E+02 -0.68270311450E+02  0.20903899485E+03  0.00000000000E+00 0.  1.
<scales pt_clust_5="13000.00000" pt_clust_6="13000.00000" pt_clust_7="13000.00000" pt_clust_8="13000.00000" pt_clust_9="13000.00000"></scales>
<clustering>
<clus scale="   86.263">  5  6 -1 -1</clus>
<clus scale="   91.910">  7  8 -1 -1</clus>
<clus scale="  177.451">  2  5  1 -1</clus>
<clus scale="  107.306">  7  9 -1 -1</clus>
<clus scale="  319.150">  1  5  2 -1</clus>
</clustering>
</event>
<event>
 9    2  0.4178938E-005  0.5169859E+03  0.7546771E-02  0.1024903E+00
          2   -1    0    0  502    0 -0.00000000000E+00  0.00000000000E+00  0.16599570408E+04  0.16599570408E+04  0.00000000000E+00 0. -1.
         21   -1    0    0  501  502  0.00000000000E+00 -0.00000000000E+00 -0.11045074815E+03  0.11045074815E+03  0.00000000000E+00 0.  1.
         24    2    1    2    0    0  0.30864744985E+03 -0.52110984090E+02  0.43394110376E+03  0.54087123504E+03  0.79107574853E+02 0.  0.
         23    2    1    2    0    0  0.54712057497E+02  0.24322631331E+01  0.10075937323E+03  0.15049579917E+03  0.97453625562E+02 0.  0.
        -11    1    3    3    0    0  0.25211257336E+03 -0.16107672210E+02  0.30935986817E+03  0.39940422480E+03  0.00000000000E+00 0.  1.
         12    1    3    3    0    0  0.56534876488E+02 -0.36003311881E+02  0.12458123559E+03  0.14146701025E+03  0.00000000000E+00 0. -1.
        -11    1    4    4    0    0 -0.13132307950E+02 -0.31977878917E+02  0.41849690276E+02  0.54281109313E+02  0.00000000000E+00 0.  1.
         11    1    4    4    0    0  0.67844365447E+02  0.34410142050E+02  0.58909682959E+02  0.96214689862E+02  0.00000000000E+00 0. -1.
          1    1    1    2  501    0 -0.36335950735E+03  0.49678720957E+02  0.10148058156E+04  0.10790407547E+04  0.00000000000E+00 0. -1.
<scales pt_clust_5="13000.00000" pt_clust_6="13000.00000" pt_clust_7="13000.00000" pt_clust_8="13000.00000" pt_clust_9="13000.00000"></scales>
<clustering>
<clus scale="   79.108">  5  6 -1 -1</clus>
<clus scale="   97.454">  7  8 -1 -1</clus>
<clus scale="  322.857">  1  5  2 -1</clus>
<clus scale="   87.837">  7  9 -1 -1</clus>
<clus scale="  516.986">  2  5  1 -1</clus>
</clustering>
</event>
<event>
 9    2  0.4178938E-005  0.1441906E+03  0.7546771E-02  0.1220075E+00
          2   -1    0    0  502    0 -0.00000000000E+00  0.00000000000E+00  0.28330934370E+03  0.28330934370E+03  0.00000000000E+00 0. -1.
         21   -1    0    0  501  502  0.00000000000E+00 -0.00000000000E+00 -0.88548690990E+02  0.88548690990E+02  0.00000000000E+00 0.  1.
         24    2    1    2    0    0  0.61357221979E+02  0.45640061859E+02 -0.20261407087E+02  0.11296537731E+03  0.80640733620E+02 0.  0.
         23    2    1    2    0    0 -0.44682301158E+02 -0.58934007637E+02  0.15082165259E+03  0.19124301389E+03  0.91416596843E+02 0.  0.
        -11    1    3    3    0    0  0.34140894765E+02  0.67498887289E+02 -0.19204939229E+02  0.78041848847E+02  0.00000000000E+00 0.  1.
         12    1    3    3    0    0  0.27216327214E+02 -0.21858825430E+02 -0.10564678574E+01  0.34923528466E+02  0.00000000000E+00 0. -1.
        -11    1    4    4    0    0 -0.61757987451E+02 -0.70524187852E+02  0.13838742265E+03  0.16714900190E+03  0.00000000000E+00 0. -1.
         11    1    4    4    0    0  0.17075686292E+02  0.11590180215E+02  0.12434229935E+02  0.24094011992E+02  0.00000000000E+00 0.  1.
          1    1    1    2  501    0 -0.16674920820E+02  0.13293945778E+02  0.64200407205E+02  0.67649643488E+02  0.00000000000E+00 0. -1.
<scales pt_clust_5="13000.00000" pt_clust_6="13000.00000" pt_clust_7="13000.00000" pt_clust_8="13000.00000" pt_clust_9="13000.00000"></scales>
<clustering>
<clus scale="   80.641">  5  6 -1 -1</clus>
<clus scale="   91.417">  7  8 -1 -1</clus>
<clus scale="   21.326">  7  9 -1 -1</clus>
<clus scale="  111.134">  1  5  2 -1</clus>
<clus scale="  144.191">  2  5  1 -1</clus>
</clustering>
</event>
<event>
 9    2  0.4178938E-005  0.2455685E+03  0.7546771E-02  0.1147898E+00
         21   -1    0    0  501  502  0.00000000000E+00  0.00000000000E+00  0.63785649410E+02  0.63785649410E+02  0.00000000000E+00 0. -1.
          2   -1    0    0  502    0 -0.00000000000E+00 -0.00000000000E+00 -0.59195245692E+03  0.59195245692E+03  0.00000000000E+00 0. -1.
         24    2    1    2    0    0 -0.75561573241E+02 -0.23092100899E+02 -0.61835275719E+02  0.12870016085E+03  0.80606039504E+02 0.  0.
         23    2    1    2    0    0 -0.17782330311E+02  0.58604484807E+02 -0.37761346503E+03  0.39345235827E+03  0.91989849154E+02 0.  0.
        -11    1    3    3    0    0  0.69171042883E+01 -0.26222941051E+02 -0.28869115356E+01  0.27273122801E+02  0.00000000000E+00 0.  1.
         12    1    3    3    0    0 -0.82478677529E+02  0.31308401526E+01 -0.58948364183E+02  0.10142703805E+03  0.00000000000E+00 0. -1.
        -11    1    4    4    0    0 -0.49482445070E+02  0.58914832952E+02 -0.23188655467E+03  0.24431709753E+03  0.00000000000E+00 0. -1.
         11    1    4    4    0    0  0.31700114759E+02 -0.31034814533E+00 -0.14572691036E+03  0.14913526074E+03  0.00000000000E+00 0.  1.
          1    1    1    2  501    0  0.93343903551E+02 -0.35512383908E+02 -0.88718066766E+02  0.13358558722E+03  0.00000000000E+00 0. -1.
<scales pt_clust_5="13000.00000" pt_clust_6="13000.00000" pt_clust_7="13000.00000" pt_clust_8="13000.00000" pt_clust_9="13000.00000"></scales>
<clustering>
<clus scale="   80.606">  5  6 -1 -1</clus>
<clus scale="   91.990">  7  8 -1 -1</clus>
<clus scale="   99.871">  7  9 -1 -1</clus>
<clus scale="  112.872">  2  5  1 -1</clus>
<clus scale="  245.569">  1  5  2 -1</clus>
</clustering>
</event>
<event>
 9    2  0.4178938E-005  0.1524501E+03  0.7546771E-02  0.1223668E+00
          2   -1    0    0  502    0 -0.00000000000E+00  0.00000000000E+00  0.11875485578E+04  0.11875485578E+04  0.00000000000E+00 0. -1.
         21   -1    0    0  501  502  0.00000000000E+00 -0.00000000000E+00 -0.17151706552E+02  0.17151706552E+02  0.00000000000E+00 0.  1.
         24    2    1    2    0    0 -0.25303563340E+02 -0.20062492109E+02  0.79139301942E+03  0.79618471897E+03  0.81021118440E+02 0.  0.
         23    2    1    2    0    0  0.22134552509E+02 -0.32135954645E+02  0.24148937977E+03  0.26139333428E+03  0.92123268893E+02 0.  0.
        -11    1    3    3    0    0 -0.17008720275E+02  0.26320654075E+02  0.16026089645E+03  0.16329613690E+03  0.00000000000E+00 0.  1.
         12    1    3    3    0    0 -0.82948430643E+01 -0.46383146184E+02  0.63113212297E+03  0.63288858207E+03  0.00000000000E+00 0. -1.
        -13    1    4    4    0    0  0.24313154584E+02  0.29134989805E+02  0.10871090384E+03  0.11514355271E+03  0.00000000000E+00 0. -1.
         13    1    4    4    0    0 -0.21786020756E+01 -0.61270944450E+02  0.13277847592E+03  0.14624978157E+03  0.00000000000E+00 0.  1.
          1    1    1    2  501    0  0.31690108309E+01  0.52198446754E+02  0.13751445211E+03  0.14712221114E+03  0.00000000000E+00 0. -1.
<scales pt_clust_5="13000.00000" pt_clust_6="13000.00000" pt_clust_7="13000.00000" pt_clust_8="13000.00000" pt_clust_9="13000.00000"></scales>
<clustering>
<clus scale="   81.021">  5  6 -1 -1</clus>
<clus scale="   87.219">  1  5  2 -1</clus>
<clus scale="   92.123">  7  8 -1 -1</clus>
<clus scale="   45.343">  7  9 -1 -1</clus>
<clus scale="  152.450">  2  5  1 -1</clus>
</clustering>
</event>
<event>
 9    2  0.4178938E-005  0.5506571E+03  0.7546771E-02  0.1034884E+00
          2   -1    0    0  502    0 -0.00000000000E+00  0.00000000000E+00  0.42790994281E+03  0.42790994281E+03  0.00000000000E+00 0. -1.
         21   -1    0    0  501  502  0.00000000000E+00 -0.00000000000E+00 -0.32815698554E+03  0.32815698554E+03  0.00000000000E+00 0. -1.
         24    2    1    2    0    0  0.13755273179E+03  0.11820963082E+03  0.32545800589E+02  0.20132370525E+03  0.81103232465E+02 0.  0.
         23    2    1    2    0    0 -0.91539952123E+01 -0.72764698786E+02  0.27935278787E+03  0.30263759795E+03  0.90404859284E+02 0.  0.
        -13    1    3    3    0    0  0.26075832867E+02  0.68701605447E+02 -0.51273357621E+01  0.73662400332E+02  0.00000000000E+00 0.  1.
         14    1    3    3    0    0  0.11147689892E+03  0.49508025377E+02  0.37673136351E+02  0.12766130492E+03  0.00000000000E+00 0. -1.
        -13    1    4    4    0    0 -0.37769110410E+02 -0.43755317953E+01  0.13646765182E+03  0.14166534852E+03  0.00000000000E+00 0.  1.
         13    1    4    4    0    0  0.28615115198E+02 -0.68389166991E+02  0.14288513605E+03  0.16097224942E+03  0.00000000000E+00 0. -1.
          1    1    1    2  501    0 -0.12839873658E+03 -0.45444932037E+02 -0.21214563119E+03  0.25210562516E+03  0.00000000000E+00 0. -1.
<scales pt_clust_5="13000.00000" pt_clust_6="13000.00000" pt_clust_7="13000.00000" pt_clust_8="13000.00000" pt_clust_9="13000.00000"></scales>
<clustering>
<clus scale="   81.103">  5  6 -1 -1</clus>
<clus scale="   90.405">  7  8 -1 -1</clus>
<clus scale="  136.204">  7  9 -1 -1</clus>
<clus scale="  198.676">  1  5  2 -1</clus>
<clus scale="  550.657">  2  5  1 -1</clus>
</clustering>
</event>
<event>
 9    2  0.4178938E-005  0.3107269E+03  0.7546771E-02  0.1140593E+00
          2   -1    0    0  502    0 -0.00000000000E+00  0.00000000000E+00  0.19058380079E+04  0.19058380079E+04  0.00000000000E+00 0. -1.
         21   -1    0    0  501  502  0.00000000000E+00 -0.00000000000E+00 -0.18764921645E+02  0.18764921645E+02  0.00000000000E+00 0. -1.
         24    2    1    2    0    0  0.78957744153E+01 -0.15915104323E+02  0.39257414126E+03  0.39814353847E+03  0.63938932105E+02 0.  0.
         23    2    1    2    0    0  0.59734311584E+02  0.12806321524E+03  0.64360179668E+03  0.66554302794E+03  0.93572828672E+02 0.  0.
        -11    1    3    3    0    0  0.17111852329E+02 -0.36294667457E+02  0.18122350105E+03  0.18561270352E+03  0.00000000000E+00 0.  1.
         12    1    3    3    0    0 -0.92160779140E+01  0.20379563135E+02  0.21135064021E+03  0.21253083495E+03  0.00000000000E+00 0. -1.
        -13    1    4    4    0    0 -0.23994149103E+02  0.42521376323E+02  0.22010458350E+03  0.22545468350E+03  0.00000000000E+00 0.  1.
         13    1    4    4    0    0  0.83728460687E+02  0.85541838917E+02  0.42349721319E+03  0.44008834444E+03  0.00000000000E+00 0. -1.
          1    1    1    2  501    0 -0.67630085999E+02 -0.11214811092E+03  0.85089714832E+03  0.86091636315E+03  0.00000000000E+00 0. -1.
<scales pt_clust_5="13000.00000" pt_clust_6="13000.00000" pt_clust_7="13000.00000" pt_clust_8="13000.00000" pt_clust_9="13000.00000"></scales>
<clustering>
<clus scale="   63.939">  5  6 -1 -1</clus>
<clus scale="   66.361">  1  5  2 -1</clus>
<clus scale="   93.573">  7  8 -1 -1</clus>
<clus scale="  136.638">  7  9 -1 -1</clus>
<clus scale="  310.727">  2  5  1 -1</clus>
</clustering>
</event>
<event>
 9    2  0.4178938E-005  0.3012797E+03  0.7546771E-02  0.1111260E+00
          2   -1    0    0  502    0 -0.00000000000E+00  0.00000000000E+00  0.90557182601E+03  0.90557182601E+03  0.00000000000E+00 0. -1.
         21   -1    0    0  501  502  0.00000000000E+00 -0.00000000000E+00 -0.68455137325E+02  0.68455137325E+02  0.00000000000E+00 0. -1.
         24    2    1    2    0    0  0.35108390630E+02 -0.12179179539E+03  0.49885684015E+03  0.52104883421E+03  0.81042582334E+02 0.  0.
         23    2    1    2    0    0 -0.12405293438E+03  0.69404536057E+02  0.10906594858E+03  0.20161106569E+03  0.92441984586E+02 0.  0.
        -11    1    3    3    0    0 -0.22225468298E+02 -0.38853794396E+02  0.22041617740E+03  0.22491527302E+03  0.00000000000E+00 0.  1.
         12    1    3    3    0    0  0.57333858928E+02 -0.82938000994E+02  0.27844066275E+03  0.29613356119E+03  0.00000000000E+00 0. -1.
        -13    1    4    4    0    0 -0.13577082718E+03  0.52278690650E+02  0.80408948953E+02  0.16622989527E+03  0.00000000000E+00 0. -1.
         13    1    4    4    0    0  0.11717892799E+02  0.17125845407E+02  0.28656999631E+02  0.35381170421E+02  0.00000000000E+00 0.  1.
          1    1    1    2  501    0  0.88944543753E+02  0.52387259333E+02  0.22919389995E+03  0.25136706343E+03  0.00000000000E+00 0. -1.
<scales pt_clust_5="13000.00000" pt_clust_6="13000.00000" pt_clust_7="13000.00000" pt_clust_8="13000.00000" pt_clust_9="13000.00000"></scales>
<clustering>
<clus scale="   81.043">  5  6 -1 -1</clus>
<clus scale="   92.442">  7  8 -1 -1</clus>
<clus scale="  103.226">  7  9 -1 -1</clus>
<clus scale="  150.445">  1  5  2 -1</clus>
<clus scale="  301.280">  2  5  1 -1</clus>
</clustering>
</event>
<event>
 9    2  0.4178938E-005  0.5223577E+03  0.7546771E-02  0.1030618E+00
          2   -1    0    0  502    0 -0.00000000000E+00  0.00000000000E+00  0.60034483176E+03  0.60034483176E+03  0.00000000000E+00 0. -1.
         21   -1    0    0  501  502  0.00000000000E+00 -0.00000000000E+00 -0.26626870696E+03  0.26626870696E+03  0.00000000000E+00 0.  1.
         24    2    1    2    0    0  0.20902583680E+03  0.14028101617E+03  0.39489976466E+02  0.26691479424E+03  0.79457442669E+02 0.  0.
         23    2    1    2    0    0  0.57789882810E+02 -0.14275968289E+03 -0.34753002277E+02  0.17583432260E+03  0.77394704088E+02 0.  0.
        -11    1    3    3    0    0  0.19471951337E+03  0.95326755892E+02  0.32515810673E+02  0.21922626946E+03  0.00000000000E+00 0.  1.
         12    1    3    3    0    0  0.14306323423E+02  0.44954260278E+02  0.69741657929E+01  0.47688524778E+02  0.00000000000E+00 0. -1.
        -13    1    4    4    0    0  0.55029514500E+02 -0.11357450231E+03 -0.57542119163E+02  0.13870295786E+03  0.00000000000E+00 0.  1.
         13    1    4    4    0    0  0.27603683100E+01 -0.29185180582E+02  0.22789116886E+02  0.37131364737E+02  0.00000000000E+00 0. -1.
          1    1    1    2  501    0 -0.26681571961E+03  0.24786667206E+01  0.32933915060E+03  0.42386442188E+03  0.00000000000E+00 0. -1.
<scales pt_clust_5="13000.00000" pt_clust_6="13000.00000" pt_clust_7="13000.00000" pt_clust_8="13000.00000" pt_clust_9="13000.00000"></scales>
<clustering>
<clus scale="   77.395">  7  8 -1 -1</clus>
<clus scale="   79.457">  5  6 -1 -1</clus>
<clus scale="  263.977">  1  5  2 -1</clus>
<clus scale="  150.963">  7  9 -1 -1</clus>
<clus scale="  522.358">  2  5  1 -1</clus>
</clustering>
</event>
<event>
 9    2  0.4178938E-005  0.1582553E+03  0.7546771E-02  0.1210986E+00
          2   -1    0    0  502    0 -0.00000000000E+00  0.00000000000E+00  0.12897108204E+03  0.12897108204E+03  0.00000000000E+00 0. -1.
         21   -1    0    0  501  502  0.00000000000E+00 -0.00000000000E+00 -0.16120640313E+03  0.16120640313E+03  0.00000000000E+00 0. -1.
         24    2    1    2    0    0 -0.60535791054E+02  0.15166979563E+02  0.48140944032E+02  0.11268074508E+03  0.80528135151E+02 0.  0.
         23    2    1    2    0    0  0.75241456544E+02 -0.40924996549E+02 -0.78030936182E+02  0.14774388134E+03  0.91669489718E+02 0.  0.
        -11    1    3    3    0    0 -0.20035098045E+02 -0.31307905411E+02  0.31772571080E+02  0.48898735852E+02  0.00000000000E+00 0.  1.
         12    1    3    3    0    0 -0.40500693009E+02  0.46474884974E+02  0.16368372952E+02  0.63782009224E+02  0.00000000000E+00 0. -1.
        -13    1    4    4    0    0  0.44232423837E+02 -0.68690008961E+02 -0.38409000312E+02  0.90277771098E+02  0.00000000000E+00 0. -1.
         13    1    4    4    0    0  0.31009032708E+02  0.27765012412E+02 -0.39621935871E+02  0.57466110237E+02  0.00000000000E+00 0.  1.
          1    1    1    2  501    0 -0.14705665491E+02  0.25758016986E+02 -0.23453289348E+01  0.29752858760E+02  0.00000000000E+00 0. -1.
<scales pt_clust_5="13000.00000" pt_clust_6="13000.00000" pt_clust_7="13000.00000" pt_clust_8="13000.00000" pt_clust_9="13000.00000"></scales>
<clustering>
<clus scale="   80.528">  5  6 -1 -1</clus>
<clus scale="   91.669">  7  8 -1 -1</clus>
<clus scale="   29.660">  7  9 -1 -1</clus>
<clus scale="  101.879">  1  5  2 -1</clus>
<clus scale="  158.255">  2  5  1 -1</clus>
</clustering>
</event>
<event>
 9    2  0.4178938E-005  0.2645018E+03  0.7546771E-02  0.1131728E+00
         21   -1    0    0  501  502  0.00000000000E+00  0.00000000000E+00  0.20831238738E+03  0.20831238738E+03  0.00000000000E+00 0.  1.
          4   -1    0    0  502    0 -0.00000000000E+00 -0.00000000000E+00 -0.28341245795E+03  0.28341245795E+03  0.00000000000E+00 0. -1.
         24    2    1    2    0    0  0.10142018425E+03  0.30730611260E+02 -0.16514564427E+03  0.21231578059E+03  0.81083183370E+02 0.  0.
         23    2    1    2    0    0  0.40323129600E+02 -0.47291639471E+02  0.55308018592E+02  0.13253451824E+03  0.10316960627E+03 0.  0.
        -11    1    3    3    0    0  0.26448473947E+02 -0.25446515384E+02 -0.27713145473E+02  0.45989839653E+02  0.00000000000E+00 0.  1.
         12    1    3    3    0    0  0.74971710300E+02  0.56177126644E+02 -0.13743249880E+03  0.16632594094E+03  0.00000000000E+00 0. -1.
        -13    1    4    4    0    0  0.39244773702E+02  0.20096864433E+02  0.47300210597E+02  0.64663329217E+02  0.00000000000E+00 0.  1.
         13    1    4    4    0    0  0.10783558984E+01 -0.67388503904E+02  0.80078079947E+01  0.67871189019E+02  0.00000000000E+00 0. -1.
          3    1    1    2  501    0 -0.14174331385E+03  0.16561028211E+02  0.34737555105E+02  0.14687454650E+03  0.00000000000E+00 0. -1.
<scales pt_clust_5="13000.00000" pt_clust_6="13000.00000" pt_clust_7="13000.00000" pt_clust_8="13000.00000" pt_clust_9="13000.00000"></scales>
<clustering>
<clus scale="   81.083">  5  6 -1 -1</clus>
<clus scale="  103.170">  7  8 -1 -1</clus>
<clus scale="  133.435">  2  5  1 -1</clus>
<clus scale="   88.772">  7  9 -1 -1</clus>
<clus scale="  264.502">  1  5  2 -1</clus>
</clustering>
</event>
<event>
 9    2  0.4178938E-005  0.4284003E+03  0.7546771E-02  0.1089432E+00
         21   -1    0    0  501  502  0.00000000000E+00  0.00000000000E+00  0.78875737275E+02  0.78875737275E+02  0.00000000000E+00 0. -1.
          2   -1    0    0  502    0 -0.00000000000E+00 -0.00000000000E+00 -0.86032613169E+03  0.86032613169E+03  0.00000000000E+00 0. -1.
         24    2    1    2    0    0  0.32368959298E+00  0.48966925478E+02 -0.15328817269E+03  0.17886339121E+03  0.78083188098E+02 0.  0.
         23    2    1    2    0    0 -0.12878027629E+03  0.13192862433E+03 -0.27975333201E+03  0.34728515306E+03  0.91408584337E+02 0.  0.
        -11    1    3    3    0    0 -0.35223982234E+02  0.92707918225E+01 -0.42826845710E+02  0.56221127870E+02  0.00000000000E+00 0.  1.
         12    1    3    3    0    0  0.35547671827E+02  0.39696133656E+02 -0.11046132698E+03  0.12264226334E+03  0.00000000000E+00 0. -1.
        -11    1    4    4    0    0 -0.10534875521E+03  0.77761196923E+02 -0.24756479096E+03  0.28005979664E+03  0.00000000000E+00 0. -1.
         11    1    4    4    0    0 -0.23431521080E+02  0.54167427402E+02 -0.32188541051E+02  0.67225356425E+02  0.00000000000E+00 0.  1.
          1    1    1    2  501    0  0.12845658669E+03 -0.18089554980E+03 -0.34840888971E+03  0.41305332469E+03  0.00000000000E+00 0. -1.
<scales pt_clust_5="13000.00000" pt_clust_6="13000.00000" pt_clust_7="13000.00000" pt_clust_8="13000.00000" pt_clust_9="13000.00000"></scales>
<clustering>
<clus scale="   78.083">  5  6 -1 -1</clus>
<clus scale="   91.409">  7  8 -1 -1</clus>
<clus scale="   92.168">  2  5  1 -1</clus>
<clus scale="  200.688">  7  9 -1 -1</clus>
<clus scale="  428.400">  1  5  2 -1</clus>
</clustering>
</event>
<event>
 9    2  0.4178938E-005  0.3576297E+03  0.7546771E-02  0.1077341E+00
         21   -1    0    0  501  502  0.00000000000E+00  0.00000000000E+00  0.23783163247E+03  0.23783163247E+03  0.00000000000E+00 0.  1.
          2   -1    0    0  502    0 -0.00000000000E+00 -0.00000000000E+00 -0.36541978456E+03  0.36541978456E+03  0.00000000000E+00 0. -1.
         24    2    1    2    0    0  0.13985403512E+03 -0.14656587891E+03  0.12118730757E+02  0.21930215384E+03  0.83101522508E+02 0.  0.
         23    2    1    2    0    0 -0.52315750499E+02 -0.66708047727E+02 -0.23174691074E+02  0.12563071802E+03  0.89772543816E+02 0.  0.
        -13    1    3    3    0    0  0.97792166010E+02 -0.14164250192E+03  0.27382629243E+02  0.17428630029E+03  0.00000000000E+00 0.  1.
         14    1    3    3    0    0  0.42061869109E+02 -0.49233769882E+01 -0.15263898486E+02  0.45015853550E+02  0.00000000000E+00 0. -1.
        -11    1    4    4    0    0  0.16813774162E+02 -0.13747665961E+02 -0.31377514310E+02  0.38160840206E+02  0.00000000000E+00 0.  1.
         11    1    4    4    0    0 -0.69129524660E+02 -0.52960381766E+02  0.82028232362E+01  0.87469877818E+02  0.00000000000E+00 0. -1.
          1    1    1    2  501    0 -0.87538284620E+02  0.21327392664E+03 -0.11653219177E+03  0.25831854516E+03  0.00000000000E+00 0. -1.
<scales pt_clust_5="13000.00000" pt_clust_6="13000.00000" pt_clust_7="13000.00000" pt_clust_8="13000.00000" pt_clust_9="13000.00000"></scales>
<clustering>
<clus scale="   83.102">  5  6 -1 -1</clus>
<clus scale="   89.773">  7  8 -1 -1</clus>
<clus scale="  218.967">  2  5  1 -1</clus>
<clus scale="  109.084">  7  9 -1 -1</clus>
<clus scale="  357.630">  1  5  2 -1</clus>
</clustering>
</event>
<event>
 9    2  0.4178938E-005  0.1468248E+03  0.7546771E-02  0.1225585E+00
         21   -1    0    0  501  502  0.00000000000E+00  0.00000000000E+00  0.31981425661E+02  0.31981425661E+02  0.00000000000E+00 0.  1.
          2   -1    0    0  502    0 -0.00000000000E+00 -0.00000000000E+00 -0.45865828670E+03  0.45865828670E+03  0.00000000000E+00 0. -1.
         24    2    1    2    0    0  0.48455785572E+02 -0.25869586224E+01 -0.19436327645E+03  0.21581770108E+03  0.80284128934E+02 0.  0.
         23    2    1    2    0    0 -0.26428497289E+02 -0.17062391348E+02 -0.97178062735E+02  0.13650025720E+03  0.90549178195E+02 0.  0.
        -11    1    3    3    0    0 -0.20619319004E+02  0.99274187099E+01 -0.36982098059E+02  0.43490062489E+02  0.00000000000E+00 0.  1.
         12    1    3    3    0    0  0.69075104576E+02 -0.12514377332E+02 -0.15738117839E+03  0.17232763859E+03  0.00000000000E+00 0. -1.
        -11    1    4    4    0    0 -0.53050915284E+02  0.67485314110E+01 -0.32399213313E+02  0.62527204575E+02  0.00000000000E+00 0.  1.
         11    1    4    4    0    0  0.26622417995E+02 -0.23810922759E+02 -0.64778849422E+02  0.73973052627E+02  0.00000000000E+00 0. -1.
          1    1    1    2  501    0 -0.22027288283E+02  0.19649349971E+02 -0.13513552186E+03  0.13832175408E+03  0.00000000000E+00 0. -1.
<scales pt_clust_5="13000.00000" pt_clust_6="13000.00000" pt_clust_7="13000.00000" pt_clust_8="13000.00000" pt_clust_9="13000.00000"></scales>
<clustering>
<clus scale="   80.284">  5  6 -1 -1</clus>
<clus scale="   90.549">  7  8 -1 -1</clus>
<clus scale="   29.518">  7  9 -1 -1</clus>
<clus scale="   93.809">  2  5  1 -1</clus>
<clus scale="  146.825">  1  5  2 -1</clus>
</clustering>
</event>
<event>
 9    2  0.4178938E-005  0.2754081E+03  0.7546771E-02  0.1121107E+00
         21   -1    0    0  501  502  0.00000000000E+00  0.00000000000E+00  0.15260980582E+03  0.15260980582E+03  0.00000000000E+00 0. -1.
          2   -1    0    0  502    0 -0.00000000000E+00 -0.00000000000E+00 -0.30617397774E+03  0.30617397774E+03  0.00000000000E+00 0. -1.
         24    2    1    2    0    0 -0.11982406595E+03 -0.53460874089E+02 -0.82145383173E+02  0.17426620281E+03  0.80031079134E+02 0.  0.
         23    2    1    2    0    0 -0.38367876114E+02  0.24484936394E+02 -0.75261365074E+02  0.12364787916E+03  0.86907530855E+02 0.  0.
        -11    1    3    3    0    0 -0.62157022105E+02 -0.69821999229E+02 -0.55031127352E+02  0.10847595103E+03  0.00000000000E+00 0.  1.
         12    1    3    3    0    0 -0.57667043841E+02  0.16361125140E+02 -0.27114255821E+02  0.65790251785E+02  0.00000000000E+00 0. -1.
        -11    1    4    4    0    0 -0.24120891738E+02 -0.26340429741E+02 -0.54530746741E+01  0.36129927769E+02  0.00000000000E+00 0. -1.
         11    1    4    4    0    0 -0.14246984376E+02  0.50825366135E+02 -0.69808290399E+02  0.87517951387E+02  0.00000000000E+00 0.  1.
          1    1    1    2  501    0  0.15819194206E+03  0.28975937696E+02  0.38425763350E+01  0.16086970159E+03  0.00000000000E+00 0. -1.
<scales pt_clust_5="13000.00000" pt_clust_6="13000.00000" pt_clust_7="13000.00000" pt_clust_8="13000.00000" pt_clust_9="13000.00000"></scales>
<clustering>
<clus scale="   80.031">  5  6 -1 -1</clus>
<clus scale="   86.908">  7  8 -1 -1</clus>
<clus scale="  153.691">  2  5  1 -1</clus>
<clus scale="  105.468">  7  9 -1 -1</clus>
<clus scale="  275.408">  1  5  2 -1</clus>
</clustering>
</event>
<event>
 9    2  0.4178938E-005  0.3441492E+03  0.7546771E-02  0.1109917E+00
          2   -1    0    0  502    0 -0.00000000000E+00  0.00000000000E+00  0.38002245135E+03  0.38002245135E+03  0.00000000000E+00 0. -1.
         21   -1    0    0  501  502  0.00000000000E+00 -0.00000000000E+00 -0.13330450020E+03  0.13330450020E+03  0.00000000000E+00 0. -1.
         24    2    1    2    0    0 -0.60701003111E+02  0.25224682284E+02  0.75938221267E+02  0.12913380423E+03  0.81166677707E+02 0.  0.
         23    2    1    2    0    0  0.18708568105E+03  0.35866234663E+01  0.72426416360E+02  0.22147697592E+03  0.93768593640E+02 0.  0.
        -13    1    3    3    0    0 -0.57958119087E+02 -0.18326400324E+02  0.42897334902E+02  0.74398802803E+02  0.00000000000E+00 0.  1.
         14    1    3    3    0    0 -0.27428840239E+01  0.43551082608E+02  0.33040886365E+02  0.54735001424E+02  0.00000000000E+00 0. -1.
        -11    1    4    4    0    0  0.18457898401E+03 -0.17658380433E+02  0.53687053138E+02  0.19303761139E+03  0.00000000000E+00 0. -1.
         11    1    4    4    0    0  0.25066970421E+01  0.21245003899E+02  0.18739363222E+02  0.28439364527E+02  0.00000000000E+00 0.  1.
          1    1    1    2  501    0 -0.12638467794E+03 -0.28811305751E+02  0.98353313527E+02  0.16271617141E+03  0.00000000000E+00 0. -1.
<scales pt_clust_5="13000.00000" pt_clust_6="13000.00000" pt_clust_7="13000.00000" pt_clust_8="13000.00000" pt_clust_9="13000.00000"></scales>
<clustering>
<clus scale="   81.167">  5  6 -1 -1</clus>
<clus scale="   93.769">  7  8 -1 -1</clus>
<clus scale="  104.446">  1  5  2 -1</clus>
<clus scale="  155.863">  7  9 -1 -1</clus>
<clus scale="  344.149">  2  5  1 -1</clus>
</clustering>
</event>
<event>
 9    2  0.4178938E-005  0.2155781E+03  0.7546771E-02  0.1165211E+00
          2   -1    0    0  502    0 -0.00000000000E+00  0.00000000000E+00  0.10185967681E+04  0.10185967681E+04  0.00000000000E+00 0. -1.
         21   -1    0    0  501  502  0.00000000000E+00 -0.00000000000E+00 -0.28242837725E+02  0.28242837725E+02  0.00000000000E+00 0.  1.
         24    2    1    2    0    0 -0.75681610017E+02 -0.72698144926E+01  0.21486975184E+03  0.24194853845E+03  0.81175912105E+02 0.  0.
         23    2    1    2    0    0  0.49800180024E+02  0.75701651822E+02  0.61547252451E+03  0.62894649030E+03  0.92501141698E+02 0.  0.
        -13    1    3    3    0    0 -0.57802636062E+02 -0.52299444792E+01  0.51508355786E+02  0.77599019135E+02  0.00000000000E+00 0.  1.
         14    1    3    3    0    0 -0.17878973955E+02 -0.20398700134E+01  0.16336139605E+03  0.16434951931E+03  0.00000000000E+00 0. -1.
        -13    1    4    4    0    0 -0.24942221717E+02  0.38498275781E+02  0.20510360518E+03  0.21017069377E+03  0.00000000000E+00 0.  1.
         13    1    4    4    0    0  0.74742401741E+02  0.37203376040E+02  0.41036891933E+03  0.41877579653E+03  0.00000000000E+00 0. -1.
          1    1    1    2  501    0  0.25881429993E+02 -0.68431837329E+02  0.16001165407E+03  0.17594457712E+03  0.00000000000E+00 0. -1.
<scales pt_clust_5="13000.00000" pt_clust_6="13000.00000" pt_clust_7="13000.00000" pt_clust_8="13000.00000" pt_clust_9="13000.00000"></scales>
<clustering>
<clus scale="   81.176">  5  6 -1 -1</clus>
<clus scale="   92.501">  7  8 -1 -1</clus>
<clus scale="   73.163">  7  9 -1 -1</clus>
<clus scale="  111.221">  1  5  2 -1</clus>
<clus scale="  215.578">  2  5  1 -1</clus>
</clustering>
</event>
<event>
 9    2  0.4178938E-005  0.2432892E+03  0.7546771E-02  0.1158389E+00
          2   -1    0    0  502    0 -0.00000000000E+00  0.00000000000E+00  0.15638153725E+03  0.15638153725E+03  0.00000000000E+00 0. -1.
         21   -1    0    0  501  502  0.00000000000E+00 -0.00000000000E+00 -0.17873207910E+03  0.17873207910E+03  0.00000000000E+00 0. -1.
         24    2    1    2    0    0  0.20335812290E+02 -0.34742926837E+02  0.14414767023E+01  0.90663839580E+02  0.81223381643E+02 0.  0.
         23    2    1    2    0    0 -0.44867986438E+02  0.35102654580E+02 -0.10500845907E+03  0.15960835302E+03  0.10584288976E+03 0.  0.
        -11    1    3    3    0    0  0.40320164142E+02  0.35342413121E+01  0.18157618926E+02  0.44361082304E+02  0.00000000000E+00 0.  1.
         12    1    3    3    0    0 -0.19984351852E+02 -0.38277168150E+02 -0.16716142224E+02  0.46302757276E+02  0.00000000000E+00 0. -1.
        -11    1    4    4    0    0  0.15106278915E+02 -0.13960767534E+02  0.84312951203E+01  0.22230371796E+02  0.00000000000E+00 0.  1.
         11    1    4    4    0    0 -0.59974265353E+02  0.49063422114E+02 -0.11343975419E+03  0.13737798123E+03  0.00000000000E+00 0. -1.
          1    1    1    2  501    0  0.24532174148E+02 -0.35972774248E+00  0.81216440521E+02  0.84841423747E+02  0.00000000000E+00 0. -1.
<scales pt_clust_5="13000.00000" pt_clust_6="13000.00000" pt_clust_7="13000.00000" pt_clust_8="13000.00000" pt_clust_9="13000.00000"></scales>
<clustering>
<clus scale="   81.223">  5  6 -1 -1</clus>
<clus scale="   90.652">  1  5  2 -1</clus>
<clus scale="  105.843">  7  8 -1 -1</clus>
<clus scale="   47.848">  7  9 -1 -1</clus>
<clus scale="  243.289">  2  5  1 -1</clus>
</clustering>
</event>
<event>
 9    2  0.4178938E-005  0.5784667E+03  0.7546771E-02  0.1059514E+00
          2   -1    0    0  502    0 -0.00000000000E+00  0.00000000000E+00  0.37246449834E+03  0.37246449834E+03  0.00000000000E+00 0. -1.
         21   -1    0    0  501  502  0.00000000000E+00 -0.00000000000E+00 -0.43314849342E+03  0.43314849342E+03  0.00000000000E+00 0. -1.
         24    2    1    2    0    0 -0.12523098766E+02 -0.21530248810E+02  0.16442883616E+03  0.18488800456E+03  0.80785843149E+02 0.  0.
         23    2    1    2    0    0  0.38165552366E+01 -0.12442308601E+03  0.15231852540E+03  0.21596257687E+03  0.89124805770E+02 0.  0.
        -13    1    3    3    0    0  0.10608276095E+02  0.26151289185E+02  0.34536389683E+02  0.44600310089E+02  0.00000000000E+00 0.  1.
         14    1    3    3    0    0 -0.23131374861E+02 -0.47681537995E+02  0.12989244648E+03  0.14028769447E+03  0.00000000000E+00 0. -1.
        -11    1    4    4    0    0  0.39346133678E+02 -0.10493239812E+03  0.10387113623E+03  0.15280097956E+03  0.00000000000E+00 0. -1.
         11    1    4    4    0    0 -0.35529578442E+02 -0.19490687891E+02  0.48447389166E+02  0.63161597317E+02  0.00000000000E+00 0.  1.
          1    1    1    2  501    0  0.87065435299E+01  0.14595333482E+03 -0.37743135664E+03  0.40476241033E+03  0.00000000000E+00 0. -1.
<scales pt_clust_5="13000.00000" pt_clust_6="13000.00000" pt_clust_7="13000.00000" pt_clust_8="13000.00000" pt_clust_9="13000.00000"></scales>
<clustering>
<clus scale="   80.786">  5  6 -1 -1</clus>
<clus scale="   84.538">  1  5  2 -1</clus>
<clus scale="   89.125">  7  8 -1 -1</clus>
<clus scale="  144.679">  7  9 -1 -1</clus>
<clus scale="  578.467">  2  5  1 -1</clus>
</clustering>
</event>
<event>
 9    2  0.4178938E-005  0.3372941E+03  0.7546771E-02  0.1115539E+00
          2   -1    0    0  502    0 -0.00000000000E+00  0.00000000000E+00  0.12787226502E+04  0.12787226502E+04  0.00000000000E+00 0. -1.
         21   -1    0    0  501  502  0.00000000000E+00 -0.00000000000E+00 -0.37544478033E+02  0.37544478033E+02  0.00000000000E+00 0. -1.
         24    2    1    2    0    0 -0.45355975015E+02  0.27902722817E+02  0.36325319538E+03  0.37577810879E+03  0.80128501065E+02 0.  0.
         23    2    1    2    0    0 -0.35035476750E+02  0.12360070033E+03  0.51588063979E+03  0.53987427347E+03  0.93950938730E+02 0.  0.
        -11    1    3    3    0    0 -0.53139876365E+02 -0.62760054790E+01  0.14165435581E+03  0.15142387931E+03  0.00000000000E+00 0.  1.
         12    1    3    3    0    0  0.77839013492E+01  0.34178728296E+02  0.22159883957E+03  0.22435422948E+03  0.00000000000E+00 0. -1.
        -11    1    4    4    0    0  0.25609743572E+02  0.19737930974E+02  0.57394096608E+02  0.65875087935E+02  0.00000000000E+00 0.  1.
         11    1    4    4    0    0 -0.60645220322E+02  0.10386276936E+03  0.45848654318E+03  0.47399918554E+03  0.00000000000E+00 0. -1.
          1    1    1    2  501    0  0.80391451765E+02 -0.15150342315E+03  0.36204433704E+03  0.40061474602E+03  0.00000000000E+00 0. -1.
<scales pt_clust_5="13000.00000" pt_clust_6="13000.00000" pt_clust_7="13000.00000" pt_clust_8="13000.00000" pt_clust_9="13000.00000"></scales>
<clustering>
<clus scale="   80.129">  5  6 -1 -1</clus>
<clus scale="   93.951">  7  8 -1 -1</clus>
<clus scale="   96.210">  1  5  2 -1</clus>
<clus scale="  152.677">  7  9 -1 -1</clus>
<clus scale="  337.294">  2  5  1 -1</clus>
</clustering>
</event>
<event>
 9    2  0.4178938E-005  0.1665833E+03  0.7546771E-02  0.1201409E+00
          2   -1    0    0  502    0 -0.00000000000E+00  0.00000000000E+00  0.69435381205E+03  0.69435381205E+03  0.00000000000E+00 0. -1.
         21   -1    0    0  501  502  0.00000000000E+00 -0.00000000000E+00 -0.27183053424E+02  0.27183053424E+02  0.00000000000E+00 0. -1.
         24    2    1    2    0    0 -0.39385155914E+02  0.58340519589E+02  0.28991875900E+03  0.30914254139E+03  0.81002576133E+02 0.  0.
         23    2    1    2    0    0 -0.95616176677E+01 -0.88950196350E+01  0.16914529160E+03  0.19296541525E+03  0.91950942929E+02 0.  0.
        -11    1    3    3    0    0  0.20280049273E+02  0.33110991937E+02  0.72041319784E+02  0.81838682429E+02  0.00000000000E+00 0.  1.
         12    1    3    3    0    0 -0.59665205187E+02  0.25229527652E+02  0.21787743922E+03  0.22730385896E+03  0.00000000000E+00 0. -1.
        -11    1    4    4    0    0  0.23421755025E+02  0.17145073446E+02  0.13704242199E+03  0.14008268121E+03  0.00000000000E+00 0. -1.
         11    1    4    4    0    0 -0.32983372693E+02 -0.26040093081E+02  0.32102869614E+02  0.52882734038E+02  0.00000000000E+00 0.  1.
          1    1    1    2  501    0  0.48946773581E+02 -0.49445499954E+02  0.20810670802E+03  0.21942890884E+03  0.00000000000E+00 0. -1.
<scales pt_clust_5="13000.00000" pt_clust_6="13000.00000" pt_clust_7="13000.00000" pt_clust_8="13000.00000" pt_clust_9="13000.00000"></scales>
<clustering>
<clus scale="   81.003">  5  6 -1 -1</clus>
<clus scale="   91.951">  7  8 -1 -1</clus>
<clus scale="   69.575">  7  9 -1 -1</clus>
<clus scale="  107.314">  1  5  2 -1</clus>
<clus scale="  166.583">  2  5  1 -1</clus>
</clustering>
</event>
<event>
 9    2  0.4178938E-005  0.3445121E+03  0.7546771E-02  0.1115093E+00
         21   -1    0    0  501  502  0.00000000000E+00  0.00000000000E+00  0.18991450894E+03  0.18991450894E+03  0.00000000000E+00 0. -1.
          2   -1    0    0  502    0 -0.00000000000E+00 -0.00000000000E+00 -0.27778414325E+03  0.27778414325E+03  0.00000000000E+00 0. -1.
         24    2    1    2    0    0 -0.13572821584E+02  0.39608584569E+02 -0.82628728683E+02  0.12314672332E+03  0.81145222920E+02 0.  0.
         23    2    1    2    0    0  0.74532770147E+02  0.12120667635E+03 -0.36122968703E+02  0.16981966141E+03  0.85367770944E+02 0.  0.
        -13    1    3    3    0    0 -0.32307967901E+02  0.13575692853E+02 -0.57703991837E+00  0.35049068481E+02  0.00000000000E+00 0.  1.
         14    1    3    3    0    0  0.18735146316E+02  0.26032891717E+02 -0.82051688764E+02  0.88097654837E+02  0.00000000000E+00 0. -1.
        -11    1    4    4    0    0  0.56818679180E+02  0.32799592963E+02 -0.44488798901E+02  0.79268082038E+02  0.00000000000E+00 0.  1.
         11    1    4    4    0    0  0.17714090966E+02  0.88407083389E+02  0.83658301979E+01  0.90551579373E+02  0.00000000000E+00 0. -1.
          1    1    1    2  501    0 -0.60959948562E+02 -0.16081526092E+03  0.30882063074E+02  0.17473226747E+03  0.00000000000E+00 0. -1.
<scales pt_clust_5="13000.00000" pt_clust_6="13000.00000" pt_clust_7="13000.00000" pt_clust_8="13000.00000" pt_clust_9="13000.00000"></scales>
<clustering>
<clus scale="   81.145">  5  6 -1 -1</clus>
<clus scale="   85.368">  7  8 -1 -1</clus>
<clus scale="   91.311">  2  5  1 -1</clus>
<clus scale="  159.109">  7  9 -1 -1</clus>
<clus scale="  344.512">  1  5  2 -1</clus>
</clustering>
</event>
<event>
 9    2  0.4178938E-005  0.2628771E+03  0.7546771E-02  0.1124733E+00
         21   -1    0    0  501  502  0.00000000000E+00  0.00000000000E+00  0.82010268273E+02  0.82010268273E+02  0.00000000000E+00 0. -1.
          2   -1    0    0  502    0 -0.00000000000E+00 -0.00000000000E+00 -0.59885281072E+03  0.59885281072E+03  0.00000000000E+00 0. -1.
         24    2    1    2    0    0  0.91595072756E+02  0.10771749037E+03 -0.29746190050E+03  0.33847117064E+03  0.78015613961E+02 0.  0.
         23    2    1    2    0    0  0.19355755664E+02  0.93132223849E+01 -0.12250980993E+03  0.15426899068E+03  0.91262733734E+02 0.  0.
        -11    1    3    3    0    0  0.65588262658E+02  0.23666575005E+02 -0.96141369102E+02  0.11876485096E+03  0.00000000000E+00 0.  1.
         12    1    3    3    0    0  0.26006810098E+02  0.84050915368E+02 -0.20132053140E+03  0.21970631968E+03  0.00000000000E+00 0. -1.
        -11    1    4    4    0    0  0.35161107305E+02  0.38339675205E+02 -0.40750362362E+02  0.66081965728E+02  0.00000000000E+00 0. -1.
         11    1    4    4    0    0 -0.15805351641E+02 -0.29026452820E+02 -0.81759447569E+02  0.88187024956E+02  0.00000000000E+00 0.  1.
          1    1    1    2  501    0 -0.11095082842E+03 -0.11703071276E+03 -0.96870832013E+02  0.18812291766E+03  0.00000000000E+00 0. -1.
<scales pt_clust_5="13000.00000" pt_clust_6="13000.00000" pt_clust_7="13000.00000" pt_clust_8="13000.00000" pt_clust_9="13000.00000"></scales>
<clustering>
<clus scale="   78.016">  5  6 -1 -1</clus>
<clus scale="   91.263">  7  8 -1 -1</clus>
<clus scale="  161.265">  7  9 -1 -1</clus>
<clus scale="  161.490">  2  5  1 -1</clus>
<clus scale="  262.877">  1  5  2 -1</clus>
</clustering>
</event>
<event>
 9    2  0.4178938E-005  0.1390689E+03  0.7546771E-02  0.1225345E+00
         21   -1    0    0  501  502  0.00000000000E+00  0.00000000000E+00  0.37976470697E+02  0.37976470697E+02  0.00000000000E+00 0. -1.
          2   -1    0    0  502    0 -0.00000000000E+00 -0.00000000000E+00 -0.77250515521E+03  0.77250515521E+03  0.00000000000E+00 0. -1.
         24    2    1    2    0    0 -0.58553238520E+02 -0.33669139762E+02 -0.69171173992E+02  0.13074580508E+03  0.88021142468E+02 0.  0.
         23    2    1    2    0    0  0.14375803929E+02  0.33075447838E+02 -0.43282392379E+03  0.44304220630E+03  0.87459696856E+02 0.  0.
        -11    1    3    3    0    0 -0.54829775386E+02 -0.47122669350E+01 -0.82082230028E+02  0.98823085435E+02  0.00000000000E+00 0.  1.
         12    1    3    3    0    0 -0.37234631343E+01 -0.28956872827E+02  0.12911056036E+02  0.31922719646E+02  0.00000000000E+00 0. -1.
        -11    1    4    4    0    0 -0.31903987042E+02  0.36124161904E+02 -0.22594209684E+03  0.23102521634E+03  0.00000000000E+00 0. -1.
         11    1    4    4    0    0  0.46279790971E+02 -0.30487140662E+01 -0.20688182695E+03  0.21201698996E+03  0.00000000000E+00 0.  1.
          1    1    1    2  501    0  0.44177434592E+02  0.59369192429E+00 -0.23253358674E+03  0.23669361453E+03  0.00000000000E+00 0. -1.
<scales pt_clust_5="13000.00000" pt_clust_6="13000.00000" pt_clust_7="13000.00000" pt_clust_8="13000.00000" pt_clust_9="13000.00000"></scales>
<clustering>
<clus scale="   87.460">  7  8 -1 -1</clus>
<clus scale="   44.181">  7  9 -1 -1</clus>
<clus scale="   88.021">  5  6 -1 -1</clus>
<clus scale="  110.950">  2  5  1 -1</clus>
<clus scale="  139.069">  1  5  2 -1</clus>
</clustering>
</event>
<event>
 9    2  0.4178938E-005  0.2301535E+03  0.7546771E-02  0.1165635E+00
         21   -1    0    0  501  502  0.00000000000E+00  0.00000000000E+00  0.30099296152E+02  0.30099296152E+02  0.00000000000E+00 0. -1.
          2   -1    0    0  502    0 -0.00000000000E+00 -0.00000000000E+00 -0.87547734860E+03  0.87547734860E+03  0.00000000000E+00 0. -1.
         24    2    1    2    0    0 -0.39438283507E+02 -0.17731898048E+02 -0.30707113969E+03  0.32013239173E+03  0.79512671872E+02 0.  0.
         23    2    1    2    0    0  0.82297477542E+02  0.34369047552E+02 -0.16886137560E+03  0.21314906077E+03  0.94679732228E+02 0.  0.
        -13    1    3    3    0    0  0.20622594277E+02  0.10325496005E+02 -0.58741129582E+02  0.63106478012E+02  0.00000000000E+00 0.  1.
         14    1    3    3    0    0 -0.60060877783E+02 -0.28057394053E+02 -0.24833001011E+03  0.25702591372E+03  0.00000000000E+00 0. -1.
        -11    1    4    4    0    0  0.87256512907E+02 -0.70093455079E+01 -0.10256520660E+03  0.13484232115E+03  0.00000000000E+00 0. -1.
         11    1    4    4    0    0 -0.49590353654E+01  0.41378393060E+02 -0.66296169004E+02  0.78306739612E+02  0.00000000000E+00 0.  1.
          1    1    1    2  501    0 -0.42859194035E+02 -0.16637149504E+02 -0.36944553715E+03  0.37229519226E+03  0.00000000000E+00 0. -1.
<scales pt_clust_5="13000.00000" pt_clust_6="13000.00000" pt_clust_7="13000.00000" pt_clust_8="13000.00000" pt_clust_9="13000.00000"></scales>
<clustering>
<clus scale="   79.513">  5  6 -1 -1</clus>
<clus scale="   90.510">  2  5  1 -1</clus>
<clus scale="   94.680">  7  8 -1 -1</clus>
<clus scale="   74.493">  7  9 -1 -1</clus>
<clus scale="  230.154">  1  5  2 -1</clus>
</clustering>
</event>
<event>
 9    2  0.4178938E-005  0.2048182E+03  0.7546771E-02  0.1165675E+00
         21   -1    0    0  501  502  0.00000000000E+00  0.00000000000E+00  0.26256581533E+02  0.26256581533E+02  0.00000000000E+00 0. -1.
          2   -1    0    0  502    0 -0.00000000000E+00 -0.00000000000E+00 -0.10653953611E+04  0.10653953611E+04  0.00000000000E+00 0. -1.
         24    2    1    2    0    0 -0.88920739703E+02  0.45877679146E+02 -0.44950331181E+03  0.46745606479E+03  0.80313671224E+02 0.  0.
         23    2    1    2    0    0  0.21863685129E+02 -0.52439120679E+02 -0.21092705643E+03  0.23954049715E+03  0.98293156111E+02 0.  0.
        -11    1    3    3    0    0 -0.31728086161E+02  0.44426043294E+02 -0.10611588322E+03  0.11933534868E+03  0.00000000000E+00 0.  1.
         12    1    3    3    0    0 -0.57192653542E+02  0.14516358517E+01 -0.34338742860E+03  0.34812071611E+03  0.00000000000E+00 0. -1.
        -13    1    4    4    0    0  0.32425997395E+02  0.17667040321E+02 -0.39713316362E+02  0.54228379260E+02  0.00000000000E+00 0.  1.
         13    1    4    4    0    0 -0.10562312266E+02 -0.70106161000E+02 -0.17121374007E+03  0.18531211789E+03  0.00000000000E+00 0. -1.
          1    1    1    2  501    0  0.67057054574E+02  0.65614415331E+01 -0.37870841129E+03  0.38465538065E+03  0.00000000000E+00 0. -1.
<scales pt_clust_5="13000.00000" pt_clust_6="13000.00000" pt_clust_7="13000.00000" pt_clust_8="13000.00000" pt_clust_9="13000.00000"></scales>
<clustering>
<clus scale="   80.314">  5  6 -1 -1</clus>
<clus scale="   98.293">  7  8 -1 -1</clus>
<clus scale="   67.377">  7  9 -1 -1</clus>
<clus scale="  128.304">  2  5  1 -1</clus>
<clus scale="  204.818">  1  5  2 -1</clus>
</clustering>
</event>
<event>
 9    2  0.4178938E-005  0.3568321E+03  0.7546771E-02  0.1107889E+00
          2   -1    0    0  502    0 -0.00000000000E+00  0.00000000000E+00  0.14387004980E+04  0.14387004980E+04  0.00000000000E+00 0. -1.
         21   -1    0    0  501  502  0.00000000000E+00 -0.00000000000E+00 -0.45389927878E+02  0.45389927878E+02  0.00000000000E+00 0.  1.
         24    2    1    2    0    0 -0.53666340997E+02  0.21914399390E+02  0.67346899183E+03  0.68065960852E+03  0.79854258833E+02 0.  0.
         23    2    1    2    0    0 -0.24577804381E+02  0.99723242228E+02  0.10702573255E+03  0.17377922883E+03  0.90531317434E+02 0.  0.
        -13    1    3    3    0    0  0.12427384516E+02  0.21401517351E+02  0.86180945006E+02  0.89663928717E+02  0.00000000000E+00 0.  1.
         14    1    3    3    0    0 -0.66093725514E+02  0.51288203909E+00  0.58728804682E+03  0.59099567980E+03  0.00000000000E+00 0. -1.
        -11    1    4    4    0    0  0.80491591256E+01  0.52251859920E+02  0.72318469185E+00  0.52873138963E+02  0.00000000000E+00 0.  1.
         11    1    4    4    0    0 -0.32626963506E+02  0.47471382309E+02  0.10630254786E+03  0.12090608987E+03  0.00000000000E+00 0. -1.
          1    1    1    2  501    0  0.78244145378E+02 -0.12163764162E+03  0.61281584572E+03  0.62965158851E+03  0.00000000000E+00 0. -1.
<scales pt_clust_5="13000.00000" pt_clust_6="13000.00000" pt_clust_7="13000.00000" pt_clust_8="13000.00000" pt_clust_9="13000.00000"></scales>
<clustering>
<clus scale="   79.854">  5  6 -1 -1</clus>
<clus scale="   90.531">  7  8 -1 -1</clus>
<clus scale="   98.676">  1  5  2 -1</clus>
<clus scale="  109.339">  7  9 -1 -1</clus>
<clus scale="  356.832">  2  5  1 -1</clus>
</clustering>
</event>
<event>
 9    2  0.4178938E-005  0.1761593E+03  0.7546771E-02  0.1197463E+00
         -1   -1    0    0    0  501 -0.00000000000E+00  0.00000000000E+00  0.38330606420E+02  0.38330606420E+02  0.00000000000E+00 0.  1.
         21   -1    0    0  501  502  0.00000000000E+00 -0.00000000000E+00 -0.51424484765E+03  0.51424484765E+03  0.00000000000E+00 0. -1.
         24    2    1    2    0    0  0.20479524832E+02 -0.54710594095E+02 -0.12028561462E+03  0.15570796226E+03  0.79772679436E+02 0.  0.
         23    2    1    2    0    0 -0.59052416191E+02  0.25389993527E+02 -0.31435255476E+03  0.33321782823E+03  0.89915253101E+02 0.  0.
        -13    1    3    3    0    0  0.18538802193E+02  0.12603492801E+02 -0.64422684630E+02  0.68211564360E+02  0.00000000000E+00 0.  1.
         14    1    3    3    0    0  0.19407226384E+01 -0.67314086896E+02 -0.55862929985E+02  0.87496397900E+02  0.00000000000E+00 0. -1.
        -13    1    4    4    0    0  0.11752058736E+02  0.34884817584E+02 -0.76984365477E+02  0.85332607544E+02  0.00000000000E+00 0.  1.
         13    1    4    4    0    0 -0.70804474927E+02 -0.94948240562E+01 -0.23736818928E+03  0.24788522069E+03  0.00000000000E+00 0. -1.
         -2    1    1    2    0  502  0.38572891359E+02  0.29320600568E+02 -0.41276071858E+02  0.63649663578E+02  0.00000000000E+00 0.  1.
<scales pt_clust_5="13000.00000" pt_clust_6="13000.00000" pt_clust_7="13000.00000" pt_clust_8="13000.00000" pt_clust_9="13000.00000"></scales>
<clustering>
<clus scale="   79.773">  5  6 -1 -1</clus>
<clus scale="   89.915">  7  8 -1 -1</clus>
<clus scale="   48.452">  7  9 -1 -1</clus>
<clus scale="   98.875">  1  5  2 -1</clus>
<clus scale="  176.159">  2  5  1 -1</clus>
</clustering>
</event>
<event>
 9    2  0.4178938E-005  0.5513364E+03  0.7546771E-02  0.1015647E+00
          2   -1    0    0  502    0 -0.00000000000E+00  0.00000000000E+00  0.27645545620E+04  0.27645545620E+04  0.00000000000E+00 0. -1.
         21   -1    0    0  501  502  0.00000000000E+00 -0.00000000000E+00 -0.74192512449E+02  0.74192512449E+02  0.00000000000E+00 0.  1.
         24    2    1    2    0    0 -0.11198841346E+03  0.32526224583E+03  0.95306511878E+03  0.10160643108E+04  0.75608396875E+02 0.  0.
         23    2    1    2    0    0 -0.58208327789E+02  0.58499760832E+02  0.48570588701E+03  0.50256142482E+03  0.99233792621E+02 0.  0.
        -11    1    3    3    0    0 -0.11775538911E+03  0.28431282544E+03  0.87791544899E+03  0.93028793927E+03  0.00000000000E+00 0.  1.
         12    1    3    3    0    0  0.57669756517E+01  0.40949420396E+02  0.75149669786E+02  0.85776371501E+02  0.00000000000E+00 0. -1.
        -13    1    4    4    0    0  0.22205254174E+02 -0.75638991195E+01  0.62789872990E+02  0.67028755269E+02  0.00000000000E+00 0.  1.
         13    1    4    4    0    0 -0.80413581963E+02  0.66063659951E+02  0.42291601402E+03  0.43553266955E+03  0.00000000000E+00 0. -1.
          1    1    1    2  501    0  0.17019674125E+03 -0.38376200667E+03  0.12515910438E+04  0.13201213389E+04  0.00000000000E+00 0. -1.
<scales pt_clust_5="13000.00000" pt_clust_6="13000.00000" pt_clust_7="13000.00000" pt_clust_8="13000.00000" pt_clust_9="13000.00000"></scales>
<clustering>
<clus scale="   75.608">  5  6 -1 -1</clus>
<clus scale="   99.234">  7  8 -1 -1</clus>
<clus scale="  352.213">  1  5  2 -1</clus>
<clus scale="  173.533">  7  9 -1 -1</clus>
<clus scale="  551.336">  2  5  1 -1</clus>
</clustering>
</event>
<event>
 9    2  0.4178938E-005  0.2486207E+03  0.7546771E-02  0.1141606E+00
         21   -1    0    0  501  502  0.00000000000E+00  0.00000000000E+00  0.41076820544E+03  0.41076820544E+03  0.00000000000E+00 0. -1.
          4   -1    0    0  502    0 -0.00000000000E+00 -0.00000000000E+00 -0.98557095553E+02  0.98557095553E+02  0.00000000000E+00 0. -1.
         24    2    1    2    0    0  0.64332187227E+02 -0.52098946303E+02  0.19987189622E+03  0.23650234488E+03  0.95559686661E+02 0.  0.
         23    2    1    2    0    0 -0.86424729600E+02 -0.44389524712E+02  0.11303250813E+03  0.17383514815E+03  0.89457515329E+02 0.  0.
        -11    1    3    3    0    0 -0.42328499219E+00 -0.42553060804E+02  0.14491805593E+03  0.15103703218E+03  0.00000000000E+00 0.  1.
         12    1    3    3    0    0  0.64755472219E+02 -0.95458854990E+01  0.54953840285E+02  0.85465312697E+02  0.00000000000E+00 0. -1.
        -11    1    4    4    0    0 -0.99678793948E+02 -0.23072001960E+02  0.10694673432E+03  0.14800602426E+03  0.00000000000E+00 0. -1.
         11    1    4    4    0    0  0.13254064348E+02 -0.21317522752E+02  0.60857738137E+01  0.25829123890E+02  0.00000000000E+00 0.  1.
          3    1    1    2  501    0  0.22092542373E+02  0.96488471016E+02 -0.69329446433E+00  0.98987807960E+02  0.00000000000E+00 0. -1.
<scales pt_clust_5="13000.00000" pt_clust_6="13000.00000" pt_clust_7="13000.00000" pt_clust_8="13000.00000" pt_clust_9="13000.00000"></scales>
<clustering>
<clus scale="   89.458">  7  8 -1 -1</clus>
<clus scale="   95.560">  5  6 -1 -1</clus>
<clus scale="   98.985">  7  9 -1 -1</clus>
<clus scale="  126.430">  2  5  1 -1</clus>
<clus scale="  248.621">  1  5  2 -1</clus>
</clustering>
</event>
<event>
 9    2  0.4178938E-005  0.2156934E+03  0.7546771E-02  0.1166498E+00
         21   -1    0    0  501  502  0.00000000000E+00  0.00000000000E+00  0.51981946341E+03  0.51981946341E+03  0.00000000000E+00 0.  1.
         -1   -1    0    0    0  501 -0.00000000000E+00 -0.00000000000E+00 -0.50334019607E+02  0.50334019607E+02  0.00000000000E+00 0.  1.
         24    2    1    2    0    0  0.50230283104E+02 -0.50805060142E+02  0.15357301485E+03  0.18762989018E+03  0.80722173682E+02 0.  0.
         23    2    1    2    0    0  0.44238176193E+02  0.32432380191E+01  0.10324456156E+03  0.14500719646E+03  0.91652128762E+02 0.  0.
        -13    1    3    3    0    0  0.28540669488E+02 -0.28787251253E+02  0.15130372007E+03  0.15664000561E+03  0.00000000000E+00 0.  1.
         14    1    3    3    0    0  0.21689613616E+02 -0.22017808889E+02  0.22692947753E+01  0.30989884573E+02  0.00000000000E+00 0. -1.
        -13    1    4    4    0    0  0.26004878974E+02 -0.29921280291E+02  0.52880089107E+01  0.39993746798E+02  0.00000000000E+00 0.  1.
         13    1    4    4    0    0  0.18233297220E+02  0.33164518310E+02  0.97956552651E+02  0.10501344966E+03  0.00000000000E+00 0. -1.
         -2    1    1    2    0  502 -0.94468459297E+02  0.47561822123E+02  0.21266786739E+03  0.23751639637E+03  0.00000000000E+00 0.  1.
<scales pt_clust_5="13000.00000" pt_clust_6="13000.00000" pt_clust_7="13000.00000" pt_clust_8="13000.00000" pt_clust_9="13000.00000"></scales>
<clustering>
<clus scale="   80.722">  5  6 -1 -1</clus>
<clus scale="   91.652">  7  8 -1 -1</clus>
<clus scale="  105.766">  7  9 -1 -1</clus>
<clus scale="  107.798">  2  5  1 -1</clus>
<clus scale="  215.693">  1  5  2 -1</clus>
</clustering>
</event>
<event>
 9    2  0.4178938E-005  0.1997898E+03  0.7546771E-02  0.1167412E+00
         21   -1    0    0  501  502  0.00000000000E+00  0.00000000000E+00  0.13731638845E+03  0.13731638845E+03  0.00000000000E+00 0. -1.
          2   -1    0    0  502    0 -0.00000000000E+00 -0.00000000000E+00 -0.24050802571E+03  0.24050802571E+03  0.00000000000E+00 0. -1.
         24    2    1    2    0    0  0.31899676614E+02  0.99311732120E+02 -0.11775317979E+03  0.17750463323E+03  0.82229398419E+02 0.  0.
         23    2    1    2    0    0 -0.45778427015E+02 -0.47103690140E+02 -0.42017605583E+02  0.12209255189E+03  0.93950465906E+02 0.  0.
        -13    1    3    3    0    0  0.18110406736E+02  0.24943520458E+02 -0.92915382064E+02  0.97895016569E+02  0.00000000000E+00 0.  1.
         14    1    3    3    0    0  0.13789269878E+02  0.74368211663E+02 -0.24837797724E+02  0.79609616664E+02  0.00000000000E+00 0. -1.
        -11    1    4    4    0    0  0.11797309515E+02  0.18443351292E+02  0.57393675240E+01  0.22633472077E+02  0.00000000000E+00 0.  1.
         11    1    4    4    0    0 -0.57575736530E+02 -0.65547041432E+02 -0.47756973107E+02  0.99459079816E+02  0.00000000000E+00 0. -1.
          1    1    1    2  501    0  0.13878750401E+02 -0.52208041980E+02  0.56579148115E+02  0.78227229029E+02  0.00000000000E+00 0. -1.
<scales pt_clust_5="13000.00000" pt_clust_6="13000.00000" pt_clust_7="13000.00000" pt_clust_8="13000.00000" pt_clust_9="13000.00000"></scales>
<clustering>
<clus scale="   82.229">  5  6 -1 -1</clus>
<clus scale="   93.950">  7  8 -1 -1</clus>
<clus scale="   54.021">  7  9 -1 -1</clus>
<clus scale="  132.824">  2  5  1 -1</clus>
<clus scale="  199.790">  1  5  2 -1</clus>
</clustering>
</event>
<event>
 9    2  0.4178938E-005  0.1658898E+03  0.7546771E-02  0.1212323E+00
          4   -1    0    0  502    0 -0.00000000000E+00  0.00000000000E+00  0.19362897797E+03  0.19362897797E+03  0.00000000000E+00 0. -1.
         21   -1    0    0  501  502  0.00000000000E+00 -0.00000000000E+00 -0.36965534383E+03  0.36965534383E+03  0.00000000000E+00 0.  1.
         24    2    1    2    0    0  0.13674205281E+01 -0.23712074989E+02  0.16387860648E+03  0.18505845402E+03  0.82621434272E+02 0.  0.
         23    2    1    2    0    0  0.29625354926E+02 -0.30700594641E+02 -0.15183550564E+03  0.18000524562E+03  0.86762200936E+02 0.  0.
        -11    1    3    3    0    0  0.26693207859E+02  0.15088946387E+02  0.28097973626E+02  0.41589659421E+02  0.00000000000E+00 0.  1.
         12    1    3    3    0    0 -0.25325787331E+02 -0.38801021376E+02  0.13578063286E+03  0.14346879460E+03  0.00000000000E+00 0. -1.
        -11    1    4    4    0    0  0.36092337705E+02 -0.39639526185E+01 -0.13148757646E+02  0.38616830385E+02  0.00000000000E+00 0. -1.
         11    1    4    4    0    0 -0.64669827790E+01 -0.26736642023E+02 -0.13868674799E+03  0.14138841523E+03  0.00000000000E+00 0.  1.
          3    1    1    2  501    0 -0.30992775454E+02  0.54412669630E+02 -0.18806946670E+03  0.19822062216E+03  0.00000000000E+00 0. -1.
<scales pt_clust_5="13000.00000" pt_clust_6="13000.00000" pt_clust_7="13000.00000" pt_clust_8="13000.00000" pt_clust_9="13000.00000"></scales>
<clustering>
<clus scale="   82.621">  5  6 -1 -1</clus>
<clus scale="   85.968">  1  5  2 -1</clus>
<clus scale="   86.762">  7  8 -1 -1</clus>
<clus scale="   57.051">  7  9 -1 -1</clus>
<clus scale="  165.890">  2  5  1 -1</clus>
</clustering>
</event>
<event>
 9    2  0.4178938E-005  0.2076544E+03  0.7546771E-02  0.1162857E+00
         21   -1    0    0  501  502  0.00000000000E+00  0.00000000000E+00  0.43657310332E+02  0.43657310332E+02  0.00000000000E+00 0. -1.
          2   -1    0    0  502    0 -0.00000000000E+00 -0.00000000000E+00 -0.80457775145E+03  0.80457775145E+03  0.00000000000E+00 0. -1.
         24    2    1    2    0    0 -0.82565836040E+02 -0.63889597323E+02 -0.13340227359E+03  0.18725141390E+03  0.79799294996E+02 0.  0.
         23    2    1    2    0    0  0.96473254745E+02  0.12371478555E+02 -0.30018493153E+03  0.32932933953E+03  0.94269180522E+02 0.  0.
        -11    1    3    3    0    0  0.12582385502E+02 -0.23638638508E+02 -0.17508289892E+02  0.31994403735E+02  0.00000000000E+00 0.  1.
         12    1    3    3    0    0 -0.95148221542E+02 -0.40250958814E+02 -0.11589398369E+03  0.15525701016E+03  0.00000000000E+00 0. -1.
        -13    1    4    4    0    0 -0.11696342829E+02 -0.17677796995E+02 -0.71465170984E+02  0.74542468472E+02  0.00000000000E+00 0.  1.
         13    1    4    4    0    0  0.10816959757E+03  0.30049275550E+02 -0.22871976054E+03  0.25478687106E+03  0.00000000000E+00 0. -1.
          1    1    1    2  501    0 -0.13907418705E+02  0.51518118767E+02 -0.32733323600E+03  0.33165430835E+03  0.00000000000E+00 0. -1.
<scales pt_clust_5="13000.00000" pt_clust_6="13000.00000" pt_clust_7="13000.00000" pt_clust_8="13000.00000" pt_clust_9="13000.00000"></scales>
<clustering>
<clus scale="   79.799">  5  6 -1 -1</clus>
<clus scale="   94.269">  7  8 -1 -1</clus>
<clus scale="   53.362">  7  9 -1 -1</clus>
<clus scale="  131.404">  2  5  1 -1</clus>
<clus scale="  207.654">  1  5  2 -1</clus>
</clustering>
</event>
<event>
 9    2  0.4178938E-005  0.1353354E+03  0.7546771E-02  0.1240632E+00
          2   -1    0    0  502    0 -0.00000000000E+00  0.00000000000E+00  0.11714106447E+03  0.11714106447E+03  0.00000000000E+00 0. -1.
         21   -1    0    0  501  502  0.00000000000E+00 -0.00000000000E+00 -0.19713178120E+03  0.19713178120E+03  0.00000000000E+00 0.  1.
         24    2    1    2    0    0  0.32796262596E+01  0.36922227279E+02  0.69893998093E+02  0.11232953912E+03  0.79741755525E+02 0.  0.
         23    2    1    2    0    0 -0.35191634545E+01 -0.10583450482E+02 -0.63178362530E+02  0.11132443396E+03  0.90979284284E+02 0.  0.
        -11    1    3    3    0    0 -0.27771748670E+02 -0.85382177045E+01  0.94057411214E+01  0.30539141308E+02  0.00000000000E+00 0.  1.
         12    1    3    3    0    0  0.31051374930E+02  0.45460444983E+02  0.60488256971E+02  0.81790397813E+02  0.00000000000E+00 0. -1.
        -13    1    4    4    0    0  0.22364647405E+02 -0.36533898104E+02 -0.61091310646E+02  0.74612675871E+02  0.00000000000E+00 0. -1.
         13    1    4    4    0    0 -0.25883810859E+02  0.25950447622E+02 -0.20870518844E+01  0.36711758088E+02  0.00000000000E+00 0.  1.
          1    1    1    2  501    0  0.23953719484E+00 -0.26338776797E+02 -0.86706352297E+02  0.90618872593E+02  0.00000000000E+00 0. -1.
<scales pt_clust_5="13000.00000" pt_clust_6="13000.00000" pt_clust_7="13000.00000" pt_clust_8="13000.00000" pt_clust_9="13000.00000"></scales>
<clustering>
<clus scale="   79.742">  5  6 -1 -1</clus>
<clus scale="   87.936">  1  5  2 -1</clus>
<clus scale="   90.979">  7  8 -1 -1</clus>
<clus scale="   23.569">  7  9 -1 -1</clus>
<clus scale="  135.335">  2  5  1 -1</clus>
</clustering>
</event>
<event>
 9    2  0.4178938E-005  0.6164796E+03  0.7546771E-02  0.1018325E+00
          2   -1    0    0  502    0 -0.00000000000E+00  0.00000000000E+00  0.17245488397E+04  0.17245488397E+04  0.00000000000E+00 0. -1.
         21   -1    0    0  501  502  0.00000000000E+00 -0.00000000000E+00 -0.10621782396E+03  0.10621782396E+03  0.00000000000E+00 0. -1.
         24    2    1    2    0    0 -0.12506414473E+03 -0.17880194051E+03  0.34247093021E+03  0.41377476582E+03  0.79448376753E+02 0.  0.
         23    2    1    2    0    0 -0.11854332381E+03  0.21002996175E+03  0.23990685905E+03  0.35232346329E+03  0.91713779305E+02 0.  0.
        -11    1    3    3    0    0 -0.13884467267E+02 -0.86418096476E+02  0.12239731538E+03  0.15047248467E+03  0.00000000000E+00 0.  1.
         12    1    3    3    0    0 -0.11117967746E+03 -0.92383844032E+02  0.22007361482E+03  0.26330228115E+03  0.00000000000E+00 0. -1.
        -11    1    4    4    0    0 -0.55935661732E+02  0.68914014727E+02  0.34175657288E+02  0.95110016456E+02  0.00000000000E+00 0.  1.
         11    1    4    4    0    0 -0.62607662079E+02  0.14111594703E+03  0.20573120176E+03  0.25721344684E+03  0.00000000000E+00 0. -1.
          1    1    1    2  501    0  0.24360746854E+03 -0.31228021247E+02  0.10359532265E+04  0.10646684346E+04  0.00000000000E+00 0. -1.
<scales pt_clust_5="13000.00000" pt_clust_6="13000.00000" pt_clust_7="13000.00000" pt_clust_8="13000.00000" pt_clust_9="13000.00000"></scales>
<clustering>
<clus scale="   79.448">  5  6 -1 -1</clus>
<clus scale="   91.714">  7  8 -1 -1</clus>
<clus scale="  232.214">  1  5  2 -1</clus>
<clus scale="  224.657">  7  9 -1 -1</clus>
<clus scale="  616.480">  2  5  1 -1</clus>
</clustering>
</event>
<event>
 9    2  0.4383295E-005  0.2635290E+03  0.7546771E-02  0.1140807E+00
         21   -1    0    0  501  502  0.00000000000E+00  0.00000000000E+00  0.65960776768E+02  0.65960776768E+02  0.00000000000E+00 0. -1.
          2   -1    0    0  502    0 -0.00000000000E+00 -0.00000000000E+00 -0.11368247322E+04  0.11368247322E+04  0.00000000000E+00 0. -1.
         24    2    1    2    0    0  0.66110456330E+02 -0.23909454168E+02 -0.85586245828E+03  0.86267788038E+03  0.82281974721E+02 0.  0.
         23    2    1    2    0    0  0.58963054050E+02  0.25492558179E+02 -0.17673905365E+03  0.20930279763E+03  0.91893719855E+02 0.  0.
        -11    1    3    3    0    0 -0.10789142334E+02 -0.27559723481E+02 -0.17609335511E+03  0.17856319235E+03  0.00000000000E+00 0.  1.
         12    1    3    3    0    0  0.76899598664E+02  0.36502693135E+01 -0.67976910317E+03  0.68411468802E+03  0.00000000000E+00 0. -1.
        -11    1    4    4    0    0 -0.99822483880E+01 -0.23060606809E+02 -0.62087221988E+02  0.66979549143E+02  0.00000000000E+00 0.  1.
         11    1    4    4    0    0  0.68945302438E+02  0.48553164988E+02 -0.11465183166E+03  0.14232324849E+03  0.00000000000E+00 0. -1.
          1    1    1    2  501    0 -0.12507351038E+03 -0.15831040109E+01 -0.38262443500E+02  0.13080483095E+03  0.00000000000E+00 0. -1.
<scales pt_clust_5="13000.00000" pt_clust_6="13000.00000" pt_clust_7="13000.00000" pt_clust_8="13000.00000" pt_clust_9="13000.00000"></scales>
<clustering>
<clus scale="   82.282">  5  6 -1 -1</clus>
<clus scale="   91.894">  7  8 -1 -1</clus>
<clus scale="  108.225">  2  5  1 -1</clus>
<clus scale="  105.312">  7  9 -1 -1</clus>
<clus scale="  263.529">  1  5  2 -1</clus>
</clustering>
</event>
<event>
 9    2  0.4178938E-005  0.4857209E+03  0.7546771E-02  0.1073506E+00
         -1   -1    0    0    0  501 -0.00000000000E+00  0.00000000000E+00  0.47598773950E+03  0.47598773950E+03  0.00000000000E+00 0.  1.
         21   -1    0    0  501  502  0.00000000000E+00 -0.00000000000E+00 -0.27445982148E+03  0.27445982148E+03  0.00000000000E+00 0.  1.
         24    2    1    2    0    0  0.42748470580E+02  0.22103719326E+02  0.24429476583E+03  0.26284749881E+03  0.84219171663E+02 0.  0.
         23    2    1    2    0    0  0.16378763310E+03  0.79626410546E+02 -0.12788942730E+03  0.24213716276E+03  0.95435559210E+02 0.  0.
        -13    1    3    3    0    0 -0.69577765060E+01  0.39512310737E+02  0.69046516940E+02  0.79856464079E+02  0.00000000000E+00 0.  1.
         14    1    3    3    0    0  0.49706247086E+02 -0.17408591410E+02  0.17524824889E+03  0.18299103474E+03  0.00000000000E+00 0. -1.
        -11    1    4    4    0    0  0.54496157086E+02  0.33556220893E+02  0.47852069548E+01  0.64177482837E+02  0.00000000000E+00 0.  1.
         11    1    4    4    0    0  0.10929147601E+03  0.46070189653E+02 -0.13267463425E+03  0.17795967992E+03  0.00000000000E+00 0. -1.
         -2    1    1    2    0  502 -0.20653610368E+03 -0.10173012987E+03  0.85122579485E+02  0.24546289940E+03  0.00000000000E+00 0.  1.
<scales pt_clust_5="13000.00000" pt_clust_6="13000.00000" pt_clust_7="13000.00000" pt_clust_8="13000.00000" pt_clust_9="13000.00000"></scales>
<clustering>
<clus scale="   84.219">  5  6 -1 -1</clus>
<clus scale="   95.436">  7  8 -1 -1</clus>
<clus scale="   96.999">  1  5  2 -1</clus>
<clus scale="  194.474">  7  9 -1 -1</clus>
<clus scale="  485.721">  2  5  1 -1</clus>
</clustering>
</event>
<event>
 9    2  0.4178938E-005  0.6119315E+03  0.7546771E-02  0.1038434E+00
          4   -1    0    0  502    0 -0.00000000000E+00  0.00000000000E+00  0.15977416380E+03  0.15977416380E+03  0.00000000000E+00 0. -1.
         21   -1    0    0  501  502  0.00000000000E+00 -0.00000000000E+00 -0.87113376313E+03  0.87113376313E+03  0.00000000000E+00 0.  1.
         24    2    1    2    0    0  0.40675799871E+02  0.93309964476E+02 -0.16671681489E+03  0.21170347415E+03  0.81624717051E+02 0.  0.
         23    2    1    2    0    0  0.23551368754E+03 -0.71440490763E+02 -0.77278801720E+02  0.27589238851E+03  0.97847616746E+02 0.  0.
        -13    1    3    3    0    0 -0.19181296657E+02  0.27071373486E+02 -0.82710551353E+02  0.89116871068E+02  0.00000000000E+00 0.  1.
         14    1    3    3    0    0  0.59857096528E+02  0.66238590991E+02 -0.84006263533E+02  0.12258660308E+03  0.00000000000E+00 0. -1.
        -11    1    4    4    0    0  0.57436987671E+02 -0.64342523341E+02 -0.18307554585E+02  0.88171052038E+02  0.00000000000E+00 0. -1.
         11    1    4    4    0    0  0.17807669987E+03 -0.70979674218E+01 -0.58971247136E+02  0.18772133647E+03  0.00000000000E+00 0.  1.
          3    1    1    2  501    0 -0.27618948741E+03 -0.21869473714E+02 -0.46736398273E+03  0.54331206428E+03  0.00000000000E+00 0. -1.
<scales pt_clust_5="13000.00000" pt_clust_6="13000.00000" pt_clust_7="13000.00000" pt_clust_8="13000.00000" pt_clust_9="13000.00000"></scales>
<clustering>
<clus scale="   81.625">  5  6 -1 -1</clus>
<clus scale="   97.848">  7  8 -1 -1</clus>
<clus scale="  130.476">  1  5  2 -1</clus>
<clus scale="  264.967">  7  9 -1 -1</clus>
<clus scale="  611.932">  2  5  1 -1</clus>
</clustering>
</event>
<event>
 9    2  0.4178938E-005  0.2764438E+03  0.7546771E-02  0.1145084E+00
         21   -1    0    0  501  502  0.00000000000E+00  0.00000000000E+00  0.25761987984E+02  0.25761987984E+02  0.00000000000E+00 0. -1.
          2   -1    0    0  502    0 -0.00000000000E+00 -0.00000000000E+00 -0.15640366649E+04  0.15640366649E+04  0.00000000000E+00 0. -1.
         24    2    1    2    0    0  0.22172992370E+01  0.24702976708E+02 -0.74391254903E+03  0.74870865240E+03  0.80892596049E+02 0.  0.
         23    2    1    2    0    0  0.50766564788E+02  0.55932772031E+02 -0.15670925607E+03  0.19617868972E+03  0.90678378208E+02 0.  0.
        -11    1    3    3    0    0 -0.28653590621E+02  0.57342941633E+01 -0.11171317124E+03  0.11547182779E+03  0.00000000000E+00 0.  1.
         12    1    3    3    0    0  0.30870889858E+02  0.18968682545E+02 -0.63219937779E+03  0.63323682461E+03  0.00000000000E+00 0. -1.
        -13    1    4    4    0    0  0.27445675650E+02 -0.12006538783E+02 -0.10079092034E+03  0.10514861724E+03  0.00000000000E+00 0.  1.
         13    1    4    4    0    0  0.23320889139E+02  0.67939310815E+02 -0.55918335735E+02  0.91030072479E+02  0.00000000000E+00 0. -1.
          1    1    1    2  501    0 -0.52983864025E+02 -0.80635748739E+02 -0.63765287179E+03  0.64491131074E+03  0.00000000000E+00 0. -1.
<scales pt_clust_5="13000.00000" pt_clust_6="13000.00000" pt_clust_7="13000.00000" pt_clust_8="13000.00000" pt_clust_9="13000.00000"></scales>
<clustering>
<clus scale="   80.893">  5  6 -1 -1</clus>
<clus scale="   84.609">  2  5  1 -1</clus>
<clus scale="   90.678">  7  8 -1 -1</clus>
<clus scale="   79.870">  7  9 -1 -1</clus>
<clus scale="  276.444">  1  5  2 -1</clus>
</clustering>
</event>
<event>
 9    2  0.4178938E-005  0.1587896E+03  0.7546771E-02  0.1219143E+00
          2   -1    0    0  502    0 -0.00000000000E+00  0.00000000000E+00  0.64113368219E+03  0.64113368219E+03  0.00000000000E+00 0. -1.
         21   -1    0    0  501  502  0.00000000000E+00 -0.00000000000E+00 -0.33676043353E+02  0.33676043353E+02  0.00000000000E+00 0. -1.
         24    2    1    2    0    0  0.33523390336E+02  0.12070941755E+02  0.42296349328E+03  0.43139191627E+03  0.77015215604E+02 0.  0.
         23    2    1    2    0    0 -0.19279933272E+02  0.38088571517E+02  0.90620079428E+02  0.13603441609E+03  0.92037538313E+02 0.  0.
        -13    1    3    3    0    0 -0.24184073438E+02 -0.48457730131E+01  0.13033795736E+03  0.13265117434E+03  0.00000000000E+00 0.  1.
         14    1    3    3    0    0  0.57707463774E+02  0.16916714768E+02  0.29262553592E+03  0.29874074193E+03  0.00000000000E+00 0. -1.
        -13    1    4    4    0    0  0.65973247054E+00 -0.30139450203E+02  0.31235096489E+02  0.43410286317E+02  0.00000000000E+00 0.  1.
         13    1    4    4    0    0 -0.19939665742E+02  0.68228021720E+02  0.59384982939E+02  0.92624129774E+02  0.00000000000E+00 0. -1.
          1    1    1    2  501    0 -0.14243457064E+02 -0.50159513272E+02  0.93874066122E+02  0.10738339318E+03  0.00000000000E+00 0. -1.
<scales pt_clust_5="13000.00000" pt_clust_6="13000.00000" pt_clust_7="13000.00000" pt_clust_8="13000.00000" pt_clust_9="13000.00000"></scales>
<clustering>
<clus scale="   77.015">  5  6 -1 -1</clus>
<clus scale="   84.858">  1  5  2 -1</clus>
<clus scale="   92.038">  7  8 -1 -1</clus>
<clus scale="   44.508">  7  9 -1 -1</clus>
<clus scale="  158.790">  2  5  1 -1</clus>
</clustering>
</event>
<event>
 9    2  0.4178938E-005  0.5944638E+03  0.7546771E-02  0.1053680E+00
          2   -1    0    0  502    0 -0.00000000000E+00  0.00000000000E+00  0.11735736757E+04  0.11735736757E+04  0.00000000000E+00 0. -1.
         21   -1    0    0  501  502  0.00000000000E+00 -0.00000000000E+00 -0.14677208819E+03  0.14677208819E+03  0.00000000000E+00 0. -1.
         24    2    1    2    0    0  0.44452968600E+02  0.64881902009E+01  0.55188569326E+03  0.55946972608E+03  0.80064929573E+02 0.  0.
         23    2    1    2    0    0  0.20015387738E+03 -0.15638957812E+03  0.36311739820E+03  0.45297696518E+03  0.93886161569E+02 0.  0.
        -11    1    3    3    0    0  0.24290872475E+02  0.92933625605E+01  0.43537837100E+02  0.50714458812E+02  0.00000000000E+00 0.  1.
         12    1    3    3    0    0  0.20162096126E+02 -0.28051723596E+01  0.50834785616E+03  0.50875526727E+03  0.00000000000E+00 0. -1.
        -11    1    4    4    0    0  0.73826488263E+02 -0.61346146079E+02  0.66218953624E+02  0.11661324893E+03  0.00000000000E+00 0.  1.
         11    1    4    4    0    0  0.12632738911E+03 -0.95043432044E+02  0.29689844458E+03  0.33636371625E+03  0.00000000000E+00 0. -1.
          1    1    1    2  501    0 -0.24460684598E+03  0.14990138792E+03  0.11179849604E+03  0.30789907261E+03  0.00000000000E+00 0. -1.
<scales pt_clust_5="13000.00000" pt_clust_6="13000.00000" pt_clust_7="13000.00000" pt_clust_8="13000.00000" pt_clust_9="13000.00000"></scales>
<clustering>
<clus scale="   80.065">  5  6 -1 -1</clus>
<clus scale="   91.807">  1  5  2 -1</clus>
<clus scale="   93.886">  7  8 -1 -1</clus>
<clus scale="  275.337">  7  9 -1 -1</clus>
<clus scale="  594.464">  2  5  1 -1</clus>
</clustering>
</event>
<event>
 9    2  0.4178938E-005  0.2610253E+03  0.7546771E-02  0.1128660E+00
          2   -1    0    0  502    0 -0.00000000000E+00  0.00000000000E+00  0.79913820364E+03  0.79913820364E+03  0.00000000000E+00 0. -1.
         21   -1    0    0  501  502  0.00000000000E+00 -0.00000000000E+00 -0.55201041151E+02  0.55201041151E+02  0.00000000000E+00 0.  1.
         24    2    1    2    0    0  0.86921134549E+02 -0.91977886485E+02  0.18922167152E+03  0.24127849225E+03  0.79970335834E+02 0.  0.
         23    2    1    2    0    0 -0.38928680424E+02 -0.27345645449E+02  0.11157511101E+03  0.15163385988E+03  0.90997777890E+02 0.  0.
        -13    1    3    3    0    0  0.70855097832E+01 -0.23084476762E+02 -0.57532835044E+00  0.24154265027E+02  0.00000000000E+00 0.  1.
         14    1    3    3    0    0  0.79835624766E+02 -0.68893409723E+02  0.18979699988E+03  0.21712422722E+03  0.00000000000E+00 0. -1.
        -13    1    4    4    0    0  0.47628676511E+01 -0.29300738490E+02  0.10283490121E+03  0.10703380350E+03  0.00000000000E+00 0.  1.
         13    1    4    4    0    0 -0.43691548075E+02  0.19550930409E+01  0.87402097997E+01  0.44600056383E+02  0.00000000000E+00 0. -1.
          1    1    1    2  501    0 -0.47992454124E+02  0.11932353193E+03  0.44314037996E+03  0.46142689266E+03  0.00000000000E+00 0. -1.
<scales pt_clust_5="13000.00000" pt_clust_6="13000.00000" pt_clust_7="13000.00000" pt_clust_8="13000.00000" pt_clust_9="13000.00000"></scales>
<clustering>
<clus scale="   79.970">  5  6 -1 -1</clus>
<clus scale="   90.998">  7  8 -1 -1</clus>
<clus scale="  128.613">  7  9 -1 -1</clus>
<clus scale="  149.701">  1  5  2 -1</clus>
<clus scale="  261.025">  2  5  1 -1</clus>
</clustering>
</event>
<event>
 9    2  0.4178938E-005  0.1271177E+04  0.7546771E-02  0.9493555E-01
          2   -1    0    0  502    0 -0.00000000000E+00  0.00000000000E+00  0.33156478899E+03  0.33156478899E+03  0.00000000000E+00 0. -1.
         21   -1    0    0  501  502  0.00000000000E+00 -0.00000000000E+00 -0.17493199813E+04  0.17493199813E+04  0.00000000000E+00 0. -1.
         24    2    1    2    0    0  0.18594473835E+03  0.14820839697E+03 -0.21078121946E+03  0.32797971765E+03  0.81245295602E+02 0.  0.
         23    2    1    2    0    0  0.70185890858E+01  0.42483774585E+03 -0.10376812530E+04  0.11249904466E+04  0.91020608637E+02 0.  0.
        -11    1    3    3    0    0  0.11898683884E+03  0.80488349494E+02 -0.17461111263E+03  0.22610900662E+03  0.00000000000E+00 0.  1.
         12    1    3    3    0    0  0.66957899512E+02  0.67720047472E+02 -0.36170106834E+02  0.10187071103E+03  0.00000000000E+00 0. -1.
        -13    1    4    4    0    0  0.37130958773E+01  0.14304262555E+03 -0.46847713649E+03  0.48984263516E+03  0.00000000000E+00 0.  1.
         13    1    4    4    0    0  0.33054932085E+01  0.28179512030E+03 -0.56920411647E+03  0.63514781139E+03  0.00000000000E+00 0. -1.
          1    1    1    2  501    0 -0.19296332744E+03 -0.57304614281E+03 -0.16929271987E+03  0.62791460608E+03  0.00000000000E+00 0. -1.
<scales pt_clust_5="13000.00000" pt_clust_6="13000.00000" pt_clust_7="13000.00000" pt_clust_8="13000.00000" pt_clust_9="13000.00000"></scales>
<clustering>
<clus scale="   81.245">  5  6 -1 -1</clus>
<clus scale="   91.021">  7  8 -1 -1</clus>
<clus scale="  251.281">  1  5  2 -1</clus>
<clus scale="  450.044">  7  9 -1 -1</clus>
<clus scale=" 1271.177">  2  5  1 -1</clus>
</clustering>
</event>
<event>
 9    2  0.4178938E-005  0.2405173E+03  0.7546771E-02  0.1133411E+00
         21   -1    0    0  501  502  0.00000000000E+00  0.00000000000E+00  0.96147932739E+02  0.96147932739E+02  0.00000000000E+00 0. -1.
          2   -1    0    0  502    0 -0.00000000000E+00 -0.00000000000E+00 -0.82846193523E+03  0.82846193523E+03  0.00000000000E+00 0. -1.
         24    2    1    2    0    0 -0.14939250699E+03  0.12767392426E+02 -0.64758222195E+03  0.66960393142E+03  0.80780958942E+02 0.  0.
         23    2    1    2    0    0  0.84300376915E+02 -0.63250696267E+02 -0.10013187529E+03  0.17120431196E+03  0.90428534545E+02 0.  0.
        -13    1    3    3    0    0 -0.22711208234E+02  0.34957649124E+02 -0.16250510180E+03  0.16776693453E+03  0.00000000000E+00 0.  1.
         14    1    3    3    0    0 -0.12668129876E+03 -0.22190256698E+02 -0.48507712015E+03  0.50183699689E+03  0.00000000000E+00 0. -1.
        -13    1    4    4    0    0  0.23004749340E+02 -0.70685695897E+02 -0.37514669938E+02  0.83264857877E+02  0.00000000000E+00 0. -1.
         13    1    4    4    0    0  0.61295627575E+02  0.74349996302E+01 -0.62617205351E+02  0.87939454088E+02  0.00000000000E+00 0.  1.
          1    1    1    2  501    0  0.65092130075E+02  0.50483303841E+02  0.15400094753E+02  0.83801624583E+02  0.00000000000E+00 0. -1.
<scales pt_clust_5="13000.00000" pt_clust_6="13000.00000" pt_clust_7="13000.00000" pt_clust_8="13000.00000" pt_clust_9="13000.00000"></scales>
<clustering>
<clus scale="   80.781">  5  6 -1 -1</clus>
<clus scale="   90.429">  7  8 -1 -1</clus>
<clus scale="   82.374">  7  9 -1 -1</clus>
<clus scale="  170.314">  2  5  1 -1</clus>
<clus scale="  240.517">  1  5  2 -1</clus>
</clustering>
</event>
<event>
 9    2  0.4178938E-005  0.3435489E+03  0.7546771E-02  0.1114215E+00
          2   -1    0    0  502    0 -0.00000000000E+00  0.00000000000E+00  0.77006514933E+02  0.77006514933E+02  0.00000000000E+00 0. -1.
         21   -1    0    0  501  502  0.00000000000E+00 -0.00000000000E+00 -0.93307558783E+03  0.93307558783E+03  0.00000000000E+00 0.  1.
         24    2    1    2    0    0 -0.57076094362E+01  0.51997832812E+02 -0.73068682607E+01  0.94427638287E+02  0.78274115300E+02 0.  0.
         23    2    1    2    0    0 -0.98042043645E+02 -0.13967043041E+03 -0.36042497726E+03  0.40877802734E+03  0.89851210059E+02 0.  0.
        -13    1    3    3    0    0 -0.40165922233E+02  0.30846153274E+02 -0.15922162747E+02  0.53087679806E+02  0.00000000000E+00 0.  1.
         14    1    3    3    0    0  0.34458312797E+02  0.21151679538E+02  0.86152944866E+01  0.41339958481E+02  0.00000000000E+00 0. -1.
        -13    1    4    4    0    0 -0.22530914463E+02 -0.10639853089E+03 -0.17865509545E+03  0.20915528349E+03  0.00000000000E+00 0. -1.
         13    1    4    4    0    0 -0.75511129182E+02 -0.33271899520E+02 -0.18176988181E+03  0.19962274385E+03  0.00000000000E+00 0.  1.
          1    1    1    2  501    0  0.10374965308E+03  0.87672597596E+02 -0.48833722738E+03  0.50687643714E+03  0.00000000000E+00 0. -1.
<scales pt_clust_5="13000.00000" pt_clust_6="13000.00000" pt_clust_7="13000.00000" pt_clust_8="13000.00000" pt_clust_9="13000.00000"></scales>
<clustering>
<clus scale="   78.274">  5  6 -1 -1</clus>
<clus scale="   89.851">  7  8 -1 -1</clus>
<clus scale="   94.145">  1  5  2 -1</clus>
<clus scale="  144.428">  7  9 -1 -1</clus>
<clus scale="  343.549">  2  5  1 -1</clus>
</clustering>
</event>
<event>
 9    2  0.4178938E-005  0.3623202E+03  0.7546771E-02  0.1104759E+00
         21   -1    0    0  501  502  0.00000000000E+00  0.00000000000E+00  0.34582288297E+03  0.34582288297E+03  0.00000000000E+00 0.  1.
          4   -1    0    0  502    0 -0.00000000000E+00 -0.00000000000E+00 -0.37349405628E+03  0.37349405628E+03  0.00000000000E+00 0. -1.
         24    2    1    2    0    0  0.60816481488E+02  0.11829362608E+02 -0.26647409805E+03  0.28537826266E+03  0.81201783371E+02 0.  0.
         23    2    1    2    0    0 -0.71663173607E+02  0.64485708550E+02  0.30554938442E+03  0.33197431666E+03  0.86905141044E+02 0.  0.
        -13    1    3    3    0    0  0.75148215326E+02 -0.18704950525E+01 -0.24443911899E+03  0.25573665344E+03  0.00000000000E+00 0.  1.
         14    1    3    3    0    0 -0.14331733838E+02  0.13699857660E+02 -0.22034979060E+02  0.29641609215E+02  0.00000000000E+00 0. -1.
        -11    1    4    4    0    0 -0.71447481464E+02  0.39451248469E+02  0.29263709341E+03  0.30380522058E+03  0.00000000000E+00 0.  1.
         11    1    4    4    0    0 -0.21569214320E+00  0.25034460082E+02  0.12912291020E+02  0.28169096082E+02  0.00000000000E+00 0. -1.
          3    1    1    2  501    0  0.10846692119E+02 -0.76315071158E+02 -0.66746459686E+02  0.10196435993E+03  0.00000000000E+00 0. -1.
<scales pt_clust_5="13000.00000" pt_clust_6="13000.00000" pt_clust_7="13000.00000" pt_clust_8="13000.00000" pt_clust_9="13000.00000"></scales>
<clustering>
<clus scale="   81.202">  5  6 -1 -1</clus>
<clus scale="   86.905">  7  8 -1 -1</clus>
<clus scale="   77.082">  7  9 -1 -1</clus>
<clus scale="  102.139">  2  5  1 -1</clus>
<clus scale="  362.320">  1  5  2 -1</clus>
</clustering>
</event>
<event>
 9    2  0.4178938E-005  0.4076425E+03  0.7546771E-02  0.1087906E+00
         21   -1    0    0  501  502  0.00000000000E+00  0.00000000000E+00  0.10105617001E+04  0.10105617001E+04  0.00000000000E+00 0. -1.
          2   -1    0    0  502    0 -0.00000000000E+00 -0.00000000000E+00 -0.76533672001E+02  0.76533672001E+02  0.00000000000E+00 0. -1.
         24    2    1    2    0    0  0.27376811144E+02 -0.71065342695E+02  0.40025675069E+03  0.41546734767E+03  0.81288854025E+02 0.  0.
         23    2    1    2    0    0 -0.53540192659E+01  0.22662544733E+03  0.26529604036E+03  0.36056066447E+03  0.90742739867E+02 0.  0.
        -11    1    3    3    0    0 -0.24699975131E+02 -0.30641592899E+02  0.89129020430E+02  0.97431916073E+02  0.00000000000E+00 0.  1.
         12    1    3    3    0    0  0.52076786275E+02 -0.40423749796E+02  0.31112773026E+03  0.31803543160E+03  0.00000000000E+00 0. -1.
        -11    1    4    4    0    0 -0.30786872846E+02  0.20243109664E+03  0.24745100946E+03  0.32118247541E+03  0.00000000000E+00 0. -1.
         11    1    4    4    0    0  0.25432853580E+02  0.24194350686E+02  0.17845030897E+02  0.39378189065E+02  0.00000000000E+00 0.  1.
          1    1    1    2  501    0 -0.22022791878E+02 -0.15556010463E+03  0.26847523700E+03  0.31106735991E+03  0.00000000000E+00 0. -1.
<scales pt_clust_5="13000.00000" pt_clust_6="13000.00000" pt_clust_7="13000.00000" pt_clust_8="13000.00000" pt_clust_9="13000.00000"></scales>
<clustering>
<clus scale="   81.289">  5  6 -1 -1</clus>
<clus scale="   90.743">  7  8 -1 -1</clus>
<clus scale="  111.390">  2  5  1 -1</clus>
<clus scale="  178.034">  7  9 -1 -1</clus>
<clus scale="  407.643">  1  5  2 -1</clus>
</clustering>
</event>
<event>
 9    2  0.4178938E-005  0.2056486E+03  0.7546771E-02  0.1181696E+00
          2   -1    0    0  502    0 -0.00000000000E+00  0.00000000000E+00  0.25286484644E+03  0.25286484644E+03  0.00000000000E+00 0. -1.
         21   -1    0    0  501  502  0.00000000000E+00 -0.00000000000E+00 -0.86156572366E+02  0.86156572366E+02  0.00000000000E+00 0.  1.
         24    2    1    2    0    0  0.25642843012E+02  0.20078687232E+02  0.34769915664E+02  0.94687503048E+02  0.81829500301E+02 0.  0.
         23    2    1    2    0    0  0.38344050182E+02  0.30144747668E+02  0.19963774344E+02  0.10593224167E+03  0.91891868752E+02 0.  0.
        -13    1    3    3    0    0  0.21771161326E+02 -0.28890273918E+02  0.32456562791E+01  0.36320320445E+02  0.00000000000E+00 0.  1.
         14    1    3    3    0    0  0.38716816861E+01  0.48968961150E+02  0.31524259385E+02  0.58367182602E+02  0.00000000000E+00 0. -1.
        -13    1    4    4    0    0  0.27926757945E+02 -0.94111837014E+00  0.52669897946E+02  0.59623046406E+02  0.00000000000E+00 0. -1.
         13    1    4    4    0    0  0.10417292237E+02  0.31085866038E+02 -0.32706123602E+02  0.46309195263E+02  0.00000000000E+00 0.  1.
          1    1    1    2  501    0 -0.63986893194E+02 -0.50223434900E+02  0.11197458406E+03  0.13840167409E+03  0.00000000000E+00 0. -1.
<scales pt_clust_5="13000.00000" pt_clust_6="13000.00000" pt_clust_7="13000.00000" pt_clust_8="13000.00000" pt_clust_9="13000.00000"></scales>
<clustering>
<clus scale="   81.830">  5  6 -1 -1</clus>
<clus scale="   88.073">  1  5  2 -1</clus>
<clus scale="   91.892">  7  8 -1 -1</clus>
<clus scale="   59.672">  7  9 -1 -1</clus>
<clus scale="  205.649">  2  5  1 -1</clus>
</clustering>
</event>
<event>
 9    2  0.4178938E-005  0.3232059E+03  0.7546771E-02  0.1116856E+00
         21   -1    0    0  501  502  0.00000000000E+00  0.00000000000E+00  0.24724771649E+02  0.24724771649E+02  0.00000000000E+00 0. -1.
          2   -1    0    0  502    0 -0.00000000000E+00 -0.00000000000E+00 -0.24033120956E+04  0.24033120956E+04  0.00000000000E+00 0. -1.
         24    2    1    2    0    0  0.52089139987E+02 -0.39426597544E+02 -0.12388663128E+04  0.12433740420E+04  0.83195746664E+02 0.  0.
         23    2    1    2    0    0  0.10501411452E+03  0.79789772610E+02 -0.52360630681E+03  0.54755377069E+03  0.90869110311E+02 0.  0.
        -13    1    3    3    0    0  0.39270919722E+02 -0.19049221375E+02 -0.22348129851E+03  0.22770368630E+03  0.00000000000E+00 0.  1.
         14    1    3    3    0    0  0.12818220265E+02 -0.20377376169E+02 -0.10153850143E+04  0.10156703557E+04  0.00000000000E+00 0. -1.
        -13    1    4    4    0    0  0.56417493988E+02  0.48954050454E+01 -0.10265351051E+03  0.11723754449E+03  0.00000000000E+00 0.  1.
         13    1    4    4    0    0  0.48596620530E+02  0.74894367565E+02 -0.42095279630E+03  0.43031622620E+03  0.00000000000E+00 0. -1.
          1    1    1    2  501    0 -0.15710325451E+03 -0.40363175066E+02 -0.61611470440E+03  0.63710905460E+03  0.00000000000E+00 0. -1.
<scales pt_clust_5="13000.00000" pt_clust_6="13000.00000" pt_clust_7="13000.00000" pt_clust_8="13000.00000" pt_clust_9="13000.00000"></scales>
<clustering>
<clus scale="   83.196">  5  6 -1 -1</clus>
<clus scale="   90.869">  7  8 -1 -1</clus>
<clus scale="  105.779">  2  5  1 -1</clus>
<clus scale="  142.979">  7  9 -1 -1</clus>
<clus scale="  323.206">  1  5  2 -1</clus>
</clustering>
</event>
<event>
 9    2  0.4178938E-005  0.9620537E+03  0.7546771E-02  0.9949233E-01
         21   -1    0    0  501  502  0.00000000000E+00  0.00000000000E+00  0.31925957998E+03  0.31925957998E+03  0.00000000000E+00 0. -1.
          2   -1    0    0  502    0 -0.00000000000E+00 -0.00000000000E+00 -0.93198585352E+03  0.93198585352E+03  0.00000000000E+00 0. -1.
         24    2    1    2    0    0 -0.83065943407E+02 -0.49878994190E+02 -0.98863753118E+02  0.16055662771E+03  0.81342018705E+02 0.  0.
         23    2    1    2    0    0 -0.68732873348E+02  0.33185141818E+03  0.12770553555E+03  0.37363866869E+03  0.91910713772E+02 0.  0.
        -13    1    3    3    0    0 -0.24215867007E+02  0.90059911200E+01 -0.66312454841E+02  0.71167814059E+02  0.00000000000E+00 0.  1.
         14    1    3    3    0    0 -0.58850076400E+02 -0.58884985310E+02 -0.32551298277E+02  0.89388813655E+02  0.00000000000E+00 0. -1.
        -13    1    4    4    0    0 -0.85409839641E+01  0.33392900531E+02 -0.14751695053E+02  0.37491955402E+02  0.00000000000E+00 0.  1.
         13    1    4    4    0    0 -0.60191889383E+02  0.29845851765E+03  0.14245723061E+03  0.33614671329E+03  0.00000000000E+00 0. -1.
          1    1    1    2  501    0  0.15179881675E+03 -0.28197242399E+03 -0.64156805598E+03  0.71705013709E+03  0.00000000000E+00 0. -1.
<scales pt_clust_5="13000.00000" pt_clust_6="13000.00000" pt_clust_7="13000.00000" pt_clust_8="13000.00000" pt_clust_9="13000.00000"></scales>
<clustering>
<clus scale="   81.342">  5  6 -1 -1</clus>
<clus scale="   91.911">  7  8 -1 -1</clus>
<clus scale="  126.508">  2  5  1 -1</clus>
<clus scale="  334.285">  7  9 -1 -1</clus>
<clus scale="  962.054">  1  5  2 -1</clus>
</clustering>
</event>
<event>
 9    2  0.4178938E-005  0.1516136E+03  0.7546771E-02  0.1228432E+00
         21   -1    0    0  501  502  0.00000000000E+00  0.00000000000E+00  0.15110178692E+02  0.15110178692E+02  0.00000000000E+00 0. -1.
          2   -1    0    0  502    0 -0.00000000000E+00 -0.00000000000E+00 -0.96150611632E+03  0.96150611632E+03  0.00000000000E+00 0. -1.
         24    2    1    2    0    0  0.19408209147E+01  0.42903965766E+01 -0.21129520650E+03  0.22604333256E+03  0.80173247511E+02 0.  0.
         23    2    1    2    0    0  0.38606959185E+02 -0.62415218023E+01 -0.50389282119E+03  0.51582836299E+03  0.10315750540E+03 0.  0.
        -11    1    3    3    0    0  0.31042025239E+02  0.28406110625E+02 -0.12303662603E+03  0.13003278739E+03  0.00000000000E+00 0.  1.
         12    1    3    3    0    0 -0.29101204324E+02 -0.24115714048E+02 -0.88258580465E+02  0.96010545165E+02  0.00000000000E+00 0. -1.
        -11    1    4    4    0    0  0.20428411113E+01 -0.51587797867E+02 -0.21385039756E+03  0.21999424225E+03  0.00000000000E+00 0.  1.
         11    1    4    4    0    0  0.36564118073E+02  0.45346276064E+02 -0.29004242363E+03  0.29583412073E+03  0.00000000000E+00 0. -1.
          1    1    1    2  501    0 -0.40547780099E+02  0.19511252257E+01 -0.23120790994E+03  0.23474459947E+03  0.00000000000E+00 0. -1.
<scales pt_clust_5="13000.00000" pt_clust_6="13000.00000" pt_clust_7="13000.00000" pt_clust_8="13000.00000" pt_clust_9="13000.00000"></scales>
<clustering>
<clus scale="   80.173">  5  6 -1 -1</clus>
<clus scale="   80.311">  2  5  1 -1</clus>
<clus scale="  103.158">  7  8 -1 -1</clus>
<clus scale="   40.075">  7  9 -1 -1</clus>
<clus scale="  151.614">  1  5  2 -1</clus>
</clustering>
</event>
<event>
 9    2  0.4178938E-005  0.2693433E+03  0.7546771E-02  0.1150999E+00
         -1   -1    0    0    0  501 -0.00000000000E+00  0.00000000000E+00  0.15380631383E+03  0.15380631383E+03  0.00000000000E+00 0.  1.
         21   -1    0    0  501  502  0.00000000000E+00 -0.00000000000E+00 -0.25414862913E+03  0.25414862913E+03  0.00000000000E+00 0. -1.
         24    2    1    2    0    0  0.19998380896E+02  0.92657999559E+01  0.55348459237E+02  0.96851332055E+02  0.76360580757E+02 0.  0.
         23    2    1    2    0    0  0.71608751912E+02  0.79120554986E+02 -0.10166967056E+03  0.17282022725E+03  0.90234325307E+02 0.  0.
        -13    1    3    3    0    0  0.37288867591E+02  0.23265450797E+01  0.65668680124E+02  0.75552948371E+02  0.00000000000E+00 0.  1.
         14    1    3    3    0    0 -0.17290486695E+02  0.69392548762E+01 -0.10320220887E+02  0.21298383684E+02  0.00000000000E+00 0. -1.
        -11    1    4    4    0    0  0.91137645249E+02  0.70539311233E+02 -0.70665546754E+02  0.13518684961E+03  0.00000000000E+00 0. -1.
         11    1    4    4    0    0 -0.19528893338E+02  0.85812437534E+01 -0.31004123803E+02  0.37633377634E+02  0.00000000000E+00 0.  1.
         -2    1    1    2    0  502 -0.91607132808E+02 -0.88386354942E+02 -0.54021103974E+02  0.13828338366E+03  0.00000000000E+00 0.  1.
<scales pt_clust_5="13000.00000" pt_clust_6="13000.00000" pt_clust_7="13000.00000" pt_clust_8="13000.00000" pt_clust_9="13000.00000"></scales>
<clustering>
<clus scale="   76.361">  5  6 -1 -1</clus>
<clus scale="   79.478">  1  5  2 -1</clus>
<clus scale="   90.234">  7  8 -1 -1</clus>
<clus scale="  116.070">  7  9 -1 -1</clus>
<clus scale="  269.343">  2  5  1 -1</clus>
</clustering>
</event>
<event>
 9    2  0.4178938E-005  0.2624297E+03  0.7546771E-02  0.1134587E+00
         21   -1    0    0  501  502  0.00000000000E+00  0.00000000000E+00  0.76906727627E+02  0.76906727627E+02  0.00000000000E+00 0. -1.
          2   -1    0    0  502    0 -0.00000000000E+00 -0.00000000000E+00 -0.51808516735E+03  0.51808516735E+03  0.00000000000E+00 0. -1.
         24    2    1    2    0    0  0.49180758838E+02  0.44002039298E+02 -0.20807720867E+03  0.24398547330E+03  0.10898559497E+03 0.  0.
         23    2    1    2    0    0  0.34413565187E+02  0.36172382306E+02 -0.20455287516E+03  0.23171284468E+03  0.96727601754E+02 0.  0.
        -13    1    3    3    0    0  0.70878317089E+00 -0.24307874335E+02 -0.57253740639E+01  0.24983095013E+02  0.00000000000E+00 0.  1.
         14    1    3    3    0    0  0.48471975668E+02  0.68309913633E+02 -0.20235183461E+03  0.21900237828E+03  0.00000000000E+00 0. -1.
        -11    1    4    4    0    0  0.41776210466E+02 -0.66992026028E+01 -0.17267622981E+03  0.17778417088E+03  0.00000000000E+00 0.  1.
         11    1    4    4    0    0 -0.73626452787E+01  0.42871584909E+02 -0.31876645355E+02  0.53928673794E+02  0.00000000000E+00 0. -1.
          1    1    1    2  501    0 -0.83594324026E+02 -0.80174421605E+02 -0.28548355886E+02  0.11929357700E+03  0.00000000000E+00 0. -1.
<scales pt_clust_5="13000.00000" pt_clust_6="13000.00000" pt_clust_7="13000.00000" pt_clust_8="13000.00000" pt_clust_9="13000.00000"></scales>
<clustering>
<clus scale="   96.728">  7  8 -1 -1</clus>
<clus scale="  108.986">  5  6 -1 -1</clus>
<clus scale="  115.827">  7  9 -1 -1</clus>
<clus scale="  127.408">  2  5  1 -1</clus>
<clus scale="  262.430">  1  5  2 -1</clus>
</clustering>
</event>
<event>
 9    2  0.4178938E-005  0.2027511E+03  0.7546771E-02  0.1177392E+00
         -1   -1    0    0    0  501 -0.00000000000E+00  0.00000000000E+00  0.48612463174E+03  0.48612463174E+03  0.00000000000E+00 0.  1.
         21   -1    0    0  501  502  0.00000000000E+00 -0.00000000000E+00 -0.47775033000E+02  0.47775033000E+02  0.00000000000E+00 0. -1.
         24    2    1    2    0    0 -0.12029455012E+02  0.52853032160E+02  0.12820196568E+03  0.16336012612E+03  0.85513952103E+02 0.  0.
         23    2    1    2    0    0  0.60890856342E+02 -0.18794833726E+02  0.89841508926E+02  0.14232432057E+03  0.90131977336E+02 0.  0.
        -11    1    3    3    0    0 -0.34395916071E+02  0.19515021183E+01  0.15680392091E+02  0.37851844063E+02  0.00000000000E+00 0.  1.
         12    1    3    3    0    0  0.22366461059E+02  0.50901530042E+02  0.11252157359E+03  0.12550828206E+03  0.00000000000E+00 0. -1.
        -13    1    4    4    0    0  0.36897789195E+02 -0.22316837800E+01  0.10366492254E+03  0.11005836372E+03  0.00000000000E+00 0.  1.
         13    1    4    4    0    0  0.23993067146E+02 -0.16563149946E+02 -0.13823413615E+02  0.32265956846E+02  0.00000000000E+00 0. -1.
         -2    1    1    2    0  502 -0.48861401330E+02 -0.34058198434E+02  0.22030612413E+03  0.22821521805E+03  0.00000000000E+00 0.  1.
<scales pt_clust_5="13000.00000" pt_clust_6="13000.00000" pt_clust_7="13000.00000" pt_clust_8="13000.00000" pt_clust_9="13000.00000"></scales>
<clustering>
<clus scale="   85.514">  5  6 -1 -1</clus>
<clus scale="   90.132">  7  8 -1 -1</clus>
<clus scale="   59.560">  7  9 -1 -1</clus>
<clus scale="  101.246">  1  5  2 -1</clus>
<clus scale="  202.751">  2  5  1 -1</clus>
</clustering>
</event>
<event>
 9    2  0.4178938E-005  0.1449926E+03  0.7546771E-02  0.1231288E+00
         -1   -1    0    0    0  501 -0.00000000000E+00  0.00000000000E+00  0.17874360123E+03  0.17874360123E+03  0.00000000000E+00 0.  1.
         21   -1    0    0  501  502  0.00000000000E+00 -0.00000000000E+00 -0.75601161524E+02  0.75601161524E+02  0.00000000000E+00 0.  1.
         24    2    1    2    0    0 -0.31535935431E+01 -0.34519885578E+02  0.49704277954E+02  0.99818129824E+02  0.79319456264E+02 0.  0.
         23    2    1    2    0    0  0.13431562542E+01 -0.15800325677E+02  0.20510102241E+02  0.94363035572E+02  0.90731823680E+02 0.  0.
        -13    1    3    3    0    0 -0.33881933846E+02 -0.41091633160E+02  0.20972081818E+02  0.57239286969E+02  0.00000000000E+00 0.  1.
         14    1    3    3    0    0  0.30728340303E+02  0.65717475816E+01  0.28732196136E+02  0.42578842855E+02  0.00000000000E+00 0. -1.
        -13    1    4    4    0    0  0.44794056448E+02 -0.10303035705E+01  0.19166802238E+01  0.44846880400E+02  0.00000000000E+00 0.  1.
         13    1    4    4    0    0 -0.43450900194E+02 -0.14770022107E+02  0.18593422017E+02  0.49516155172E+02  0.00000000000E+00 0. -1.
         -2    1    1    2    0  502  0.18104372889E+01  0.50320211256E+02  0.32928059515E+02  0.60163597361E+02  0.00000000000E+00 0.  1.
<scales pt_clust_5="13000.00000" pt_clust_6="13000.00000" pt_clust_7="13000.00000" pt_clust_8="13000.00000" pt_clust_9="13000.00000"></scales>
<clustering>
<clus scale="   79.319">  5  6 -1 -1</clus>
<clus scale="   86.563">  1  5  2 -1</clus>
<clus scale="   90.732">  7  8 -1 -1</clus>
<clus scale="   34.870">  7  9 -1 -1</clus>
<clus scale="  144.993">  2  5  1 -1</clus>
</clustering>
</event>
<event>
 9    2  0.4178938E-005  0.4833462E+03  0.7546771E-02  0.1073694E+00
          2   -1    0    0  502    0 -0.00000000000E+00  0.00000000000E+00  0.29697952525E+03  0.29697952525E+03  0.00000000000E+00 0. -1.
         21   -1    0    0  501  502  0.00000000000E+00 -0.00000000000E+00 -0.28684750934E+03  0.28684750934E+03  0.00000000000E+00 0. -1.
         24    2    1    2    0    0 -0.34576333697E+02  0.45175716899E+02  0.21834004021E+02  0.10033917774E+03  0.79717367045E+02 0.  0.
         23    2    1    2    0    0  0.16501737524E+03  0.10386926879E+03 -0.13179066022E+03  0.25186194672E+03  0.89700072197E+02 0.  0.
        -11    1    3    3    0    0 -0.62611753255E+01  0.29859518957E+02 -0.27736769768E+02  0.41232530677E+02  0.00000000000E+00 0.  1.
         12    1    3    3    0    0 -0.28315158372E+02  0.15316197942E+02  0.49570773789E+02  0.59106647063E+02  0.00000000000E+00 0. -1.
        -13    1    4    4    0    0  0.24562764345E+02 -0.27822533430E+01  0.88870584778E+01  0.26268805346E+02  0.00000000000E+00 0.  1.
         13    1    4    4    0    0  0.14045461090E+03  0.10665152213E+03 -0.14067771870E+03  0.22559314137E+03  0.00000000000E+00 0. -1.
          1    1    1    2  501    0 -0.13044104154E+03 -0.14904498569E+03  0.12008867211E+03  0.23162591014E+03  0.00000000000E+00 0. -1.
<scales pt_clust_5="13000.00000" pt_clust_6="13000.00000" pt_clust_7="13000.00000" pt_clust_8="13000.00000" pt_clust_9="13000.00000"></scales>
<clustering>
<clus scale="   79.717">  5  6 -1 -1</clus>
<clus scale="   89.700">  7  8 -1 -1</clus>
<clus scale="   97.935">  1  5  2 -1</clus>
<clus scale="  194.199">  7  9 -1 -1</clus>
<clus scale="  483.346">  2  5  1 -1</clus>
</clustering>
</event>
<event>
 9    2  0.4178938E-005  0.1675490E+03  0.7546771E-02  0.1207125E+00
          4   -1    0    0  502    0 -0.00000000000E+00  0.00000000000E+00  0.50468776747E+02  0.50468776747E+02  0.00000000000E+00 0. -1.
         21   -1    0    0  501  502  0.00000000000E+00 -0.00000000000E+00 -0.37547348608E+03  0.37547348608E+03  0.00000000000E+00 0.  1.
         24    2    1    2    0    0 -0.24235307434E+02  0.35567398495E+02 -0.18669114370E+03  0.20867903066E+03  0.82710124787E+02 0.  0.
         23    2    1    2    0    0  0.29704506086E+02 -0.16196406202E+02 -0.23695371829E+02  0.10089107987E+03  0.92048129239E+02 0.  0.
        -13    1    3    3    0    0 -0.47466610160E+02  0.28304954994E+02 -0.68532595282E+02  0.88039571633E+02  0.00000000000E+00 0.  1.
         14    1    3    3    0    0  0.23231302726E+02  0.72624435016E+01 -0.11815854841E+03  0.12063945903E+03  0.00000000000E+00 0. -1.
        -13    1    4    4    0    0 -0.26251307205E+02 -0.29094438721E+02 -0.11593809598E+01  0.39204102575E+02  0.00000000000E+00 0. -1.
         13    1    4    4    0    0  0.55955813291E+02  0.12898032520E+02 -0.22535990869E+02  0.61686977300E+02  0.00000000000E+00 0.  1.
          3    1    1    2  501    0 -0.54691986520E+01 -0.19370992294E+02 -0.11461819381E+03  0.11637215229E+03  0.00000000000E+00 0. -1.
<scales pt_clust_5="13000.00000" pt_clust_6="13000.00000" pt_clust_7="13000.00000" pt_clust_8="13000.00000" pt_clust_9="13000.00000"></scales>
<clustering>
<clus scale="   82.710">  5  6 -1 -1</clus>
<clus scale="   92.048">  7  8 -1 -1</clus>
<clus scale="   20.128">  7  9 -1 -1</clus>
<clus scale="   93.238">  1  5  2 -1</clus>
<clus scale="  167.549">  2  5  1 -1</clus>
</clustering>
</event>
<event>
 9    2  0.4178938E-005  0.2156930E+03  0.7546771E-02  0.1166556E+00
         21   -1    0    0  501  502  0.00000000000E+00  0.00000000000E+00  0.98485438316E+02  0.98485438316E+02  0.00000000000E+00 0. -1.
          2   -1    0    0  502    0 -0.00000000000E+00 -0.00000000000E+00 -0.49449608792E+03  0.49449608792E+03  0.00000000000E+00 0. -1.
         24    2    1    2    0    0 -0.46808246440E+01 -0.70886150524E+02  0.33170036591E+02  0.11264880893E+03  0.80887244788E+02 0.  0.
         23    2    1    2    0    0 -0.13204124508E+02 -0.26474088653E+02 -0.31718708372E+03  0.33086213635E+03  0.89369351080E+02 0.  0.
        -13    1    3    3    0    0 -0.21456930889E+02  0.10830508446E+01 -0.13380829742E+02  0.25310462005E+02  0.00000000000E+00 0.  1.
         14    1    3    3    0    0  0.16776106245E+02 -0.71969201369E+02  0.46550866334E+02  0.87338346921E+02  0.00000000000E+00 0. -1.
        -11    1    4    4    0    0  0.15645687857E+02 -0.51508665286E+02 -0.21868021018E+03  0.22520871313E+03  0.00000000000E+00 0.  1.
         11    1    4    4    0    0 -0.28849812365E+02  0.25034576633E+02 -0.98506873546E+02  0.10565342321E+03  0.00000000000E+00 0. -1.
          1    1    1    2  501    0  0.17884949152E+02  0.97360239178E+02 -0.11199360247E+03  0.14947058096E+03  0.00000000000E+00 0. -1.
<scales pt_clust_5="13000.00000" pt_clust_6="13000.00000" pt_clust_7="13000.00000" pt_clust_8="13000.00000" pt_clust_9="13000.00000"></scales>
<clustering>
<clus scale="   80.887">  5  6 -1 -1</clus>
<clus scale="   89.369">  7  8 -1 -1</clus>
<clus scale="   98.989">  7  9 -1 -1</clus>
<clus scale="  107.655">  2  5  1 -1</clus>
<clus scale="  215.693">  1  5  2 -1</clus>
</clustering>
</event>
<event>
 9    2  0.4178938E-005  0.8131226E+03  0.7546771E-02  0.1006812E+00
         21   -1    0    0  501  502  0.00000000000E+00  0.00000000000E+00  0.33116533155E+03  0.33116533155E+03  0.00000000000E+00 0. -1.
          2   -1    0    0  502    0 -0.00000000000E+00 -0.00000000000E+00 -0.71705461821E+03  0.71705461821E+03  0.00000000000E+00 0. -1.
         24    2    1    2    0    0 -0.40859221769E+02  0.11147101380E+03  0.87053192300E+01  0.14440949277E+03  0.81749960839E+02 0.  0.
         23    2    1    2    0    0  0.22654149988E+03  0.63535932082E+02  0.15613835774E+03  0.29684082287E+03  0.91528255366E+02 0.  0.
        -11    1    3    3    0    0 -0.32946592825E+02  0.16363187236E+02  0.28995727678E+02  0.46839983976E+02  0.00000000000E+00 0.  1.
         12    1    3    3    0    0 -0.79126289439E+01  0.95107826566E+02 -0.20290408448E+02  0.97569508792E+02  0.00000000000E+00 0. -1.
        -11    1    4    4    0    0  0.83810212071E+02  0.44681131354E+02  0.16736956385E+02  0.96440037617E+02  0.00000000000E+00 0.  1.
         11    1    4    4    0    0  0.14273128781E+03  0.18854800727E+02  0.13940140135E+03  0.20040078525E+03  0.00000000000E+00 0. -1.
          1    1    1    2  501    0 -0.18568227811E+03 -0.17500694588E+03 -0.55073296363E+03  0.60696963412E+03  0.00000000000E+00 0. -1.
<scales pt_clust_5="13000.00000" pt_clust_6="13000.00000" pt_clust_7="13000.00000" pt_clust_8="13000.00000" pt_clust_9="13000.00000"></scales>
<clustering>
<clus scale="   81.750">  5  6 -1 -1</clus>
<clus scale="   91.528">  7  8 -1 -1</clus>
<clus scale="  144.147">  2  5  1 -1</clus>
<clus scale="  234.632">  7  9 -1 -1</clus>
<clus scale="  813.123">  1  5  2 -1</clus>
</clustering>
</event>
<event>
 9    2  0.4178938E-005  0.1648597E+03  0.7546771E-02  0.1211619E+00
          4   -1    0    0  502    0 -0.00000000000E+00  0.00000000000E+00  0.40832830452E+02  0.40832830452E+02  0.00000000000E+00 0. -1.
         21   -1    0    0  501  502  0.00000000000E+00 -0.00000000000E+00 -0.58956049495E+03  0.58956049495E+03  0.00000000000E+00 0. -1.
         24    2    1    2    0    0 -0.34406246630E+02 -0.16171002878E+02 -0.43567746405E+02  0.99012810142E+02  0.80374728019E+02 0.  0.
         23    2    1    2    0    0  0.53217474925E+02  0.53386007630E+02 -0.30552395405E+03  0.32743606932E+03  0.90483852412E+02 0.  0.
        -11    1    3    3    0    0  0.19951120963E+02 -0.95095056386E+01 -0.38008539830E+02  0.43967340438E+02  0.00000000000E+00 0.  1.
         12    1    3    3    0    0 -0.54357367594E+02 -0.66614972390E+01 -0.55592065745E+01  0.55045469704E+02  0.00000000000E+00 0. -1.
        -13    1    4    4    0    0  0.38404194270E+02 -0.14600759161E+02 -0.17235350425E+03  0.17718294143E+03  0.00000000000E+00 0.  1.
         13    1    4    4    0    0  0.14813280655E+02  0.67986766791E+02 -0.13317044980E+03  0.15025312789E+03  0.00000000000E+00 0. -1.
          3    1    1    2  501    0 -0.18811228294E+02 -0.37215004753E+02 -0.19963596405E+03  0.20394444594E+03  0.00000000000E+00 0. -1.
<scales pt_clust_5="13000.00000" pt_clust_6="13000.00000" pt_clust_7="13000.00000" pt_clust_8="13000.00000" pt_clust_9="13000.00000"></scales>
<clustering>
<clus scale="   80.375">  5  6 -1 -1</clus>
<clus scale="   88.912">  1  5  2 -1</clus>
<clus scale="   90.484">  7  8 -1 -1</clus>
<clus scale="   46.779">  7  9 -1 -1</clus>
<clus scale="  164.860">  2  5  1 -1</clus>
</clustering>
</event>
<event>
 9    2  0.4178938E-005  0.1835499E+03  0.7546771E-02  0.1186977E+00
         21   -1    0    0  501  502  0.00000000000E+00  0.00000000000E+00  0.34041892044E+03  0.34041892044E+03  0.00000000000E+00 0. -1.
         -1   -1    0    0    0  501 -0.00000000000E+00 -0.00000000000E+00 -0.13440291395E+03  0.13440291395E+03  0.00000000000E+00 0.  1.
         24    2    1    2    0    0 -0.72593466717E+02 -0.14882546819E+02 -0.79216135666E+02  0.13563464605E+03  0.81426405118E+02 0.  0.
         23    2    1    2    0    0  0.46388778542E+02 -0.22871917943E+02  0.27154382437E+03  0.29123455196E+03  0.91686816367E+02 0.  0.
        -13    1    3    3    0    0 -0.40948116996E+02 -0.37248192176E+01 -0.91170977483E+02  0.10001384754E+03  0.00000000000E+00 0.  1.
         14    1    3    3    0    0 -0.31645349721E+02 -0.11157727601E+02  0.11954841817E+02  0.35620798518E+02  0.00000000000E+00 0. -1.
        -13    1    4    4    0    0  0.65324727521E+02 -0.39696299958E+02  0.23204568616E+03  0.24431192505E+03  0.00000000000E+00 0. -1.
         13    1    4    4    0    0 -0.18935948978E+02  0.16824382016E+02  0.39498138213E+02  0.46922626911E+02  0.00000000000E+00 0.  1.
         -2    1    1    2    0  502  0.26204688175E+02  0.37754464762E+02  0.13688317786E+02  0.47952636378E+02  0.00000000000E+00 0.  1.
<scales pt_clust_5="13000.00000" pt_clust_6="13000.00000" pt_clust_7="13000.00000" pt_clust_8="13000.00000" pt_clust_9="13000.00000"></scales>
<clustering>
<clus scale="   81.426">  5  6 -1 -1</clus>
<clus scale="   91.687">  7  8 -1 -1</clus>
<clus scale="   45.957">  7  9 -1 -1</clus>
<clus scale="  110.098">  2  5  1 -1</clus>
<clus scale="  183.550">  1  5  2 -1</clus>
</clustering>
</event>
<event>
 9    2  0.4178938E-005  0.1455546E+03  0.7546771E-02  0.1232516E+00
          4   -1    0    0  502    0 -0.00000000000E+00  0.00000000000E+00  0.62678389836E+02  0.62678389836E+02  0.00000000000E+00 0. -1.
         21   -1    0    0  501  502  0.00000000000E+00 -0.00000000000E+00 -0.30626002154E+03  0.30626002154E+03  0.00000000000E+00 0. -1.
         24    2    1    2    0    0 -0.19507379140E+01  0.61140168720E+01  0.20102623357E+01  0.83453718836E+02  0.83182302517E+02 0.  0.
         23    2    1    2    0    0  0.90200240353E+01 -0.46509185793E+02 -0.15841667691E+03  0.18914538094E+03  0.91845884014E+02 0.  0.
        -13    1    3    3    0    0  0.34355802730E+02  0.18094606377E+02  0.17000126945E+02  0.42387973263E+02  0.00000000000E+00 0.  1.
         14    1    3    3    0    0 -0.36306540644E+02 -0.11980589505E+02 -0.14989864610E+02  0.41065745573E+02  0.00000000000E+00 0. -1.
        -13    1    4    4    0    0  0.42818293561E+02 -0.12659765841E+02 -0.34842966488E+02  0.56636633448E+02  0.00000000000E+00 0. -1.
         13    1    4    4    0    0 -0.33798269526E+02 -0.33849419952E+02 -0.12357371042E+03  0.13250874749E+03  0.00000000000E+00 0.  1.
          3    1    1    2  501    0 -0.70692861213E+01  0.40395168921E+02 -0.87175217131E+02  0.96339311603E+02  0.00000000000E+00 0. -1.
<scales pt_clust_5="13000.00000" pt_clust_6="13000.00000" pt_clust_7="13000.00000" pt_clust_8="13000.00000" pt_clust_9="13000.00000"></scales>
<clustering>
<clus scale="   83.182">  5  6 -1 -1</clus>
<clus scale="   83.430">  1  5  2 -1</clus>
<clus scale="   91.846">  7  8 -1 -1</clus>
<clus scale="   42.470">  7  9 -1 -1</clus>
<clus scale="  145.555">  2  5  1 -1</clus>
</clustering>
</event>
<event>
 9    2  0.4178938E-005  0.5745997E+03  0.7546771E-02  0.1052981E+00
          2   -1    0    0  502    0 -0.00000000000E+00  0.00000000000E+00  0.16931166473E+03  0.16931166473E+03  0.00000000000E+00 0. -1.
         21   -1    0    0  501  502  0.00000000000E+00 -0.00000000000E+00 -0.69175445013E+03  0.69175445013E+03  0.00000000000E+00 0. -1.
         24    2    1    2    0    0 -0.15669049849E+02  0.61021588200E+02 -0.41279638824E+02  0.11161108835E+03  0.82364270850E+02 0.  0.
         23    2    1    2    0    0 -0.20166363155E+03  0.72763976242E+01 -0.50932231060E+01  0.22168549224E+03  0.91637057433E+02 0.  0.
        -11    1    3    3    0    0 -0.14335287407E+02  0.74359448089E+02 -0.85092532860E+01  0.76205218827E+02  0.00000000000E+00 0.  1.
         12    1    3    3    0    0 -0.13337624420E+01 -0.13337859889E+02 -0.32770385538E+02  0.35405869527E+02  0.00000000000E+00 0. -1.
        -13    1    4    4    0    0 -0.17152291308E+03  0.40918413134E+02 -0.10918320068E+01  0.17633949740E+03  0.00000000000E+00 0. -1.
         13    1    4    4    0    0 -0.30140718467E+02 -0.33642015510E+02 -0.40013910993E+01  0.45345994840E+02  0.00000000000E+00 0.  1.
          1    1    1    2  501    0  0.21733268140E+03 -0.68297985824E+02 -0.47606992347E+03  0.52776953427E+03  0.00000000000E+00 0. -1.
<scales pt_clust_5="13000.00000" pt_clust_6="13000.00000" pt_clust_7="13000.00000" pt_clust_8="13000.00000" pt_clust_9="13000.00000"></scales>
<clustering>
<clus scale="   82.364">  5  6 -1 -1</clus>
<clus scale="   91.637">  7  8 -1 -1</clus>
<clus scale="  103.697">  1  5  2 -1</clus>
<clus scale="  221.646">  7  9 -1 -1</clus>
<clus scale="  574.600">  2  5  1 -1</clus>
</clustering>
</event>
<event>
 9    2  0.4178938E-005  0.2822767E+03  0.7546771E-02  0.1118663E+00
         -1   -1    0    0    0  501 -0.00000000000E+00  0.00000000000E+00  0.84574749073E+03  0.84574749073E+03  0.00000000000E+00 0.  1.
         21   -1    0    0  501  502  0.00000000000E+00 -0.00000000000E+00 -0.71739901650E+02  0.71739901650E+02  0.00000000000E+00 0.  1.
         24    2    1    2    0    0 -0.59492324066E+02  0.11449806797E+03  0.50593965596E+03  0.52820528056E+03  0.79854484845E+02 0.  0.
         23    2    1    2    0    0  0.65308675646E+02 -0.15209886789E+03  0.28971034965E+03  0.34550946861E+03  0.89696251166E+02 0.  0.
        -13    1    3    3    0    0 -0.66158539696E+02  0.10023902877E+03  0.49415814067E+03  0.50854408192E+03  0.00000000000E+00 0.  1.
         14    1    3    3    0    0  0.66662156302E+01  0.14259039196E+02  0.11781515292E+02  0.19661198646E+02  0.00000000000E+00 0. -1.
        -13    1    4    4    0    0  0.68431115660E+02 -0.46758534384E+02  0.12712805164E+03  0.15175875474E+03  0.00000000000E+00 0.  1.
         13    1    4    4    0    0 -0.31224400143E+01 -0.10534033350E+03  0.16258229802E+03  0.19375071386E+03  0.00000000000E+00 0. -1.
         -2    1    1    2    0  502 -0.58163515798E+01  0.37600799920E+02 -0.21642416533E+02  0.43772643211E+02  0.00000000000E+00 0.  1.
<scales pt_clust_5="13000.00000" pt_clust_6="13000.00000" pt_clust_7="13000.00000" pt_clust_8="13000.00000" pt_clust_9="13000.00000"></scales>
<clustering>
<clus scale="   79.854">  5  6 -1 -1</clus>
<clus scale="   89.696">  7  8 -1 -1</clus>
<clus scale="   38.048">  7  9 -1 -1</clus>
<clus scale="  151.743">  1  5  2 -1</clus>
<clus scale="  282.277">  2  5  1 -1</clus>
</clustering>
</event>
<event>
 9    2  0.4178938E-005  0.3178766E+03  0.7546771E-02  0.1096473E+00
          2   -1    0    0  502    0 -0.00000000000E+00  0.00000000000E+00  0.55132678328E+03  0.55132678328E+03  0.00000000000E+00 0. -1.
         21   -1    0    0  501  502  0.00000000000E+00 -0.00000000000E+00 -0.13455370288E+03  0.13455370288E+03  0.00000000000E+00 0. -1.
         24    2    1    2    0    0 -0.13825499307E+03 -0.97016023954E+02  0.37817560300E+02  0.19125656921E+03  0.81377855626E+02 0.  0.
         23    2    1    2    0    0  0.18310160274E+03  0.12372064206E+03  0.37217648787E+03  0.44199017962E+03  0.89481766631E+02 0.  0.
        -11    1    3    3    0    0 -0.73190763187E+02 -0.37257769329E+01  0.83266754034E+01  0.73757052225E+02  0.00000000000E+00 0.  1.
         12    1    3    3    0    0 -0.65064229879E+02 -0.93290247021E+02  0.29490884897E+02  0.11749951698E+03  0.00000000000E+00 0. -1.
        -13    1    4    4    0    0  0.16835343165E+03  0.10923047507E+03  0.26272701524E+03  0.33060498964E+03  0.00000000000E+00 0. -1.
         13    1    4    4    0    0  0.14748171091E+02  0.14490166989E+02  0.10944947262E+03  0.11138518998E+03  0.00000000000E+00 0.  1.
          1    1    1    2  501    0 -0.44846609676E+02 -0.26704618105E+02  0.67790322390E+01  0.52633737333E+02  0.00000000000E+00 0. -1.
<scales pt_clust_5="13000.00000" pt_clust_6="13000.00000" pt_clust_7="13000.00000" pt_clust_8="13000.00000" pt_clust_9="13000.00000"></scales>
<clustering>
<clus scale="   81.378">  5  6 -1 -1</clus>
<clus scale="   89.482">  7  8 -1 -1</clus>
<clus scale="   52.195">  7  9 -1 -1</clus>
<clus scale="  187.481">  1  5  2 -1</clus>
<clus scale="  317.877">  2  5  1 -1</clus>
</clustering>
</event>
<event>
 9    2  0.4178938E-005  0.3331439E+03  0.7546771E-02  0.1096565E+00
          2   -1    0    0  502    0 -0.00000000000E+00  0.00000000000E+00  0.31590807517E+03  0.31590807517E+03  0.00000000000E+00 0. -1.
         21   -1    0    0  501  502  0.00000000000E+00 -0.00000000000E+00 -0.20792449667E+03  0.20792449667E+03  0.00000000000E+00 0. -1.
         24    2    1    2    0    0 -0.11533209582E+03 -0.80296720707E+02 -0.26394622784E+02  0.16460790680E+03  0.81547723376E+02 0.  0.
         23    2    1    2    0    0  0.28272568038E+01 -0.53048576317E+02  0.15055192958E+03  0.18401080563E+03  0.91498351110E+02 0.  0.
        -11    1    3    3    0    0 -0.38783832238E+02  0.13201426782E+02 -0.13249201280E+02  0.43058154242E+02  0.00000000000E+00 0.  1.
         12    1    3    3    0    0 -0.76548263582E+02 -0.93498147489E+02 -0.13145421504E+02  0.12154975256E+03  0.00000000000E+00 0. -1.
        -13    1    4    4    0    0  0.24908327926E+02 -0.44968090911E+02  0.26660775240E+02  0.57908124962E+02  0.00000000000E+00 0. -1.
         13    1    4    4    0    0 -0.22081071122E+02 -0.80804854056E+01  0.12389115434E+03  0.12610268066E+03  0.00000000000E+00 0.  1.
          1    1    1    2  501    0  0.11250483902E+03  0.13334529702E+03 -0.16173728300E+02  0.17521385940E+03  0.00000000000E+00 0. -1.
<scales pt_clust_5="13000.00000" pt_clust_6="13000.00000" pt_clust_7="13000.00000" pt_clust_8="13000.00000" pt_clust_9="13000.00000"></scales>
<clustering>
<clus scale="   81.548">  5  6 -1 -1</clus>
<clus scale="   91.498">  7  8 -1 -1</clus>
<clus scale="  162.478">  1  5  2 -1</clus>
<clus scale="  131.253">  7  9 -1 -1</clus>
<clus scale="  333.144">  2  5  1 -1</clus>
</clustering>
</event>
<event>
 9    2  0.6277524E-005  0.5938492E+03  0.7546771E-02  0.1008505E+00
         21   -1    0    0  501  502  0.00000000000E+00  0.00000000000E+00  0.49533750540E+03  0.49533750540E+03  0.00000000000E+00 0.  1.
          2   -1    0    0  502    0 -0.00000000000E+00 -0.00000000000E+00 -0.55655843136E+03  0.55655843136E+03  0.00000000000E+00 0. -1.
         24    2    1    2    0    0  0.22476360113E+03  0.25608865214E+03  0.19896079467E+03  0.40355085018E+03  0.84662959532E+02 0.  0.
         23    2    1    2    0    0 -0.13035956313E+02 -0.23272528919E+02  0.11988413618E+03  0.15490613562E+03  0.94404226526E+02 0.  0.
        -13    1    3    3    0    0  0.42427928038E+02  0.33992139681E+02  0.69874499559E+02  0.88532707665E+02  0.00000000000E+00 0.  1.
         14    1    3    3    0    0  0.18233567310E+03  0.22209651246E+03  0.12908629511E+03  0.31501814252E+03  0.00000000000E+00 0. -1.
        -11    1    4    4    0    0  0.33071183949E+02  0.67159681863E+01  0.15971719603E+02  0.37335013909E+02  0.00000000000E+00 0.  1.
         11    1    4    4    0    0 -0.46107140262E+02 -0.29988497106E+02  0.10391241657E+03  0.11757112171E+03  0.00000000000E+00 0. -1.
          1    1    1    2  501    0 -0.21172764482E+03 -0.23281612322E+03 -0.38006585681E+03  0.49343895096E+03  0.00000000000E+00 0. -1.
<scales pt_clust_5="13000.00000" pt_clust_6="13000.00000" pt_clust_7="13000.00000" pt_clust_8="13000.00000" pt_clust_9="13000.00000"></scales>
<clustering>
<clus scale="   84.663">  5  6 -1 -1</clus>
<clus scale="   94.404">  7  8 -1 -1</clus>
<clus scale="  314.694">  7  9 -1 -1</clus>
<clus scale="  351.095">  2  5  1 -1</clus>
<clus scale="  593.849">  1  5  2 -1</clus>
</clustering>
</event>
<event>
 9    2  0.4178938E-005  0.4196646E+03  0.7546771E-02  0.1065085E+00
          2   -1    0    0  502    0 -0.00000000000E+00  0.00000000000E+00  0.60777250154E+03  0.60777250154E+03  0.00000000000E+00 0. -1.
         21   -1    0    0  501  502  0.00000000000E+00 -0.00000000000E+00 -0.15561964538E+03  0.15561964538E+03  0.00000000000E+00 0. -1.
         24    2    1    2    0    0  0.12230992856E+03  0.13346748831E+03  0.93613526212E+02  0.21142404284E+03  0.56243617775E+02 0.  0.
         23    2    1    2    0    0  0.91084527283E+02  0.13972670082E+02  0.21641216799E+03  0.25620481315E+03  0.10156305041E+03 0.  0.
        -13    1    3    3    0    0  0.13159082504E+02  0.29641650519E+02 -0.28265844043E+01  0.32554239006E+02  0.00000000000E+00 0.  1.
         14    1    3    3    0    0  0.10915084605E+03  0.10382583779E+03  0.96440110617E+02  0.17886980383E+03  0.00000000000E+00 0. -1.
        -11    1    4    4    0    0  0.65128791231E+02 -0.13250418045E+01  0.38309969280E+02  0.75572276194E+02  0.00000000000E+00 0.  1.
         11    1    4    4    0    0  0.25955736052E+02  0.15297711887E+02  0.17810219871E+03  0.18063253696E+03  0.00000000000E+00 0. -1.
          1    1    1    2  501    0 -0.21339445584E+03 -0.14744015840E+03  0.14212716196E+03  0.29576329092E+03  0.00000000000E+00 0. -1.
<scales pt_clust_5="13000.00000" pt_clust_6="13000.00000" pt_clust_7="13000.00000" pt_clust_8="13000.00000" pt_clust_9="13000.00000"></scales>
<clustering>
<clus scale="   56.244">  5  6 -1 -1</clus>
<clus scale="  101.563">  7  8 -1 -1</clus>
<clus scale="  189.570">  1  5  2 -1</clus>
<clus scale="  175.566">  7  9 -1 -1</clus>
<clus scale="  419.665">  2  5  1 -1</clus>
</clustering>
</event>
<event>
 9    2  0.4178938E-005  0.4441668E+03  0.7546771E-02  0.1086462E+00
         -1   -1    0    0    0  501 -0.00000000000E+00  0.00000000000E+00  0.12694198797E+04  0.12694198797E+04  0.00000000000E+00 0.  1.
         21   -1    0    0  501  502  0.00000000000E+00 -0.00000000000E+00 -0.69385993330E+02  0.69385993330E+02  0.00000000000E+00 0. -1.
         24    2    1    2    0    0 -0.33135384945E+02 -0.20005842287E+02  0.42653995745E+02  0.99123495394E+02  0.80671658747E+02 0.  0.
         23    2    1    2    0    0 -0.12894275673E+03  0.83182711015E+02  0.20706114832E+03  0.27357350555E+03  0.91774429278E+02 0.  0.
        -13    1    3    3    0    0 -0.21169574581E+02 -0.26279497319E+02  0.64869654922E+02  0.73122055476E+02  0.00000000000E+00 0.  1.
         14    1    3    3    0    0 -0.11965810364E+02  0.62736550323E+01 -0.22215659177E+02  0.26001439918E+02  0.00000000000E+00 0. -1.
        -13    1    4    4    0    0 -0.13755836847E+03  0.57151912268E+02  0.15651034374E+03  0.21606511405E+03  0.00000000000E+00 0. -1.
         13    1    4    4    0    0  0.86156117388E+01  0.26030798748E+02  0.50550804576E+02  0.57508391495E+02  0.00000000000E+00 0.  1.
         -2    1    1    2    0  502  0.16207814168E+03 -0.63176868728E+02  0.95031874234E+03  0.96610887212E+03  0.00000000000E+00 0.  1.
<scales pt_clust_5="13000.00000" pt_clust_6="13000.00000" pt_clust_7="13000.00000" pt_clust_8="13000.00000" pt_clust_9="13000.00000"></scales>
<clustering>
<clus scale="   80.672">  5  6 -1 -1</clus>
<clus scale="   89.477">  1  5  2 -1</clus>
<clus scale="   91.774">  7  8 -1 -1</clus>
<clus scale="  157.009">  7  9 -1 -1</clus>
<clus scale="  444.167">  2  5  1 -1</clus>
</clustering>
</event>
<event>
 9    2  0.4178938E-005  0.3935019E+03  0.7546771E-02  0.1093425E+00
          2   -1    0    0  502    0 -0.00000000000E+00  0.00000000000E+00  0.47544403388E+02  0.47544403388E+02  0.00000000000E+00 0. -1.
         21   -1    0    0  501  502  0.00000000000E+00 -0.00000000000E+00 -0.14755391025E+04  0.14755391025E+04  0.00000000000E+00 0.  1.
         24    2    1    2    0    0  0.56533669289E+02  0.41355149456E+02 -0.55885430963E+03  0.56901391451E+03  0.80946842848E+02 0.  0.
         23    2    1    2    0    0 -0.14754212484E+03 -0.13928489118E+03 -0.32839126612E+03  0.39703962117E+03  0.92901440233E+02 0.  0.
        -13    1    3    3    0    0  0.36252253628E+02  0.65873470870E+02 -0.39932092967E+03  0.40633821496E+03  0.00000000000E+00 0.  1.
         14    1    3    3    0    0  0.20281415661E+02 -0.24518321414E+02 -0.15953337995E+03  0.16267569955E+03  0.00000000000E+00 0. -1.
        -11    1    4    4    0    0 -0.14646131958E+03 -0.96076793936E+02 -0.22625482033E+03  0.28613443028E+03  0.00000000000E+00 0.  1.
         11    1    4    4    0    0 -0.10808052581E+01 -0.43208097244E+02 -0.10213644579E+03  0.11090519089E+03  0.00000000000E+00 0. -1.
          1    1    1    2  501    0  0.91008455551E+02  0.97929741725E+02 -0.54074912334E+03  0.55702997019E+03  0.00000000000E+00 0. -1.
<scales pt_clust_5="13000.00000" pt_clust_6="13000.00000" pt_clust_7="13000.00000" pt_clust_8="13000.00000" pt_clust_9="13000.00000"></scales>
<clustering>
<clus scale="   80.947">  5  6 -1 -1</clus>
<clus scale="   92.901">  7  8 -1 -1</clus>
<clus scale="  107.045">  1  5  2 -1</clus>
<clus scale="  146.896">  7  9 -1 -1</clus>
<clus scale="  393.502">  2  5  1 -1</clus>
</clustering>
</event>
<event>
 9    2  0.4178938E-005  0.3239719E+03  0.7546771E-02  0.1102444E+00
          2   -1    0    0  502    0 -0.00000000000E+00  0.00000000000E+00  0.10589146648E+03  0.10589146648E+03  0.00000000000E+00 0. -1.
         21   -1    0    0  501  502  0.00000000000E+00 -0.00000000000E+00 -0.56648299390E+03  0.56648299390E+03  0.00000000000E+00 0. -1.
         24    2    1    2    0    0 -0.80072830397E+02  0.10452018498E+03 -0.76378397926E+02  0.16980357750E+03  0.75256016539E+02 0.  0.
         23    2    1    2    0    0  0.13402275342E+03  0.41556095460E+02 -0.21121669036E+03  0.26981211968E+03  0.92179618853E+02 0.  0.
        -13    1    3    3    0    0 -0.45952276853E+02  0.31178145870E+02 -0.69010252858E+02  0.88578233936E+02  0.00000000000E+00 0.  1.
         14    1    3    3    0    0 -0.34120553544E+02  0.73342039109E+02 -0.73681450683E+01  0.81225343560E+02  0.00000000000E+00 0. -1.
        -11    1    4    4    0    0 -0.96160713763E+01  0.18137703715E+02 -0.41061321920E+02  0.45907268297E+02  0.00000000000E+00 0.  1.
         11    1    4    4    0    0  0.14363882479E+03  0.23418391746E+02 -0.17015536844E+03  0.22390485138E+03  0.00000000000E+00 0. -1.
          1    1    1    2  501    0 -0.53949923022E+02 -0.14607628044E+03 -0.17299643912E+03  0.23275876321E+03  0.00000000000E+00 0. -1.
<scales pt_clust_5="13000.00000" pt_clust_6="13000.00000" pt_clust_7="13000.00000" pt_clust_8="13000.00000" pt_clust_9="13000.00000"></scales>
<clustering>
<clus scale="   75.256">  5  6 -1 -1</clus>
<clus scale="   92.180">  7  8 -1 -1</clus>
<clus scale="  151.656">  1  5  2 -1</clus>
<clus scale="  132.713">  7  9 -1 -1</clus>
<clus scale="  323.972">  2  5  1 -1</clus>
</clustering>
</event>
<event>
 9    2  0.4178938E-005  0.2591626E+03  0.7546771E-02  0.1142741E+00
         21   -1    0    0  501  502  0.00000000000E+00  0.00000000000E+00  0.23306761858E+03  0.23306761858E+03  0.00000000000E+00 0. -1.
         -3   -1    0    0    0  501 -0.00000000000E+00 -0.00000000000E+00 -0.17654146442E+03  0.17654146442E+03  0.00000000000E+00 0.  1.
         24    2    1    2    0    0 -0.31967010915E+02 -0.64128016953E+02 -0.61518081917E+02  0.12482900469E+03  0.81630347682E+02 0.  0.
         23    2    1    2    0    0 -0.21072109033E+02 -0.58204347644E+02 -0.21588484199E+01  0.10526089494E+03  0.85108257614E+02 0.  0.
        -11    1    3    3    0    0  0.21948697016E+02 -0.21468423840E+02  0.26087816805E+01  0.30813053479E+02  0.00000000000E+00 0.  1.
         12    1    3    3    0    0 -0.53915707931E+02 -0.42659593113E+02 -0.64126863598E+02  0.94015951206E+02  0.00000000000E+00 0. -1.
        -13    1    4    4    0    0 -0.12191304744E+02 -0.37238819365E+02  0.40845215756E+02  0.56601141590E+02  0.00000000000E+00 0. -1.
         13    1    4    4    0    0 -0.88808042890E+01 -0.20965528279E+02 -0.43004064176E+02  0.48659753354E+02  0.00000000000E+00 0.  1.
         -4    1    1    2    0  502  0.53039119949E+02  0.12233236460E+03  0.12020308450E+03  0.17951918336E+03  0.00000000000E+00 0.  1.
<scales pt_clust_5="13000.00000" pt_clust_6="13000.00000" pt_clust_7="13000.00000" pt_clust_8="13000.00000" pt_clust_9="13000.00000"></scales>
<clustering>
<clus scale="   81.630">  5  6 -1 -1</clus>
<clus scale="   85.108">  7  8 -1 -1</clus>
<clus scale="  108.618">  2  5  1 -1</clus>
<clus scale="  107.890">  7  9 -1 -1</clus>
<clus scale="  259.163">  1  5  2 -1</clus>
</clustering>
</event>
<event>
 9    2  0.4178938E-005  0.2051590E+03  0.7546771E-02  0.1183126E+00
         21   -1    0    0  501  502  0.00000000000E+00  0.00000000000E+00  0.23923631656E+02  0.23923631656E+02  0.00000000000E+00 0.  1.
         -3   -1    0    0    0  501 -0.00000000000E+00 -0.00000000000E+00 -0.10627074102E+04  0.10627074102E+04  0.00000000000E+00 0.  1.
         24    2    1    2    0    0  0.22875117651E+01 -0.33510322195E+02 -0.13624707668E+03  0.16107027938E+03  0.79070820101E+02 0.  0.
         23    2    1    2    0    0 -0.77762404169E+02 -0.22661620612E+00 -0.41242140105E+03  0.42852188221E+03  0.86559509238E+02 0.  0.
        -11    1    3    3    0    0 -0.34367252517E+02 -0.32226793465E+00 -0.73853276545E+02  0.81458691117E+02  0.00000000000E+00 0.  1.
         12    1    3    3    0    0  0.36654764282E+02 -0.33188054260E+02 -0.62393800135E+02  0.79611588261E+02  0.00000000000E+00 0. -1.
        -13    1    4    4    0    0 -0.26420046024E+02 -0.39925137753E+02 -0.22917308432E+03  0.23412034947E+03  0.00000000000E+00 0.  1.
         13    1    4    4    0    0 -0.51342358145E+02  0.39698521547E+02 -0.18324831672E+03  0.19440153275E+03  0.00000000000E+00 0. -1.
         -4    1    1    2    0  502  0.75474892404E+02  0.33736938401E+02 -0.49011530082E+03  0.49703888027E+03  0.00000000000E+00 0.  1.
<scales pt_clust_5="13000.00000" pt_clust_6="13000.00000" pt_clust_7="13000.00000" pt_clust_8="13000.00000" pt_clust_9="13000.00000"></scales>
<clustering>
<clus scale="   79.071">  5  6 -1 -1</clus>
<clus scale="   85.909">  2  5  1 -1</clus>
<clus scale="   86.560">  7  8 -1 -1</clus>
<clus scale="   78.289">  7  9 -1 -1</clus>
<clus scale="  205.159">  1  5  2 -1</clus>
</clustering>
</event>
<event>
 9    2  0.4178938E-005  0.2435549E+03  0.7546771E-02  0.1150731E+00
         21   -1    0    0  501  502  0.00000000000E+00  0.00000000000E+00  0.77264932324E+02  0.77264932324E+02  0.00000000000E+00 0. -1.
          2   -1    0    0  502    0 -0.00000000000E+00 -0.00000000000E+00 -0.41834302251E+03  0.41834302251E+03  0.00000000000E+00 0. -1.
         24    2    1    2    0    0 -0.50032812729E+02 -0.52081423435E+02 -0.15541883562E+03  0.18935912489E+03  0.80536368771E+02 0.  0.
         23    2    1    2    0    0  0.76569636025E+02 -0.52000947818E+02 -0.13596474531E+03  0.18789813394E+03  0.90842110466E+02 0.  0.
        -11    1    3    3    0    0 -0.33294928532E+02 -0.58321533268E+02 -0.53430544437E+02  0.85818276536E+02  0.00000000000E+00 0.  1.
         12    1    3    3    0    0 -0.16737884197E+02  0.62401098331E+01 -0.10198829119E+03  0.10354084835E+03  0.00000000000E+00 0. -1.
        -13    1    4    4    0    0  0.13784755201E+02 -0.35532143817E+02 -0.11266058595E+03  0.11893258740E+03  0.00000000000E+00 0.  1.
         13    1    4    4    0    0  0.62784880824E+02 -0.16468804000E+02 -0.23304159368E+02  0.68965546537E+02  0.00000000000E+00 0. -1.
          1    1    1    2  501    0 -0.26536823296E+02  0.10408237125E+03 -0.49694509246E+02  0.11835069601E+03  0.00000000000E+00 0. -1.
<scales pt_clust_5="13000.00000" pt_clust_6="13000.00000" pt_clust_7="13000.00000" pt_clust_8="13000.00000" pt_clust_9="13000.00000"></scales>
<clustering>
<clus scale="   80.536">  5  6 -1 -1</clus>
<clus scale="   90.842">  7  8 -1 -1</clus>
<clus scale="  107.412">  7  9 -1 -1</clus>
<clus scale="  108.175">  2  5  1 -1</clus>
<clus scale="  243.555">  1  5  2 -1</clus>
</clustering>
</event>
<event>
 9    2  0.4178938E-005  0.4061211E+03  0.7546771E-02  0.1050046E+00
          2   -1    0    0  502    0 -0.00000000000E+00  0.00000000000E+00  0.26046422310E+04  0.26046422310E+04  0.00000000000E+00 0. -1.
         21   -1    0    0  501  502  0.00000000000E+00 -0.00000000000E+00 -0.57694479219E+02  0.57694479219E+02  0.00000000000E+00 0. -1.
         24    2    1    2    0    0  0.18004621138E+03 -0.25092987204E+03  0.16069477676E+04  0.16383570663E+04  0.80933985937E+02 0.  0.
         23    2    1    2    0    0 -0.91495848083E+02  0.21519782814E+02  0.53032399712E+03  0.54616736877E+03  0.90667863757E+02 0.  0.
        -13    1    3    3    0    0  0.12456756220E+03 -0.22634863114E+03  0.12763580334E+04  0.13022444509E+04  0.00000000000E+00 0.  1.
         14    1    3    3    0    0  0.55478649175E+02 -0.24581240902E+02  0.33058973417E+03  0.33611261543E+03  0.00000000000E+00 0. -1.
        -11    1    4    4    0    0  0.61051566006E+00  0.36953760772E+02  0.16592116825E+03  0.16998760907E+03  0.00000000000E+00 0.  1.
         11    1    4    4    0    0 -0.92106363743E+02 -0.15433977957E+02  0.36440282887E+03  0.37617975969E+03  0.00000000000E+00 0. -1.
          1    1    1    2  501    0 -0.88550363296E+02  0.22941008922E+03  0.40967598703E+03  0.47781227509E+03  0.00000000000E+00 0. -1.
<scales pt_clust_5="13000.00000" pt_clust_6="13000.00000" pt_clust_7="13000.00000" pt_clust_8="13000.00000" pt_clust_9="13000.00000"></scales>
<clustering>
<clus scale="   80.934">  5  6 -1 -1</clus>
<clus scale="   90.668">  7  8 -1 -1</clus>
<clus scale="  245.907">  7  9 -1 -1</clus>
<clus scale="  319.269">  1  5  2 -1</clus>
<clus scale="  406.121">  2  5  1 -1</clus>
</clustering>
</event>
<event>
 9    2  0.4178938E-005  0.2004499E+03  0.7546771E-02  0.1161200E+00
          2   -1    0    0  502    0 -0.00000000000E+00  0.00000000000E+00  0.10877657494E+03  0.10877657494E+03  0.00000000000E+00 0. -1.
         21   -1    0    0  501  502  0.00000000000E+00 -0.00000000000E+00 -0.38589185538E+03  0.38589185538E+03  0.00000000000E+00 0.  1.
         24    2    1    2    0    0  0.11805755906E+03 -0.58220711272E+02  0.10368179465E+01  0.15181462315E+03  0.75626492315E+02 0.  0.
         23    2    1    2    0    0 -0.92206558488E+02 -0.58169321470E+01 -0.17418636838E+03  0.21804208087E+03  0.93089053995E+02 0.  0.
        -11    1    3    3    0    0  0.81755151098E+02 -0.40430889415E+02 -0.34967106951E+02  0.97679374069E+02  0.00000000000E+00 0.  1.
         12    1    3    3    0    0  0.36302407960E+02 -0.17789821857E+02  0.36003924897E+02  0.54135249084E+02  0.00000000000E+00 0. -1.
        -13    1    4    4    0    0 -0.98476986544E+02  0.23242628890E+02 -0.12888899077E+03  0.16386063780E+03  0.00000000000E+00 0.  1.
         13    1    4    4    0    0  0.62704280560E+01 -0.29059561037E+02 -0.45297377605E+02  0.54181443074E+02  0.00000000000E+00 0. -1.
          1    1    1    2  501    0 -0.25851000571E+02  0.64037643419E+02 -0.10396573001E+03  0.12481172630E+03  0.00000000000E+00 0. -1.
<scales pt_clust_5="13000.00000" pt_clust_6="13000.00000" pt_clust_7="13000.00000" pt_clust_8="13000.00000" pt_clust_9="13000.00000"></scales>
<clustering>
<clus scale="   75.626">  5  6 -1 -1</clus>
<clus scale="   93.089">  7  8 -1 -1</clus>
<clus scale="   69.059">  7  9 -1 -1</clus>
<clus scale="  151.811">  1  5  2 -1</clus>
<clus scale="  200.450">  2  5  1 -1</clus>
</clustering>
</event>
<event>
 9    2  0.4178938E-005  0.7536440E+03  0.7546771E-02  0.9989474E-01
         21   -1    0    0  501  502  0.00000000000E+00  0.00000000000E+00  0.27057371819E+03  0.27057371819E+03  0.00000000000E+00 0.  1.
          2   -1    0    0  502    0 -0.00000000000E+00 -0.00000000000E+00 -0.94766242143E+03  0.94766242143E+03  0.00000000000E+00 0. -1.
         24    2    1    2    0    0 -0.98774725115E+02 -0.19382371621E+03 -0.48028010628E+02  0.23655559648E+03  0.79547351545E+02 0.  0.
         23    2    1    2    0    0  0.24568249133E+02 -0.19828820209E+03  0.18617823484E+02  0.22092708914E+03  0.92413989280E+02 0.  0.
        -11    1    3    3    0    0 -0.55531444468E+02 -0.11299592901E+03 -0.67477951391E+02  0.14284640430E+03  0.00000000000E+00 0.  1.
         12    1    3    3    0    0 -0.43243280647E+02 -0.80827787197E+02  0.19449940764E+02  0.93709192185E+02  0.00000000000E+00 0. -1.
        -13    1    4    4    0    0  0.15000045733E+02 -0.89350918702E+02  0.54625583736E+02  0.10579481293E+03  0.00000000000E+00 0.  1.
         13    1    4    4    0    0  0.95682034007E+01 -0.10893728338E+03 -0.36007760253E+02  0.11513227621E+03  0.00000000000E+00 0. -1.
          1    1    1    2  501    0  0.74206475982E+02  0.39211191829E+03 -0.64767851610E+03  0.76075345399E+03  0.00000000000E+00 0. -1.
<scales pt_clust_5="13000.00000" pt_clust_6="13000.00000" pt_clust_7="13000.00000" pt_clust_8="13000.00000" pt_clust_9="13000.00000"></scales>
<clustering>
<clus scale="   79.547">  5  6 -1 -1</clus>
<clus scale="   92.414">  7  8 -1 -1</clus>
<clus scale="  231.629">  2  5  1 -1</clus>
<clus scale="  222.965">  7  9 -1 -1</clus>
<clus scale="  753.644">  1  5  2 -1</clus>
</clustering>
</event>
<event>
 9    2  0.4178938E-005  0.1976813E+03  0.7546771E-02  0.1182825E+00
         21   -1    0    0  501  502  0.00000000000E+00  0.00000000000E+00  0.65550866200E+02  0.65550866200E+02  0.00000000000E+00 0.  1.
         -1   -1    0    0    0  501 -0.00000000000E+00 -0.00000000000E+00 -0.33046675203E+03  0.33046675203E+03  0.00000000000E+00 0.  1.
         24    2    1    2    0    0  0.80941838705E+01 -0.52596409365E+02 -0.87438944011E+02  0.13035628645E+03  0.80717373566E+02 0.  0.
         23    2    1    2    0    0 -0.53925676856E+02 -0.24414611298E+02 -0.84502780700E+02  0.13652799880E+03  0.89415449672E+02 0.  0.
        -13    1    3    3    0    0 -0.28150847351E+02 -0.29752860329E+02 -0.75476722614E+02  0.85874551299E+02  0.00000000000E+00 0.  1.
         14    1    3    3    0    0  0.36245031222E+02 -0.22843549036E+02 -0.11962221397E+02  0.44481735146E+02  0.00000000000E+00 0. -1.
        -13    1    4    4    0    0 -0.64126107681E+02  0.14477324582E+02 -0.41950338770E+02  0.77984495487E+02  0.00000000000E+00 0. -1.
         13    1    4    4    0    0  0.10200430826E+02 -0.38891935880E+02 -0.42552441930E+02  0.58543503310E+02  0.00000000000E+00 0.  1.
         -2    1    1    2    0  502  0.45831492985E+02  0.77011020663E+02 -0.92974161118E+02  0.12913333299E+03  0.00000000000E+00 0.  1.
<scales pt_clust_5="13000.00000" pt_clust_6="13000.00000" pt_clust_7="13000.00000" pt_clust_8="13000.00000" pt_clust_9="13000.00000"></scales>
<clustering>
<clus scale="   80.717">  5  6 -1 -1</clus>
<clus scale="   89.415">  7  8 -1 -1</clus>
<clus scale="   89.617">  7  9 -1 -1</clus>
<clus scale="   96.681">  2  5  1 -1</clus>
<clus scale="  197.681">  1  5  2 -1</clus>
</clustering>
</event>
<event>
 9    2  0.4178938E-005  0.7628596E+03  0.7546771E-02  0.1031012E+00
          4   -1    0    0  502    0 -0.00000000000E+00  0.00000000000E+00  0.10422121125E+03  0.10422121125E+03  0.00000000000E+00 0. -1.
         21   -1    0    0  501  502  0.00000000000E+00 -0.00000000000E+00 -0.30671519200E+04  0.30671519200E+04  0.00000000000E+00 0. -1.
         24    2    1    2    0    0 -0.13933597338E+02 -0.18596242582E+02  0.25143119902E+02  0.87456800251E+02  0.80477015717E+02 0.  0.
         23    2    1    2    0    0 -0.35871501287E+03 -0.54845397869E+02 -0.12464833949E+04  0.13013906228E+04  0.90621307516E+02 0.  0.
        -11    1    3    3    0    0 -0.42257504651E+02 -0.15257969424E+01  0.32795925704E+02  0.53512591961E+02  0.00000000000E+00 0.  1.
         12    1    3    3    0    0  0.28323907312E+02 -0.17070445640E+02 -0.76528058022E+01  0.33944208290E+02  0.00000000000E+00 0. -1.
        -11    1    4    4    0    0 -0.23184740227E+03 -0.45305170591E+02 -0.94667346004E+03  0.97570303698E+03  0.00000000000E+00 0. -1.
         11    1    4    4    0    0 -0.12686761060E+03 -0.95402272785E+01 -0.29980993483E+03  0.32568758586E+03  0.00000000000E+00 0.  1.
          3    1    1    2  501    0  0.37264861021E+03  0.73441640451E+02 -0.17415904337E+04  0.17825257081E+04  0.00000000000E+00 0. -1.
<scales pt_clust_5="13000.00000" pt_clust_6="13000.00000" pt_clust_7="13000.00000" pt_clust_8="13000.00000" pt_clust_9="13000.00000"></scales>
<clustering>
<clus scale="   80.477">  5  6 -1 -1</clus>
<clus scale="   83.765">  1  5  2 -1</clus>
<clus scale="   90.621">  7  8 -1 -1</clus>
<clus scale="  372.501">  7  9 -1 -1</clus>
<clus scale="  762.860">  2  5  1 -1</clus>
</clustering>
</event>
<event>
 9    2  0.4178938E-005  0.4196826E+03  0.7546771E-02  0.1054797E+00
          2   -1    0    0  502    0 -0.00000000000E+00  0.00000000000E+00  0.16314808992E+04  0.16314808992E+04  0.00000000000E+00 0. -1.
         21   -1    0    0  501  502  0.00000000000E+00 -0.00000000000E+00 -0.78898575270E+02  0.78898575270E+02  0.00000000000E+00 0. -1.
         24    2    1    2    0    0 -0.96658610283E+02 -0.21894834871E+03  0.89724696476E+03  0.93217774314E+03  0.81375442837E+02 0.  0.
         23    2    1    2    0    0 -0.10207275293E+03  0.24393826486E+02  0.24928209783E+03  0.28603827485E+03  0.93072147913E+02 0.  0.
        -13    1    3    3    0    0  0.32938845177E+01 -0.87788422151E+02  0.30436504734E+03  0.31678973907E+03  0.00000000000E+00 0.  1.
         14    1    3    3    0    0 -0.99952494801E+02 -0.13115992656E+03  0.59288191742E+03  0.61538800407E+03  0.00000000000E+00 0. -1.
        -13    1    4    4    0    0 -0.71328043717E+02 -0.70900554628E+01  0.22421528980E+03  0.23539425415E+03  0.00000000000E+00 0.  1.
         13    1    4    4    0    0 -0.30744709217E+02  0.31483881949E+02  0.25066808025E+02  0.50644020693E+02  0.00000000000E+00 0. -1.
          1    1    1    2  501    0  0.19873136322E+03  0.19455452222E+03  0.40605326131E+03  0.49216345645E+03  0.00000000000E+00 0. -1.
<scales pt_clust_5="13000.00000" pt_clust_6="13000.00000" pt_clust_7="13000.00000" pt_clust_8="13000.00000" pt_clust_9="13000.00000"></scales>
<clustering>
<clus scale="   81.375">  5  6 -1 -1</clus>
<clus scale="   93.072">  7  8 -1 -1</clus>
<clus scale="  252.791">  1  5  2 -1</clus>
<clus scale="  149.604">  7  9 -1 -1</clus>
<clus scale="  419.683">  2  5  1 -1</clus>
</clustering>
</event>
<event>
 9    2  0.4178938E-005  0.2124570E+03  0.7546771E-02  0.1164982E+00
         21   -1    0    0  501  502  0.00000000000E+00  0.00000000000E+00  0.11731402742E+03  0.11731402742E+03  0.00000000000E+00 0. -1.
          2   -1    0    0  502    0 -0.00000000000E+00 -0.00000000000E+00 -0.27632936438E+03  0.27632936438E+03  0.00000000000E+00 0. -1.
         24    2    1    2    0    0 -0.38361893735E+02  0.75456643858E+02 -0.13701685542E+03  0.18005055246E+03  0.80493743733E+02 0.  0.
         23    2    1    2    0    0  0.16111875917E+02  0.26431308040E+02 -0.35679490006E+02  0.10841019806E+03  0.97578370790E+02 0.  0.
        -11    1    3    3    0    0  0.12689528642E+02  0.54083711053E+02 -0.96903263490E+02  0.11169742349E+03  0.00000000000E+00 0.  1.
         12    1    3    3    0    0 -0.51051422377E+02  0.21372932805E+02 -0.40113591926E+02  0.68353128975E+02  0.00000000000E+00 0. -1.
        -11    1    4    4    0    0  0.52308115218E+02  0.29914217052E+02 -0.43545971693E+01  0.60414913854E+02  0.00000000000E+00 0. -1.
         11    1    4    4    0    0 -0.36196239301E+02 -0.34829090127E+01 -0.31324892837E+02  0.47995284206E+02  0.00000000000E+00 0.  1.
          1    1    1    2  501    0  0.22250017818E+02 -0.10188795190E+03  0.13681008457E+02  0.10518264128E+03  0.00000000000E+00 0. -1.
<scales pt_clust_5="13000.00000" pt_clust_6="13000.00000" pt_clust_7="13000.00000" pt_clust_8="13000.00000" pt_clust_9="13000.00000"></scales>
<clustering>
<clus scale="   80.494">  5  6 -1 -1</clus>
<clus scale="   97.578">  7  8 -1 -1</clus>
<clus scale="  104.289">  7  9 -1 -1</clus>
<clus scale="  116.810">  2  5  1 -1</clus>
<clus scale="  212.457">  1  5  2 -1</clus>
</clustering>
</event>
<event>
 9    2  0.4178938E-005  0.3020597E+03  0.7546771E-02  0.1096296E+00
          2   -1    0    0  502    0 -0.00000000000E+00  0.00000000000E+00  0.14683377777E+04  0.14683377777E+04  0.00000000000E+00 0. -1.
         21   -1    0    0  501  502  0.00000000000E+00 -0.00000000000E+00 -0.48756578889E+02  0.48756578889E+02  0.00000000000E+00 0. -1.
         24    2    1    2    0    0 -0.13772338141E+03  0.15046401579E+03  0.77070779333E+03  0.80135923708E+03  0.81110876751E+02 0.  0.
         23    2    1    2    0    0  0.18254210026E+03 -0.13884579959E+03  0.47963940872E+03  0.54028186030E+03  0.96180828331E+02 0.  0.
        -11    1    3    3    0    0 -0.55941531246E+01  0.35875027245E+02  0.66593402689E+02  0.75848489838E+02  0.00000000000E+00 0.  1.
         12    1    3    3    0    0 -0.13212922829E+03  0.11458898854E+03  0.70411439064E+03  0.72551074725E+03  0.00000000000E+00 0. -1.
        -13    1    4    4    0    0  0.22375823484E+02 -0.64331826373E+02  0.93747796808E+02  0.11587886247E+03  0.00000000000E+00 0.  1.
         13    1    4    4    0    0  0.16016627677E+03 -0.74513973215E+02  0.38589161191E+03  0.42440299783E+03  0.00000000000E+00 0. -1.
          1    1    1    2  501    0 -0.44818718843E+02 -0.11618216199E+02  0.16923399673E+03  0.17545325918E+03  0.00000000000E+00 0. -1.
<scales pt_clust_5="13000.00000" pt_clust_6="13000.00000" pt_clust_7="13000.00000" pt_clust_8="13000.00000" pt_clust_9="13000.00000"></scales>
<clustering>
<clus scale="   81.111">  5  6 -1 -1</clus>
<clus scale="   96.181">  7  8 -1 -1</clus>
<clus scale="   46.300">  7  9 -1 -1</clus>
<clus scale="  219.513">  1  5  2 -1</clus>
<clus scale="  302.060">  2  5  1 -1</clus>
</clustering>
</event>
<event>
 9    2  0.4178938E-005  0.8116191E+03  0.7546771E-02  0.9779334E-01
          2   -1    0    0  502    0 -0.00000000000E+00  0.00000000000E+00  0.64366676012E+03  0.64366676012E+03  0.00000000000E+00 0. -1.
         21   -1    0    0  501  502  0.00000000000E+00 -0.00000000000E+00 -0.65314464174E+03  0.65314464174E+03  0.00000000000E+00 0. -1.
         24    2    1    2    0    0  0.34343980287E+03 -0.95525423230E+02  0.25225209903E+03  0.44403468855E+03  0.80372125082E+02 0.  0.
         23    2    1    2    0    0  0.26049770489E+02  0.31072551356E+03 -0.27320106910E+03  0.42503238598E+03  0.93727102013E+02 0.  0.
        -11    1    3    3    0    0  0.10860991996E+03  0.28678080256E+00  0.10338518263E+03  0.14994896780E+03  0.00000000000E+00 0.  1.
         12    1    3    3    0    0  0.23482988291E+03 -0.95812204032E+02  0.14886691640E+03  0.29408572075E+03  0.00000000000E+00 0. -1.
        -11    1    4    4    0    0  0.45233453669E+02  0.20748260438E+03 -0.13566939385E+03  0.25199460486E+03  0.00000000000E+00 0. -1.
         11    1    4    4    0    0 -0.19183683180E+02  0.10324290918E+03 -0.13753167525E+03  0.17303778112E+03  0.00000000000E+00 0.  1.
          1    1    1    2  501    0 -0.36948957336E+03 -0.21520009033E+03  0.11471088452E+02  0.42774432734E+03  0.00000000000E+00 0. -1.
<scales pt_clust_5="13000.00000" pt_clust_6="13000.00000" pt_clust_7="13000.00000" pt_clust_8="13000.00000" pt_clust_9="13000.00000"></scales>
<clustering>
<clus scale="   80.372">  5  6 -1 -1</clus>
<clus scale="   93.727">  7  8 -1 -1</clus>
<clus scale="  365.425">  1  5  2 -1</clus>
<clus scale="  308.158">  7  9 -1 -1</clus>
<clus scale="  811.619">  2  5  1 -1</clus>
</clustering>
</event>
<event>
 9    2  0.4178938E-005  0.2443160E+03  0.7546771E-02  0.1158106E+00
          2   -1    0    0  502    0 -0.00000000000E+00  0.00000000000E+00  0.11495334367E+04  0.11495334367E+04  0.00000000000E+00 0. -1.
         21   -1    0    0  501  502  0.00000000000E+00 -0.00000000000E+00 -0.24335870675E+02  0.24335870675E+02  0.00000000000E+00 0. -1.
         24    2    1    2    0    0  0.31202593855E+02  0.25337554683E+02  0.29117197596E+03  0.30479567976E+03  0.80645478936E+02 0.  0.
         23    2    1    2    0    0  0.82706470255E+02  0.14182894457E+02  0.45195389938E+03  0.46842924964E+03  0.90122805295E+02 0.  0.
        -11    1    3    3    0    0  0.31490805951E+02  0.12267158360E+02  0.36330726691E+02  0.49619308092E+02  0.00000000000E+00 0.  1.
         12    1    3    3    0    0 -0.28821209650E+00  0.13070396323E+02  0.25484124927E+03  0.25517637166E+03  0.00000000000E+00 0. -1.
        -11    1    4    4    0    0 -0.79944400797E+01 -0.21017047617E+02  0.49267888022E+02  0.54156736911E+02  0.00000000000E+00 0.  1.
         11    1    4    4    0    0  0.90700910335E+02  0.35199942073E+02  0.40268601136E+03  0.41427251273E+03  0.00000000000E+00 0. -1.
          1    1    1    2  501    0 -0.11390906411E+03 -0.39520449140E+02  0.38207169073E+03  0.40064437802E+03  0.00000000000E+00 0. -1.
<scales pt_clust_5="13000.00000" pt_clust_6="13000.00000" pt_clust_7="13000.00000" pt_clust_8="13000.00000" pt_clust_9="13000.00000"></scales>
<clustering>
<clus scale="   80.645">  5  6 -1 -1</clus>
<clus scale="   90.107">  1  5  2 -1</clus>
<clus scale="   90.123">  7  8 -1 -1</clus>
<clus scale="  103.397">  7  9 -1 -1</clus>
<clus scale="  244.316">  2  5  1 -1</clus>
</clustering>
</event>
<event>
 9    2  0.4178938E-005  0.1840347E+03  0.7546771E-02  0.1180769E+00
          2   -1    0    0  502    0 -0.00000000000E+00  0.00000000000E+00  0.13886384187E+04  0.13886384187E+04  0.00000000000E+00 0. -1.
         21   -1    0    0  501  502  0.00000000000E+00 -0.00000000000E+00 -0.17259473270E+02  0.17259473270E+02  0.00000000000E+00 0.  1.
         24    2    1    2    0    0 -0.87740581532E+02  0.39573034452E+02  0.53669676939E+03  0.55116805745E+03  0.80488325655E+02 0.  0.
         23    2    1    2    0    0  0.13470139219E+02 -0.27205998569E+00  0.31329804790E+03  0.32661803361E+03  0.91335395072E+02 0.  0.
        -11    1    3    3    0    0 -0.50782879375E+02  0.59990183583E+02  0.41439773266E+03  0.42178573209E+03  0.00000000000E+00 0.  1.
         12    1    3    3    0    0 -0.36957702156E+02 -0.20417149132E+02  0.12229903674E+03  0.12938232535E+03  0.00000000000E+00 0. -1.
        -13    1    4    4    0    0  0.18827115656E+01 -0.39342104166E+02  0.23571618436E+03  0.23898423658E+03  0.00000000000E+00 0.  1.
         13    1    4    4    0    0  0.11587427654E+02  0.39070044180E+02  0.77581863545E+02  0.87633797036E+02  0.00000000000E+00 0. -1.
          1    1    1    2  501    0  0.74270442312E+02 -0.39300974466E+02  0.52138412808E+03  0.52811180086E+03  0.00000000000E+00 0. -1.
<scales pt_clust_5="13000.00000" pt_clust_6="13000.00000" pt_clust_7="13000.00000" pt_clust_8="13000.00000" pt_clust_9="13000.00000"></scales>
<clustering>
<clus scale="   80.488">  5  6 -1 -1</clus>
<clus scale="   91.335">  7  8 -1 -1</clus>
<clus scale="   84.028">  7  9 -1 -1</clus>
<clus scale="  125.470">  1  5  2 -1</clus>
<clus scale="  184.035">  2  5  1 -1</clus>
</clustering>
</event>
<event>
 9    2  0.4178938E-005  0.2694887E+03  0.7546771E-02  0.1115599E+00
         -1   -1    0    0    0  501 -0.00000000000E+00  0.00000000000E+00  0.39229732472E+03  0.39229732472E+03  0.00000000000E+00 0.  1.
         21   -1    0    0  501  502  0.00000000000E+00 -0.00000000000E+00 -0.13602680511E+03  0.13602680511E+03  0.00000000000E+00 0.  1.
         24    2    1    2    0    0 -0.13648555259E+03  0.98946729519E+02  0.70974687525E+02  0.20127871418E+03  0.84005673419E+02 0.  0.
         23    2    1    2    0    0  0.12436592236E+03  0.87605975391E+01  0.74218049879E+02  0.17184867780E+03  0.92087015470E+02 0.  0.
        -13    1    3    3    0    0 -0.12995213356E+03  0.10686619087E+03  0.81173322127E+02  0.18680751589E+03  0.00000000000E+00 0.  1.
         14    1    3    3    0    0 -0.65334190313E+01 -0.79194613529E+01 -0.10198634602E+02  0.14471198295E+02  0.00000000000E+00 0. -1.
        -13    1    4    4    0    0  0.93911535900E+02 -0.32872896927E+02  0.30044044508E+02  0.10393579046E+03  0.00000000000E+00 0.  1.
         13    1    4    4    0    0  0.30454386462E+02  0.41633494466E+02  0.44174005370E+02  0.67912887339E+02  0.00000000000E+00 0. -1.
         -2    1    1    2    0  502  0.12119630227E+02 -0.10770732706E+03  0.11107778220E+03  0.15519673785E+03  0.00000000000E+00 0.  1.
<scales pt_clust_5="13000.00000" pt_clust_6="13000.00000" pt_clust_7="13000.00000" pt_clust_8="13000.00000" pt_clust_9="13000.00000"></scales>
<clustering>
<clus scale="   84.006">  5  6 -1 -1</clus>
<clus scale="   92.087">  7  8 -1 -1</clus>
<clus scale="  108.387">  7  9 -1 -1</clus>
<clus scale="  188.350">  1  5  2 -1</clus>
<clus scale="  269.489">  2  5  1 -1</clus>
</clustering>
</event>
<event>
 9    2  0.4178938E-005  0.1273435E+03  0.7546771E-02  0.1250256E+00
          4   -1    0    0  502    0 -0.00000000000E+00  0.00000000000E+00  0.55253738245E+03  0.55253738245E+03  0.00000000000E+00 0. -1.
         21   -1    0    0  501  502  0.00000000000E+00 -0.00000000000E+00 -0.53320622896E+02  0.53320622896E+02  0.00000000000E+00 0.  1.
         24    2    1    2    0    0  0.21176491843E+00 -0.32894795573E+02  0.46628495597E+03  0.47432527489E+03  0.80502756530E+02 0.  0.
         23    2    1    2    0    0  0.50375811267E+01 -0.73058909082E+01  0.15561273377E+02  0.87426198663E+02  0.85571220151E+02 0.  0.
        -13    1    3    3    0    0 -0.23650882030E+02  0.13856883102E+02  0.81721521273E+02  0.86196197534E+02  0.00000000000E+00 0.  1.
         14    1    3    3    0    0  0.23862646948E+02 -0.46751678675E+02  0.38456343470E+03  0.38812907735E+03  0.00000000000E+00 0. -1.
        -13    1    4    4    0    0 -0.16573181850E+02 -0.36469150350E+02  0.28202446694E+02  0.48990277437E+02  0.00000000000E+00 0. -1.
         13    1    4    4    0    0  0.21610762977E+02  0.29163259441E+02 -0.12641173317E+02  0.38435921226E+02  0.00000000000E+00 0.  1.
          3    1    1    2  501    0 -0.52493460452E+01  0.40200686481E+02  0.17370530203E+02  0.44106531795E+02  0.00000000000E+00 0. -1.
<scales pt_clust_5="13000.00000" pt_clust_6="13000.00000" pt_clust_7="13000.00000" pt_clust_8="13000.00000" pt_clust_9="13000.00000"></scales>
<clustering>
<clus scale="   80.503">  5  6 -1 -1</clus>
<clus scale="   85.571">  7  8 -1 -1</clus>
<clus scale="   40.542">  7  9 -1 -1</clus>
<clus scale="   86.964">  1  5  2 -1</clus>
<clus scale="  127.343">  2  5  1 -1</clus>
</clustering>
</event>
<event>
 9    2  0.4178938E-005  0.5721950E+03  0.7546771E-02  0.1004620E+00
          2   -1    0    0  502    0 -0.00000000000E+00  0.00000000000E+00  0.10204802184E+04  0.10204802184E+04  0.00000000000E+00 0. -1.
         21   -1    0    0  501  502  0.00000000000E+00 -0.00000000000E+00 -0.26344003461E+03  0.26344003461E+03  0.00000000000E+00 0. -1.
         24    2    1    2    0    0  0.22887422463E+03  0.37043709812E+03  0.46254848985E+03  0.64038901271E+03  0.80869819873E+02 0.  0.
         23    2    1    2    0    0 -0.14303963943E+03 -0.42577749735E+02  0.24119501775E+03  0.30045710249E+03  0.99127345509E+02 0.  0.
        -13    1    3    3    0    0  0.23072121430E+02  0.35280504012E+02  0.86576671695E+02  0.96294116292E+02  0.00000000000E+00 0.  1.
         14    1    3    3    0    0  0.20580210320E+03  0.33515659410E+03  0.37597181816E+03  0.54409489641E+03  0.00000000000E+00 0. -1.
        -11    1    4    4    0    0 -0.42553581278E+02 -0.61097356480E+02  0.12704885558E+03  0.14725863626E+03  0.00000000000E+00 0.  1.
         11    1    4    4    0    0 -0.10048605815E+03  0.18519606746E+02  0.11414616217E+03  0.15319846623E+03  0.00000000000E+00 0. -1.
          1    1    1    2  501    0 -0.85834585201E+02 -0.32785934838E+03  0.53296676174E+02  0.34307413780E+03  0.00000000000E+00 0. -1.
<scales pt_clust_5="13000.00000" pt_clust_6="13000.00000" pt_clust_7="13000.00000" pt_clust_8="13000.00000" pt_clust_9="13000.00000"></scales>
<clustering>
<clus scale="   80.870">  5  6 -1 -1</clus>
<clus scale="   99.127">  7  8 -1 -1</clus>
<clus scale="  338.909">  7  9 -1 -1</clus>
<clus scale="  442.885">  1  5  2 -1</clus>
<clus scale="  572.195">  2  5  1 -1</clus>
</clustering>
</event>
<event>
 9    2  0.4178938E-005  0.3485645E+03  0.7546771E-02  0.1110526E+00
         -3   -1    0    0    0  501 -0.00000000000E+00  0.00000000000E+00  0.52904656995E+02  0.52904656995E+02  0.00000000000E+00 0.  1.
         21   -1    0    0  501  502  0.00000000000E+00 -0.00000000000E+00 -0.10020030455E+04  0.10020030455E+04  0.00000000000E+00 0.  1.
         24    2    1    2    0    0 -0.60045320460E+02  0.12160891995E+02 -0.12022992256E+03  0.15573023114E+03  0.77738940111E+02 0.  0.
         23    2    1    2    0    0 -0.10463353775E+03  0.64463084326E+02 -0.26915078508E+03  0.31072675773E+03  0.94896292860E+02 0.  0.
        -13    1    3    3    0    0 -0.41343040109E+02  0.44899385615E+02 -0.79514801441E+02  0.10023874222E+03  0.00000000000E+00 0.  1.
         14    1    3    3    0    0 -0.18702280352E+02 -0.32738493620E+02 -0.40715121121E+02  0.55491488922E+02  0.00000000000E+00 0. -1.
        -11    1    4    4    0    0 -0.20244351282E+02  0.44096252177E+02 -0.17946005384E+03  0.18590380345E+03  0.00000000000E+00 0.  1.
         11    1    4    4    0    0 -0.84389186464E+02  0.20366832150E+02 -0.89690731243E+02  0.12482295428E+03  0.00000000000E+00 0. -1.
         -4    1    1    2    0  502  0.16467885821E+03 -0.76623976321E+02 -0.55971768083E+03  0.58845071359E+03  0.00000000000E+00 0.  1.
<scales pt_clust_5="13000.00000" pt_clust_6="13000.00000" pt_clust_7="13000.00000" pt_clust_8="13000.00000" pt_clust_9="13000.00000"></scales>
<clustering>
<clus scale="   77.739">  5  6 -1 -1</clus>
<clus scale="   94.896">  7  8 -1 -1</clus>
<clus scale="   98.978">  1  5  2 -1</clus>
<clus scale="  157.396">  7  9 -1 -1</clus>
<clus scale="  348.564">  2  5  1 -1</clus>
</clustering>
</event>
<event>
 9    2  0.4178938E-005  0.2903397E+03  0.7546771E-02  0.1138003E+00
          2   -1    0    0  502    0 -0.00000000000E+00  0.00000000000E+00  0.84617194408E+03  0.84617194408E+03  0.00000000000E+00 0. -1.
         21   -1    0    0  501  502  0.00000000000E+00 -0.00000000000E+00 -0.45744645755E+02  0.45744645755E+02  0.00000000000E+00 0. -1.
         24    2    1    2    0    0 -0.51410097024E+01  0.30624293110E+02  0.31118958467E+03  0.32301351400E+03  0.80836225210E+02 0.  0.
         23    2    1    2    0    0  0.81107373591E+02  0.51154165352E+02  0.11164389248E+03  0.17515734761E+03  0.94976749837E+02 0.  0.
        -11    1    3    3    0    0 -0.60823772973E+01 -0.21750604590E+02  0.33343200329E+02  0.40272237606E+02  0.00000000000E+00 0.  1.
         12    1    3    3    0    0  0.94136759490E+00  0.52374897700E+02  0.27784638435E+03  0.28274127639E+03  0.00000000000E+00 0. -1.
        -13    1    4    4    0    0  0.60613681726E+02  0.68974941613E+02  0.43112541539E+02  0.10144088042E+03  0.00000000000E+00 0. -1.
         13    1    4    4    0    0  0.20493691864E+02 -0.17820776261E+02  0.68531350937E+02  0.73716467184E+02  0.00000000000E+00 0.  1.
          1    1    1    2  501    0 -0.75966363888E+02 -0.81778458462E+02  0.37759382117E+03  0.39374572823E+03  0.00000000000E+00 0. -1.
<scales pt_clust_5="13000.00000" pt_clust_6="13000.00000" pt_clust_7="13000.00000" pt_clust_8="13000.00000" pt_clust_9="13000.00000"></scales>
<clustering>
<clus scale="   80.836">  5  6 -1 -1</clus>
<clus scale="   86.595">  1  5  2 -1</clus>
<clus scale="   94.977">  7  8 -1 -1</clus>
<clus scale="   99.444">  7  9 -1 -1</clus>
<clus scale="  290.340">  2  5  1 -1</clus>
</clustering>
</event>
<event>
 9    2  0.4178938E-005  0.1225815E+03  0.7546771E-02  0.1257332E+00
         21   -1    0    0  501  502  0.00000000000E+00  0.00000000000E+00  0.50551445876E+02  0.50551445876E+02  0.00000000000E+00 0. -1.
          2   -1    0    0  502    0 -0.00000000000E+00 -0.00000000000E+00 -0.25779905516E+03  0.25779905516E+03  0.00000000000E+00 0. -1.
         24    2    1    2    0    0  0.25789550983E+02 -0.12145903726E+02 -0.24306235158E+02  0.88137510017E+02  0.79779719774E+02 0.  0.
         23    2    1    2    0    0 -0.10040116363E+02  0.30119291085E+02 -0.15570036933E+03  0.18397544576E+03  0.92716686747E+02 0.  0.
        -11    1    3    3    0    0  0.89075179615E+01 -0.33924478426E+02 -0.42510101740E+02  0.55111912167E+02  0.00000000000E+00 0.  1.
         12    1    3    3    0    0  0.16882033021E+02  0.21778574700E+02  0.18203866582E+02  0.33025597851E+02  0.00000000000E+00 0. -1.
        -13    1    4    4    0    0 -0.22961808430E+02 -0.29181165145E+02 -0.64546017570E+02  0.74464578356E+02  0.00000000000E+00 0.  1.
         13    1    4    4    0    0  0.12921692067E+02  0.59300456230E+02 -0.91154351756E+02  0.10951086740E+03  0.00000000000E+00 0. -1.
          1    1    1    2  501    0 -0.15749434620E+02 -0.17973387359E+02 -0.27241004797E+02  0.36237545258E+02  0.00000000000E+00 0. -1.
<scales pt_clust_5="13000.00000" pt_clust_6="13000.00000" pt_clust_7="13000.00000" pt_clust_8="13000.00000" pt_clust_9="13000.00000"></scales>
<clustering>
<clus scale="   79.780">  5  6 -1 -1</clus>
<clus scale="   84.720">  2  5  1 -1</clus>
<clus scale="   92.717">  7  8 -1 -1</clus>
<clus scale="   23.067">  7  9 -1 -1</clus>
<clus scale="  122.581">  1  5  2 -1</clus>
</clustering>
</event>
<event>
 9    2  0.4178938E-005  0.4505517E+03  0.7546771E-02  0.1088385E+00
          4   -1    0    0  502    0 -0.00000000000E+00  0.00000000000E+00  0.48753270035E+03  0.48753270035E+03  0.00000000000E+00 0. -1.
         21   -1    0    0  501  502  0.00000000000E+00 -0.00000000000E+00 -0.18230629895E+03  0.18230629895E+03  0.00000000000E+00 0. -1.
         24    2    1    2    0    0 -0.67392686625E+01  0.81045471157E+01  0.18709425433E+03  0.20405789996E+03  0.80772923084E+02 0.  0.
         23    2    1    2    0    0 -0.15893859861E+02  0.75590510686E+02 -0.14589385541E+03  0.18788390398E+03  0.89715128281E+02 0.  0.
        -11    1    3    3    0    0  0.34868157828E+02 -0.91711300611E+01  0.92679847973E+02  0.99445725284E+02  0.00000000000E+00 0.  1.
         12    1    3    3    0    0 -0.41607426491E+02  0.17275677177E+02  0.94414406362E+02  0.10461217467E+03  0.00000000000E+00 0. -1.
        -11    1    4    4    0    0 -0.34735697197E+02  0.18139440554E+02 -0.12018357222E+02  0.40988399257E+02  0.00000000000E+00 0.  1.
         11    1    4    4    0    0  0.18841837336E+02  0.57451070132E+02 -0.13387549819E+03  0.14689550472E+03  0.00000000000E+00 0. -1.
          3    1    1    2  501    0  0.22633128524E+02 -0.83695057802E+02  0.26402600248E+03  0.27789719536E+03  0.00000000000E+00 0. -1.
<scales pt_clust_5="13000.00000" pt_clust_6="13000.00000" pt_clust_7="13000.00000" pt_clust_8="13000.00000" pt_clust_9="13000.00000"></scales>
<clustering>
<clus scale="   80.773">  5  6 -1 -1</clus>
<clus scale="   81.458">  1  5  2 -1</clus>
<clus scale="   89.715">  7  8 -1 -1</clus>
<clus scale="   77.914">  7  9 -1 -1</clus>
<clus scale="  450.552">  2  5  1 -1</clus>
</clustering>
</event>
<event>
 9    2  0.4178938E-005  0.2354061E+03  0.7546771E-02  0.1166555E+00
         21   -1    0    0  501  502  0.00000000000E+00  0.00000000000E+00  0.66494596469E+02  0.66494596469E+02  0.00000000000E+00 0. -1.
          2   -1    0    0  502    0 -0.00000000000E+00 -0.00000000000E+00 -0.40218505473E+03  0.40218505473E+03  0.00000000000E+00 0. -1.
         24    2    1    2    0    0  0.98754363901E+00  0.21241839762E+02 -0.43771609246E+02  0.93669461290E+02  0.80036386746E+02 0.  0.
         23    2    1    2    0    0 -0.61555148484E+02  0.67181950377E+02 -0.17592264125E+03  0.21707880723E+03  0.88724191082E+02 0.  0.
        -13    1    3    3    0    0 -0.15382381726E+02 -0.26108342557E+02 -0.27697919776E+02  0.41054086015E+02  0.00000000000E+00 0.  1.
         14    1    3    3    0    0  0.16369925365E+02  0.47350182319E+02 -0.16073689471E+02  0.52615375275E+02  0.00000000000E+00 0. -1.
        -13    1    4    4    0    0 -0.75731889035E+02  0.20745170463E+02 -0.11294319167E+03  0.13755669980E+03  0.00000000000E+00 0. -1.
         13    1    4    4    0    0  0.14176740551E+02  0.46436779914E+02 -0.62979449584E+02  0.79522107437E+02  0.00000000000E+00 0.  1.
          1    1    1    2  501    0  0.60567604845E+02 -0.88423790139E+02 -0.11599620776E+03  0.15793138268E+03  0.00000000000E+00 0. -1.
<scales pt_clust_5="13000.00000" pt_clust_6="13000.00000" pt_clust_7="13000.00000" pt_clust_8="13000.00000" pt_clust_9="13000.00000"></scales>
<clustering>
<clus scale="   80.036">  5  6 -1 -1</clus>
<clus scale="   82.813">  2  5  1 -1</clus>
<clus scale="   88.724">  7  8 -1 -1</clus>
<clus scale="  100.348">  7  9 -1 -1</clus>
<clus scale="  235.406">  1  5  2 -1</clus>
</clustering>
</event>
<event>
 9    2  0.4178938E-005  0.1847305E+03  0.7546771E-02  0.1186314E+00
         21   -1    0    0  501  502  0.00000000000E+00  0.00000000000E+00  0.88998312702E+02  0.88998312702E+02  0.00000000000E+00 0.  1.
          2   -1    0    0  502    0 -0.00000000000E+00 -0.00000000000E+00 -0.24408897661E+03  0.24408897661E+03  0.00000000000E+00 0. -1.
         24    2    1    2    0    0  0.19487414456E+01 -0.74488730614E+02 -0.66638340408E+02  0.12827232722E+03  0.80378808993E+02 0.  0.
         23    2    1    2    0    0 -0.55780146202E+02  0.44764791047E+02 -0.86044923761E+02  0.14327531394E+03  0.89491761920E+02 0.  0.
        -13    1    3    3    0    0  0.33933383793E+02 -0.23284465933E+02 -0.41164006462E+01  0.41359226826E+02  0.00000000000E+00 0.  1.
         14    1    3    3    0    0 -0.31984642347E+02 -0.51204264682E+02 -0.62521939762E+02  0.86913100389E+02  0.00000000000E+00 0. -1.
        -11    1    4    4    0    0 -0.24055963563E+01 -0.21818280278E+02 -0.41655399999E+02  0.47084993334E+02  0.00000000000E+00 0. -1.
         11    1    4    4    0    0 -0.53374549845E+02  0.66583071326E+02 -0.44389523762E+02  0.96190320605E+02  0.00000000000E+00 0.  1.
          1    1    1    2  501    0  0.53831404756E+02  0.29723939567E+02 -0.24073997353E+01  0.61539648154E+02  0.00000000000E+00 0. -1.
<scales pt_clust_5="13000.00000" pt_clust_6="13000.00000" pt_clust_7="13000.00000" pt_clust_8="13000.00000" pt_clust_9="13000.00000"></scales>
<clustering>
<clus scale="   80.379">  5  6 -1 -1</clus>
<clus scale="   89.492">  7  8 -1 -1</clus>
<clus scale="   61.493">  7  9 -1 -1</clus>
<clus scale="  109.604">  2  5  1 -1</clus>
<clus scale="  184.730">  1  5  2 -1</clus>
</clustering>
</event>
<event>
 9    2  0.4178938E-005  0.4357930E+03  0.7546771E-02  0.1058974E+00
          2   -1    0    0  502    0 -0.00000000000E+00  0.00000000000E+00  0.12199669755E+04  0.12199669755E+04  0.00000000000E+00 0. -1.
         21   -1    0    0  501  502  0.00000000000E+00 -0.00000000000E+00 -0.10299154155E+03  0.10299154155E+03  0.00000000000E+00 0. -1.
         24    2    1    2    0    0  0.12414386811E+03 -0.13492351941E+03  0.66698022322E+03  0.69653114040E+03  0.81712638608E+02 0.  0.
         23    2    1    2    0    0  0.82922679093E+02 -0.12489192812E+02  0.31444653436E+03  0.33836400453E+03  0.92635986207E+02 0.  0.
        -11    1    3    3    0    0 -0.11438535896E+02 -0.19673152491E+02  0.72066540887E+02  0.75574197632E+02  0.00000000000E+00 0.  1.
         12    1    3    3    0    0  0.13558240400E+03 -0.11525036692E+03  0.59491368233E+03  0.62095694277E+03  0.00000000000E+00 0. -1.
        -13    1    4    4    0    0  0.52926182905E+02 -0.33325436652E+02  0.28402790766E+03  0.29083262866E+03  0.00000000000E+00 0.  1.
         13    1    4    4    0    0  0.29996496188E+02  0.20836243840E+02  0.30418626703E+02  0.47531375863E+02  0.00000000000E+00 0. -1.
          1    1    1    2  501    0 -0.20706654720E+03  0.14741271222E+03  0.13554867636E+03  0.28806337212E+03  0.00000000000E+00 0. -1.
<scales pt_clust_5="13000.00000" pt_clust_6="13000.00000" pt_clust_7="13000.00000" pt_clust_8="13000.00000" pt_clust_9="13000.00000"></scales>
<clustering>
<clus scale="   81.713">  5  6 -1 -1</clus>
<clus scale="   92.636">  7  8 -1 -1</clus>
<clus scale="  200.731">  1  5  2 -1</clus>
<clus scale="  184.191">  7  9 -1 -1</clus>
<clus scale="  435.793">  2  5  1 -1</clus>
</clustering>
</event>
<event>
 9    2  0.4178938E-005  0.3483717E+03  0.7546771E-02  0.1107849E+00
          2   -1    0    0  502    0 -0.00000000000E+00  0.00000000000E+00  0.26680994444E+03  0.26680994444E+03  0.00000000000E+00 0. -1.
         21   -1    0    0  501  502  0.00000000000E+00 -0.00000000000E+00 -0.20595128288E+03  0.20595128288E+03  0.00000000000E+00 0. -1.
         24    2    1    2    0    0 -0.65342556886E+02 -0.62381990133E+01  0.64800373439E+02  0.12436724327E+03  0.83423964984E+02 0.  0.
         23    2    1    2    0    0  0.48608280078E+02 -0.12975462821E+03 -0.83487097102E+02  0.18995928649E+03  0.99576135239E+02 0.  0.
        -11    1    3    3    0    0 -0.19077965693E+02  0.16243148214E+02 -0.15164155102E+02  0.29287544091E+02  0.00000000000E+00 0.  1.
         12    1    3    3    0    0 -0.46264591193E+02 -0.22481347227E+02  0.79964528541E+02  0.95079699180E+02  0.00000000000E+00 0. -1.
        -11    1    4    4    0    0  0.50730027505E+01 -0.66587311663E+02  0.11603125007E+02  0.67780808060E+02  0.00000000000E+00 0.  1.
         11    1    4    4    0    0  0.43535277328E+02 -0.63167316547E+02 -0.95090222110E+02  0.12217847843E+03  0.00000000000E+00 0. -1.
          1    1    1    2  501    0  0.16734276807E+02  0.13599282722E+03  0.79545385222E+02  0.15843469755E+03  0.00000000000E+00 0. -1.
<scales pt_clust_5="13000.00000" pt_clust_6="13000.00000" pt_clust_7="13000.00000" pt_clust_8="13000.00000" pt_clust_9="13000.00000"></scales>
<clustering>
<clus scale="   83.424">  5  6 -1 -1</clus>
<clus scale="   99.576">  7  8 -1 -1</clus>
<clus scale="  106.151">  1  5  2 -1</clus>
<clus scale="  134.713">  7  9 -1 -1</clus>
<clus scale="  348.372">  2  5  1 -1</clus>
</clustering>
</event>
<event>
 9    2  0.4178938E-005  0.1334384E+03  0.7546771E-02  0.1238296E+00
          2   -1    0    0  502    0 -0.00000000000E+00  0.00000000000E+00  0.12439727158E+03  0.12439727158E+03  0.00000000000E+00 0. -1.
         21   -1    0    0  501  502  0.00000000000E+00 -0.00000000000E+00 -0.10803572962E+03  0.10803572962E+03  0.00000000000E+00 0. -1.
         24    2    1    2    0    0  0.33084399401E+02  0.39863308633E+02 -0.89444075229E+01  0.96616259918E+02  0.81061941721E+02 0.  0.
         23    2    1    2    0    0 -0.42644093185E+01 -0.27624374854E+02  0.38547403373E+01  0.97862325165E+02  0.93706373266E+02 0.  0.
        -11    1    3    3    0    0  0.20992588434E+02 -0.23548814324E+02 -0.50004513226E+01  0.31941195010E+02  0.00000000000E+00 0.  1.
         12    1    3    3    0    0  0.12091810967E+02  0.63412122956E+02 -0.39439562003E+01  0.64675064908E+02  0.00000000000E+00 0. -1.
        -13    1    4    4    0    0  0.19942027857E+02  0.18651230953E+02  0.29058600196E+02  0.39874241516E+02  0.00000000000E+00 0.  1.
         13    1    4    4    0    0 -0.24206437175E+02 -0.46275605806E+02 -0.25203859859E+02  0.57988083649E+02  0.00000000000E+00 0. -1.
          1    1    1    2  501    0 -0.28819990083E+02 -0.12238933779E+02  0.21451209146E+02  0.37954416110E+02  0.00000000000E+00 0. -1.
<scales pt_clust_5="13000.00000" pt_clust_6="13000.00000" pt_clust_7="13000.00000" pt_clust_8="13000.00000" pt_clust_9="13000.00000"></scales>
<clustering>
<clus scale="   81.062">  5  6 -1 -1</clus>
<clus scale="   93.706">  7  8 -1 -1</clus>
<clus scale="   31.311">  7  9 -1 -1</clus>
<clus scale="   96.201">  1  5  2 -1</clus>
<clus scale="  133.438">  2  5  1 -1</clus>
</clustering>
</event>
<event>
 9    2  0.4178938E-005  0.3038563E+03  0.7546771E-02  0.1121921E+00
          2   -1    0    0  502    0 -0.00000000000E+00  0.00000000000E+00  0.67893517641E+03  0.67893517641E+03  0.00000000000E+00 0. -1.
         21   -1    0    0  501  502  0.00000000000E+00 -0.00000000000E+00 -0.76720626974E+02  0.76720626974E+02  0.00000000000E+00 0. -1.
         24    2    1    2    0    0  0.47893338850E+01  0.79180965968E+02  0.32698581067E+03  0.34568082561E+03  0.79265059896E+02 0.  0.
         23    2    1    2    0    0 -0.29892415706E+02 -0.16897758563E+03  0.24366117757E+03  0.31153662885E+03  0.90759686530E+02 0.  0.
        -11    1    3    3    0    0 -0.24092193384E+02 -0.70243135350E+00  0.11110783923E+03  0.11369203636E+03  0.00000000000E+00 0.  1.
         12    1    3    3    0    0  0.28881527269E+02  0.79883397321E+02  0.21587797144E+03  0.23198878925E+03  0.00000000000E+00 0. -1.
        -11    1    4    4    0    0 -0.21812581397E+02 -0.10640126197E+02  0.80311690446E+02  0.83898561460E+02  0.00000000000E+00 0.  1.
         11    1    4    4    0    0 -0.80798343083E+01 -0.15833745943E+03  0.16334948712E+03  0.22763806739E+03  0.00000000000E+00 0. -1.
          1    1    1    2  501    0  0.25103081821E+02  0.89796619661E+02  0.31567561193E+02  0.98438348925E+02  0.00000000000E+00 0. -1.
<scales pt_clust_5="13000.00000" pt_clust_6="13000.00000" pt_clust_7="13000.00000" pt_clust_8="13000.00000" pt_clust_9="13000.00000"></scales>
<clustering>
<clus scale="   79.265">  5  6 -1 -1</clus>
<clus scale="   90.760">  7  8 -1 -1</clus>
<clus scale="   93.240">  7  9 -1 -1</clus>
<clus scale="  112.141">  1  5  2 -1</clus>
<clus scale="  303.856">  2  5  1 -1</clus>
</clustering>
</event>
<event>
 9    2  0.4178938E-005  0.2344110E+03  0.7546771E-02  0.1166028E+00
         21   -1    0    0  501  502  0.00000000000E+00  0.00000000000E+00  0.57346271561E+02  0.57346271561E+02  0.00000000000E+00 0.  1.
         -1   -1    0    0    0  501 -0.00000000000E+00 -0.00000000000E+00 -0.45577306207E+03  0.45577306207E+03  0.00000000000E+00 0.  1.
         24    2    1    2    0    0  0.27196637139E+02 -0.10426466100E+02 -0.14405618673E+03  0.16721048762E+03  0.79742046432E+02 0.  0.
         23    2    1    2    0    0 -0.64604232169E+01 -0.28477756119E+02 -0.16197149857E+02  0.10368968238E+03  0.98165589220E+02 0.  0.
        -13    1    3    3    0    0  0.51825668525E+02 -0.32827575469E+01 -0.12470225380E+03  0.13508267290E+03  0.00000000000E+00 0.  1.
         14    1    3    3    0    0 -0.24629031386E+02 -0.71437085533E+01 -0.19353932924E+02  0.32127814717E+02  0.00000000000E+00 0. -1.
        -11    1    4    4    0    0  0.24274647568E+02 -0.41037396351E+02 -0.40487723126E+02  0.62550636589E+02  0.00000000000E+00 0. -1.
         11    1    4    4    0    0 -0.30735070785E+02  0.12559640232E+02  0.24290573269E+02  0.41139045791E+02  0.00000000000E+00 0.  1.
         -2    1    1    2    0  502 -0.20736213922E+02  0.38904222220E+02 -0.23817345392E+03  0.24221916362E+03  0.00000000000E+00 0.  1.
<scales pt_clust_5="13000.00000" pt_clust_6="13000.00000" pt_clust_7="13000.00000" pt_clust_8="13000.00000" pt_clust_9="13000.00000"></scales>
<clustering>
<clus scale="   79.742">  5  6 -1 -1</clus>
<clus scale="   84.895">  2  5  1 -1</clus>
<clus scale="   98.166">  7  8 -1 -1</clus>
<clus scale="   30.577">  7  9 -1 -1</clus>
<clus scale="  234.411">  1  5  2 -1</clus>
</clustering>
</event>
<event>
 9    2  0.4178938E-005  0.2302733E+03  0.7546771E-02  0.1152228E+00
          2   -1    0    0  502    0 -0.00000000000E+00  0.00000000000E+00  0.86287301886E+02  0.86287301886E+02  0.00000000000E+00 0. -1.
         21   -1    0    0  501  502  0.00000000000E+00 -0.00000000000E+00 -0.61159013754E+03  0.61159013754E+03  0.00000000000E+00 0. -1.
         24    2    1    2    0    0 -0.93394234595E+02  0.29247864334E+01  0.84379320633E+00  0.12354646126E+03  0.80820657462E+02 0.  0.
         23    2    1    2    0    0  0.10578855739E+03  0.70475993014E+02 -0.36828301428E+03  0.39979669939E+03  0.89704725419E+02 0.  0.
        -11    1    3    3    0    0 -0.69754528191E+02 -0.22474648716E+02 -0.27972490256E+02  0.78442745038E+02  0.00000000000E+00 0.  1.
         12    1    3    3    0    0 -0.23639706404E+02  0.25399435149E+02  0.28816283462E+02  0.45103716225E+02  0.00000000000E+00 0. -1.
        -13    1    4    4    0    0 -0.73899039674E+01  0.36455143102E+02 -0.97106057977E+02  0.10398641563E+03  0.00000000000E+00 0. -1.
         13    1    4    4    0    0  0.11317846136E+03  0.34020849912E+02 -0.27117695631E+03  0.29581028376E+03  0.00000000000E+00 0.  1.
          1    1    1    2  501    0 -0.12394322799E+02 -0.73400779448E+02 -0.15786361458E+03  0.17453427878E+03  0.00000000000E+00 0. -1.
<scales pt_clust_5="13000.00000" pt_clust_6="13000.00000" pt_clust_7="13000.00000" pt_clust_8="13000.00000" pt_clust_9="13000.00000"></scales>
<clustering>
<clus scale="   80.821">  5  6 -1 -1</clus>
<clus scale="   89.705">  7  8 -1 -1</clus>
<clus scale="   74.440">  7  9 -1 -1</clus>
<clus scale="  123.544">  1  5  2 -1</clus>
<clus scale="  230.273">  2  5  1 -1</clus>
</clustering>
</event>
<event>
 9    2  0.4178938E-005  0.1914173E+03  0.7546771E-02  0.1174317E+00
         21   -1    0    0  501  502  0.00000000000E+00  0.00000000000E+00  0.38766506595E+02  0.38766506595E+02  0.00000000000E+00 0. -1.
          2   -1    0    0  502    0 -0.00000000000E+00 -0.00000000000E+00 -0.67044228966E+03  0.67044228966E+03  0.00000000000E+00 0. -1.
         24    2    1    2    0    0  0.83121633862E+02 -0.56248080914E+02 -0.29399377121E+03  0.32104680352E+03  0.81028759813E+02 0.  0.
         23    2    1    2    0    0 -0.84943692513E+02  0.18986133279E+02 -0.15134748190E+03  0.19812954895E+03  0.93666182443E+02 0.  0.
        -11    1    3    3    0    0 -0.56759774598E+01 -0.35546422024E+02 -0.10925526742E+03  0.11503250974E+03  0.00000000000E+00 0.  1.
         12    1    3    3    0    0  0.88797611322E+02 -0.20701658890E+02 -0.18473850380E+03  0.20601429378E+03  0.00000000000E+00 0. -1.
        -13    1    4    4    0    0 -0.24904272710E+02  0.52864239688E+02 -0.78112604527E+02  0.97552189227E+02  0.00000000000E+00 0.  1.
         13    1    4    4    0    0 -0.60039419803E+02 -0.33878106409E+02 -0.73234877374E+02  0.10057735972E+03  0.00000000000E+00 0. -1.
          1    1    1    2  501    0  0.18220586507E+01  0.37261947635E+02 -0.18633452995E+03  0.19003244379E+03  0.00000000000E+00 0. -1.
<scales pt_clust_5="13000.00000" pt_clust_6="13000.00000" pt_clust_7="13000.00000" pt_clust_8="13000.00000" pt_clust_9="13000.00000"></scales>
<clustering>
<clus scale="   81.029">  5  6 -1 -1</clus>
<clus scale="   93.666">  7  8 -1 -1</clus>
<clus scale="   37.306">  7  9 -1 -1</clus>
<clus scale="  128.991">  2  5  1 -1</clus>
<clus scale="  191.417">  1  5  2 -1</clus>
</clustering>
</event>
<event>
 9    2  0.4178938E-005  0.7375741E+03  0.7546771E-02  0.1031908E+00
         21   -1    0    0  501  502  0.00000000000E+00  0.00000000000E+00  0.35073384301E+03  0.35073384301E+03  0.00000000000E+00 0. -1.
          2   -1    0    0  502    0 -0.00000000000E+00 -0.00000000000E+00 -0.62354377247E+03  0.62354377247E+03  0.00000000000E+00 0. -1.
         24    2    1    2    0    0 -0.53929967866E+02  0.10002751777E+02 -0.21649689562E+03  0.23455692691E+03  0.71676702427E+02 0.  0.
         23    2    1    2    0    0 -0.84189867704E+02 -0.95954912523E+02 -0.36134399945E+03  0.39402030833E+03  0.91581867098E+02 0.  0.
        -13    1    3    3    0    0 -0.19850115736E+02  0.32207981254E+02 -0.47457989833E+02  0.60693014015E+02  0.00000000000E+00 0.  1.
         14    1    3    3    0    0 -0.34079852130E+02 -0.22205229477E+02 -0.16903890579E+03  0.17386391289E+03  0.00000000000E+00 0. -1.
        -13    1    4    4    0    0 -0.44788992350E+02 -0.92696114579E+02 -0.32274558547E+03  0.33876737806E+03  0.00000000000E+00 0.  1.
         13    1    4    4    0    0 -0.39400875354E+02 -0.32587979437E+01 -0.38598413973E+02  0.55252930274E+02  0.00000000000E+00 0. -1.
          1    1    1    2  501    0  0.13811983557E+03  0.85952160746E+02  0.30503096561E+03  0.34570038024E+03  0.00000000000E+00 0. -1.
<scales pt_clust_5="13000.00000" pt_clust_6="13000.00000" pt_clust_7="13000.00000" pt_clust_8="13000.00000" pt_clust_9="13000.00000"></scales>
<clustering>
<clus scale="   71.677">  5  6 -1 -1</clus>
<clus scale="   90.255">  2  5  1 -1</clus>
<clus scale="   91.582">  7  8 -1 -1</clus>
<clus scale="  160.622">  7  9 -1 -1</clus>
<clus scale="  737.574">  1  5  2 -1</clus>
</clustering>
</event>
<event>
 9    2  0.4178938E-005  0.6848328E+03  0.7546771E-02  0.1030640E+00
          2   -1    0    0  502    0 -0.00000000000E+00  0.00000000000E+00  0.10664973821E+04  0.10664973821E+04  0.00000000000E+00 0. -1.
         21   -1    0    0  501  502  0.00000000000E+00 -0.00000000000E+00 -0.15190308734E+03  0.15190308734E+03  0.00000000000E+00 0. -1.
         24    2    1    2    0    0  0.73094921948E+02 -0.43190382497E+02  0.98160692445E+02  0.15277396078E+03  0.80598292760E+02 0.  0.
         23    2    1    2    0    0  0.10031068867E+03 -0.25066372149E+03  0.16247440781E+03  0.32800711609E+03  0.91083475346E+02 0.  0.
        -13    1    3    3    0    0  0.81610763471E+02 -0.47841685636E+02  0.10467357623E+03  0.14108756557E+03  0.00000000000E+00 0.  1.
         14    1    3    3    0    0 -0.85158415231E+01  0.46513031389E+01 -0.65128837832E+01  0.11686395206E+02  0.00000000000E+00 0. -1.
        -13    1    4    4    0    0  0.37560620071E+02 -0.40065936579E+02  0.33979719410E+00  0.54919895450E+02  0.00000000000E+00 0.  1.
         13    1    4    4    0    0  0.62750068599E+02 -0.21059778491E+03  0.16213461061E+03  0.27308722064E+03  0.00000000000E+00 0. -1.
          1    1    1    2  501    0 -0.17340561062E+03  0.29385410398E+03  0.65395919448E+03  0.73761939255E+03  0.00000000000E+00 0. -1.
<scales pt_clust_5="13000.00000" pt_clust_6="13000.00000" pt_clust_7="13000.00000" pt_clust_8="13000.00000" pt_clust_9="13000.00000"></scales>
<clustering>
<clus scale="   80.598">  5  6 -1 -1</clus>
<clus scale="   91.083">  7  8 -1 -1</clus>
<clus scale="  117.066">  1  5  2 -1</clus>
<clus scale="  287.834">  7  9 -1 -1</clus>
<clus scale="  684.833">  2  5  1 -1</clus>
</clustering>
</event>
<event>
 9    2  0.4178938E-005  0.3695383E+03  0.7546771E-02  0.1082543E+00
          2   -1    0    0  502    0 -0.00000000000E+00  0.00000000000E+00  0.42913346284E+03  0.42913346284E+03  0.00000000000E+00 0. -1.
         21   -1    0    0  501  502  0.00000000000E+00 -0.00000000000E+00 -0.18251613144E+03  0.18251613144E+03  0.00000000000E+00 0. -1.
         24    2    1    2    0    0 -0.40791781528E+02  0.14731492645E+03  0.99143097394E+01  0.17280238313E+03  0.79979454135E+02 0.  0.
         23    2    1    2    0    0  0.60507914170E+02 -0.73627872934E+02  0.30735706100E+03  0.33487365193E+03  0.92680787964E+02 0.  0.
        -11    1    3    3    0    0 -0.35743590230E+02  0.29887474606E+02  0.27278761697E+02  0.53990704946E+02  0.00000000000E+00 0.  1.
         12    1    3    3    0    0 -0.50481912982E+01  0.11742745184E+03 -0.17364451958E+02  0.11881167819E+03  0.00000000000E+00 0. -1.
        -11    1    4    4    0    0  0.17399046993E+01 -0.73800434549E+02  0.15902454726E+03  0.17532352392E+03  0.00000000000E+00 0.  1.
         11    1    4    4    0    0  0.58768009470E+02  0.17256161570E+00  0.14833251374E+03  0.15955012801E+03  0.00000000000E+00 0. -1.
          1    1    1    2  501    0 -0.19716132642E+02 -0.73687053516E+02 -0.70654039342E+02  0.10397355922E+03  0.00000000000E+00 0. -1.
<scales pt_clust_5="13000.00000" pt_clust_6="13000.00000" pt_clust_7="13000.00000" pt_clust_8="13000.00000" pt_clust_9="13000.00000"></scales>
<clustering>
<clus scale="   79.979">  5  6 -1 -1</clus>
<clus scale="   92.681">  7  8 -1 -1</clus>
<clus scale="   76.279">  7  9 -1 -1</clus>
<clus scale="  172.518">  1  5  2 -1</clus>
<clus scale="  369.538">  2  5  1 -1</clus>
</clustering>
</event>
<event>
 9    2  0.4178938E-005  0.4153514E+03  0.7546771E-02  0.1091379E+00
         21   -1    0    0  501  502  0.00000000000E+00  0.00000000000E+00  0.75888993483E+02  0.75888993483E+02  0.00000000000E+00 0.  1.
          2   -1    0    0  502    0 -0.00000000000E+00 -0.00000000000E+00 -0.10886214034E+04  0.10886214034E+04  0.00000000000E+00 0. -1.
         24    2    1    2    0    0  0.51056216989E+02 -0.10409500919E+02 -0.35041644967E+02  0.10225054628E+03  0.80697969802E+02 0.  0.
         23    2    1    2    0    0 -0.11285230359E+03  0.12132170703E+03 -0.20701490341E+03  0.28119547595E+03  0.93600889090E+02 0.  0.
        -11    1    3    3    0    0  0.50137456089E+02 -0.32397469270E+02  0.13647646826E+01  0.59709489202E+02  0.00000000000E+00 0.  1.
         12    1    3    3    0    0  0.91876090009E+00  0.21987968352E+02 -0.36406409650E+02  0.42541057079E+02  0.00000000000E+00 0. -1.
        -11    1    4    4    0    0  0.11734315319E+02  0.38843875270E+02 -0.51021939022E+02  0.65190329525E+02  0.00000000000E+00 0. -1.
         11    1    4    4    0    0 -0.12458661891E+03  0.82477831763E+02 -0.15599296438E+03  0.21600514642E+03  0.00000000000E+00 0.  1.
          1    1    1    2  501    0  0.61796086604E+02 -0.11091220611E+03 -0.77067586152E+03  0.78106437463E+03  0.00000000000E+00 0. -1.
<scales pt_clust_5="13000.00000" pt_clust_6="13000.00000" pt_clust_7="13000.00000" pt_clust_8="13000.00000" pt_clust_9="13000.00000"></scales>
<clustering>
<clus scale="   80.698">  5  6 -1 -1</clus>
<clus scale="   93.601">  7  8 -1 -1</clus>
<clus scale="   96.059">  2  5  1 -1</clus>
<clus scale="  155.717">  7  9 -1 -1</clus>
<clus scale="  415.351">  1  5  2 -1</clus>
</clustering>
</event>
<event>
 9    2  0.4178938E-005  0.2742473E+03  0.7546771E-02  0.1144544E+00
         21   -1    0    0  501  502  0.00000000000E+00  0.00000000000E+00  0.67243069565E+02  0.67243069565E+02  0.00000000000E+00 0.  1.
          2   -1    0    0  502    0 -0.00000000000E+00 -0.00000000000E+00 -0.48877803475E+03  0.48877803475E+03  0.00000000000E+00 0. -1.
         24    2    1    2    0    0  0.83554784054E+01 -0.17049141092E+02 -0.11568552002E+03  0.14522252693E+03  0.85708550068E+02 0.  0.
         23    2    1    2    0    0 -0.95883621041E+02  0.71236636754E+02 -0.99746178730E+02  0.18041624977E+03  0.91281957752E+02 0.  0.
        -13    1    3    3    0    0  0.35284321253E+02 -0.39018985970E+02 -0.76541927777E+02  0.92876968621E+02  0.00000000000E+00 0.  1.
         14    1    3    3    0    0 -0.26928842848E+02  0.21969844878E+02 -0.39143592240E+02  0.52345558308E+02  0.00000000000E+00 0. -1.
        -11    1    4    4    0    0 -0.25882171008E+02  0.54767604845E+02 -0.89068404688E+02  0.10771517085E+03  0.00000000000E+00 0.  1.
         11    1    4    4    0    0 -0.70001450033E+02  0.16469031909E+02 -0.10677774042E+02  0.72701078928E+02  0.00000000000E+00 0. -1.
          1    1    1    2  501    0  0.87528142636E+02 -0.54187495662E+02 -0.20610326644E+03  0.23038232761E+03  0.00000000000E+00 0. -1.
<scales pt_clust_5="13000.00000" pt_clust_6="13000.00000" pt_clust_7="13000.00000" pt_clust_8="13000.00000" pt_clust_9="13000.00000"></scales>
<clustering>
<clus scale="   85.709">  5  6 -1 -1</clus>
<clus scale="   87.786">  2  5  1 -1</clus>
<clus scale="   91.282">  7  8 -1 -1</clus>
<clus scale="  112.905">  7  9 -1 -1</clus>
<clus scale="  274.247">  1  5  2 -1</clus>
</clustering>
</event>
<event>
 9    2  0.4178938E-005  0.6541773E+03  0.7546771E-02  0.1046691E+00
         21   -1    0    0  501  502  0.00000000000E+00  0.00000000000E+00  0.10981574273E+03  0.10981574273E+03  0.00000000000E+00 0.  1.
         -3   -1    0    0    0  501 -0.00000000000E+00 -0.00000000000E+00 -0.14596202655E+04  0.14596202655E+04  0.00000000000E+00 0.  1.
         24    2    1    2    0    0  0.62778404922E+01  0.14835579560E+02 -0.44523133000E+03  0.45310247064E+03  0.82531242508E+02 0.  0.
         23    2    1    2    0    0 -0.63562525814E+02  0.28974826584E+03 -0.27471804990E+03  0.41435750163E+03  0.90707662126E+02 0.  0.
        -13    1    3    3    0    0  0.42745841179E+02 -0.24953909838E+01 -0.19608896777E+03  0.20070953439E+03  0.00000000000E+00 0.  1.
         14    1    3    3    0    0 -0.36468000687E+02  0.17330970544E+02 -0.24914236223E+03  0.25239293625E+03  0.00000000000E+00 0. -1.
        -13    1    4    4    0    0 -0.84098486880E+02  0.18973772615E+03 -0.19566337813E+03  0.28523169137E+03  0.00000000000E+00 0.  1.
         13    1    4    4    0    0  0.20535961066E+02  0.10001053969E+03 -0.79054671771E+02  0.12912581026E+03  0.00000000000E+00 0. -1.
         -4    1    1    2    0  502  0.57284685322E+02 -0.30458384540E+03 -0.62985514289E+03  0.70197603597E+03  0.00000000000E+00 0.  1.
<scales pt_clust_5="13000.00000" pt_clust_6="13000.00000" pt_clust_7="13000.00000" pt_clust_8="13000.00000" pt_clust_9="13000.00000"></scales>
<clustering>
<clus scale="   82.531">  5  6 -1 -1</clus>
<clus scale="   84.089">  2  5  1 -1</clus>
<clus scale="   90.708">  7  8 -1 -1</clus>
<clus scale="  301.138">  7  9 -1 -1</clus>
<clus scale="  654.177">  1  5  2 -1</clus>
</clustering>
</event>
<event>
 9    2  0.4178938E-005  0.1478915E+03  0.7546771E-02  0.1225103E+00
         21   -1    0    0  501  502  0.00000000000E+00  0.00000000000E+00  0.93358854765E+02  0.93358854765E+02  0.00000000000E+00 0.  1.
          2   -1    0    0  502    0 -0.00000000000E+00 -0.00000000000E+00 -0.31128777147E+03  0.31128777147E+03  0.00000000000E+00 0. -1.
         24    2    1    2    0    0 -0.15918578080E+02 -0.45472558934E+02 -0.23797753846E+03  0.25540236355E+03  0.79220601833E+02 0.  0.
         23    2    1    2    0    0  0.36053801058E+02  0.37000657987E+02 -0.12978985649E+02  0.10964599048E+03  0.95837695602E+02 0.  0.
        -11    1    3    3    0    0 -0.29761058484E+02 -0.16955074497E+02 -0.31592261016E+02  0.46596846561E+02  0.00000000000E+00 0.  1.
         12    1    3    3    0    0  0.13842480404E+02 -0.28517484436E+02 -0.20638527744E+03  0.20880551699E+03  0.00000000000E+00 0. -1.
        -13    1    4    4    0    0  0.39420819715E+02  0.63970832296E+02  0.76419870587E+01  0.75529255113E+02  0.00000000000E+00 0.  1.
         13    1    4    4    0    0 -0.33670186572E+01 -0.26970174309E+02 -0.20620972708E+02  0.34116735370E+02  0.00000000000E+00 0. -1.
          1    1    1    2  501    0 -0.20135222978E+02  0.84719009467E+01  0.33027607404E+02  0.39598272196E+02  0.00000000000E+00 0. -1.
<scales pt_clust_5="13000.00000" pt_clust_6="13000.00000" pt_clust_7="13000.00000" pt_clust_8="13000.00000" pt_clust_9="13000.00000"></scales>
<clustering>
<clus scale="   79.221">  5  6 -1 -1</clus>
<clus scale="   92.720">  2  5  1 -1</clus>
<clus scale="   95.838">  7  8 -1 -1</clus>
<clus scale="   21.832">  7  9 -1 -1</clus>
<clus scale="  147.892">  1  5  2 -1</clus>
</clustering>
</event>
<event>
 9    2  0.4178938E-005  0.5585915E+03  0.7546771E-02  0.1064383E+00
         21   -1    0    0  501  502  0.00000000000E+00  0.00000000000E+00  0.14855594187E+03  0.14855594187E+03  0.00000000000E+00 0. -1.
          2   -1    0    0  502    0 -0.00000000000E+00 -0.00000000000E+00 -0.69265841351E+03  0.69265841351E+03  0.00000000000E+00 0. -1.
         24    2    1    2    0    0  0.17602948616E+02  0.41719915192E+02 -0.85937310556E+02  0.11876035381E+03  0.68325582086E+02 0.  0.
         23    2    1    2    0    0  0.29138542078E+01  0.21890392144E+03 -0.57312625864E+02  0.24388480238E+03  0.90926576876E+02 0.  0.
        -13    1    3    3    0    0  0.24805136302E+02  0.14921634390E+02 -0.52359361347E+00  0.28952100271E+02  0.00000000000E+00 0.  1.
         14    1    3    3    0    0 -0.72021876856E+01  0.26798280802E+02 -0.85413716943E+02  0.89808253537E+02  0.00000000000E+00 0. -1.
        -13    1    4    4    0    0 -0.15740154313E+02  0.28356123039E+02 -0.40216684402E+02  0.51664338531E+02  0.00000000000E+00 0.  1.
         13    1    4    4    0    0  0.18654008521E+02  0.19054779840E+03 -0.17095941462E+02  0.19222046385E+03  0.00000000000E+00 0. -1.
          1    1    1    2  501    0 -0.20516802824E+02 -0.26062383663E+03 -0.40085253523E+03  0.47856919919E+03  0.00000000000E+00 0. -1.
<scales pt_clust_5="13000.00000" pt_clust_6="13000.00000" pt_clust_7="13000.00000" pt_clust_8="13000.00000" pt_clust_9="13000.00000"></scales>
<clustering>
<clus scale="   68.326">  5  6 -1 -1</clus>
<clus scale="   81.968">  2  5  1 -1</clus>
<clus scale="   90.927">  7  8 -1 -1</clus>
<clus scale="  229.667">  7  9 -1 -1</clus>
<clus scale="  558.592">  1  5  2 -1</clus>
</clustering>
</event>
<event>
 9    2  0.4178938E-005  0.3276259E+03  0.7546771E-02  0.1099693E+00
          2   -1    0    0  502    0 -0.00000000000E+00  0.00000000000E+00  0.33562910653E+03  0.33562910653E+03  0.00000000000E+00 0. -1.
         21   -1    0    0  501  502  0.00000000000E+00 -0.00000000000E+00 -0.18871010323E+03  0.18871010323E+03  0.00000000000E+00 0. -1.
         24    2    1    2    0    0 -0.11959499158E+03 -0.63585720725E+02  0.11535077568E+03  0.19519592635E+03  0.80309042599E+02 0.  0.
         23    2    1    2    0    0 -0.30532654164E+02 -0.72781759649E+02  0.42369728712E+02  0.12603968386E+03  0.88664426290E+02 0.  0.
        -11    1    3    3    0    0 -0.16097608867E+02 -0.24162903161E+02  0.69514483440E+02  0.75334204106E+02  0.00000000000E+00 0.  1.
         12    1    3    3    0    0 -0.10349738271E+03 -0.39422817564E+02  0.45836292236E+02  0.11986172224E+03  0.00000000000E+00 0. -1.
        -11    1    4    4    0    0  0.23453324864E+02 -0.53085941437E+02  0.35822351839E+02  0.68201294099E+02  0.00000000000E+00 0.  1.
         11    1    4    4    0    0 -0.53985979029E+02 -0.19695818212E+02  0.65473768728E+01  0.57838389765E+02  0.00000000000E+00 0. -1.
          1    1    1    2  501    0  0.15012764575E+03  0.13636748037E+03 -0.10801501086E+02  0.20310359954E+03  0.00000000000E+00 0. -1.
<scales pt_clust_5="13000.00000" pt_clust_6="13000.00000" pt_clust_7="13000.00000" pt_clust_8="13000.00000" pt_clust_9="13000.00000"></scales>
<clustering>
<clus scale="   80.309">  5  6 -1 -1</clus>
<clus scale="   88.664">  7  8 -1 -1</clus>
<clus scale="  157.466">  1  5  2 -1</clus>
<clus scale="  134.013">  7  9 -1 -1</clus>
<clus scale="  327.626">  2  5  1 -1</clus>
</clustering>
</event>
<event>
 9    2  0.4178938E-005  0.2513452E+03  0.7546771E-02  0.1129403E+00
          2   -1    0    0  502    0 -0.00000000000E+00  0.00000000000E+00  0.10545910081E+04  0.10545910081E+04  0.00000000000E+00 0. -1.
         21   -1    0    0  501  502  0.00000000000E+00 -0.00000000000E+00 -0.61027212462E+02  0.61027212462E+02  0.00000000000E+00 0. -1.
         24    2    1    2    0    0 -0.12262639539E+03 -0.74442487039E+02  0.11249429452E+03  0.19939888449E+03  0.80783860481E+02 0.  0.
         23    2    1    2    0    0  0.46987694389E+01 -0.10087097832E+02  0.19968529789E+03  0.21955829360E+03  0.90596899069E+02 0.  0.
        -11    1    3    3    0    0 -0.34700832897E+02  0.69779595082E+01  0.53173674790E+00  0.35399469863E+02  0.00000000000E+00 0.  1.
         12    1    3    3    0    0 -0.87925562491E+02 -0.81420446547E+02  0.11196255777E+03  0.16399941463E+03  0.00000000000E+00 0. -1.
        -13    1    4    4    0    0  0.38098748924E+02 -0.19625047972E+02  0.16498394875E+03  0.17045926352E+03  0.00000000000E+00 0.  1.
         13    1    4    4    0    0 -0.33399979485E+02  0.95379501399E+01  0.34701349140E+02  0.49099030078E+02  0.00000000000E+00 0. -1.
          1    1    1    2  501    0  0.11792762595E+03  0.84529584870E+02  0.68138420319E+03  0.69666104243E+03  0.00000000000E+00 0. -1.
<scales pt_clust_5="13000.00000" pt_clust_6="13000.00000" pt_clust_7="13000.00000" pt_clust_8="13000.00000" pt_clust_9="13000.00000"></scales>
<clustering>
<clus scale="   80.784">  5  6 -1 -1</clus>
<clus scale="   90.597">  7  8 -1 -1</clus>
<clus scale="  145.094">  7  9 -1 -1</clus>
<clus scale="  164.636">  1  5  2 -1</clus>
<clus scale="  251.345">  2  5  1 -1</clus>
</clustering>
</event>
<event>
 9    2  0.4178938E-005  0.5164276E+03  0.7546771E-02  0.1031252E+00
         21   -1    0    0  501  502  0.00000000000E+00  0.00000000000E+00  0.13877950513E+04  0.13877950513E+04  0.00000000000E+00 0.  1.
         -1   -1    0    0    0  501 -0.00000000000E+00 -0.00000000000E+00 -0.11690168899E+03  0.11690168899E+03  0.00000000000E+00 0.  1.
         24    2    1    2    0    0 -0.10638073528E+03 -0.23264956096E+03  0.28212014989E+03  0.38918344597E+03  0.80182894587E+02 0.  0.
         23    2    1    2    0    0  0.11147108129E+03 -0.37121613848E+02  0.83210879611E+02  0.17060825306E+03  0.91538567545E+02 0.  0.
        -11    1    3    3    0    0 -0.91077955137E+02 -0.16795703158E+03  0.15617310543E+03  0.24676871201E+03  0.00000000000E+00 0.  1.
         12    1    3    3    0    0 -0.15302780148E+02 -0.64692529380E+02  0.12594704446E+03  0.14241473395E+03  0.00000000000E+00 0. -1.
        -11    1    4    4    0    0  0.39189307990E+02  0.19696111509E+02 -0.37978620404E+01  0.44024566158E+02  0.00000000000E+00 0. -1.
         11    1    4    4    0    0  0.72281773304E+02 -0.56817725358E+02  0.87008741651E+02  0.12658368691E+03  0.00000000000E+00 0.  1.
         -2    1    1    2    0  502 -0.50903460098E+01  0.26977117481E+03  0.90556233286E+03  0.94490504130E+03  0.00000000000E+00 0.  1.
<scales pt_clust_5="13000.00000" pt_clust_6="13000.00000" pt_clust_7="13000.00000" pt_clust_8="13000.00000" pt_clust_9="13000.00000"></scales>
<clustering>
<clus scale="   80.183">  5  6 -1 -1</clus>
<clus scale="   91.539">  7  8 -1 -1</clus>
<clus scale="  268.089">  2  5  1 -1</clus>
<clus scale="  201.195">  7  9 -1 -1</clus>
<clus scale="  516.428">  1  5  2 -1</clus>
</clustering>
</event>
<event>
 9    2  0.4178938E-005  0.2929290E+03  0.7546771E-02  0.1107606E+00
         21   -1    0    0  501  502  0.00000000000E+00  0.00000000000E+00  0.58809281510E+02  0.58809281510E+02  0.00000000000E+00 0. -1.
          2   -1    0    0  502    0 -0.00000000000E+00 -0.00000000000E+00 -0.98642987220E+03  0.98642987220E+03  0.00000000000E+00 0. -1.
         24    2    1    2    0    0  0.12889566015E+03 -0.95611556759E+02 -0.25846789543E+03  0.31477852150E+03  0.80772542598E+02 0.  0.
         23    2    1    2    0    0 -0.13316666171E+03  0.59256328327E+01 -0.58673771269E+03  0.60858349836E+03  0.91346910491E+02 0.  0.
        -11    1    3    3    0    0  0.89518638256E+02 -0.16721595775E+02 -0.12045989615E+03  0.15100922138E+03  0.00000000000E+00 0.  1.
         12    1    3    3    0    0  0.39377021898E+02 -0.78889960984E+02 -0.13800799929E+03  0.16376930013E+03  0.00000000000E+00 0. -1.
        -11    1    4    4    0    0 -0.26479964634E+02 -0.31496183173E+02 -0.87339191466E+02  0.96547047844E+02  0.00000000000E+00 0.  1.
         11    1    4    4    0    0 -0.10668669708E+03  0.37421816006E+02 -0.49939852123E+03  0.51203645051E+03  0.00000000000E+00 0. -1.
          1    1    1    2  501    0  0.42710015575E+01  0.89685923926E+02 -0.82414982562E+02  0.12187713385E+03  0.00000000000E+00 0. -1.
<scales pt_clust_5="13000.00000" pt_clust_6="13000.00000" pt_clust_7="13000.00000" pt_clust_8="13000.00000" pt_clust_9="13000.00000"></scales>
<clustering>
<clus scale="   80.773">  5  6 -1 -1</clus>
<clus scale="   91.347">  7  8 -1 -1</clus>
<clus scale="   89.788">  7  9 -1 -1</clus>
<clus scale="  179.666">  2  5  1 -1</clus>
<clus scale="  292.929">  1  5  2 -1</clus>
</clustering>
</event>
<event>
 9    2  0.4178938E-005  0.2669922E+03  0.7546771E-02  0.1113963E+00
         21   -1    0    0  501  502  0.00000000000E+00  0.00000000000E+00  0.70714286962E+02  0.70714286962E+02  0.00000000000E+00 0. -1.
          2   -1    0    0  502    0 -0.00000000000E+00 -0.00000000000E+00 -0.82024581781E+03  0.82024581781E+03  0.00000000000E+00 0. -1.
         24    2    1    2    0    0  0.17099309716E+03  0.69973114190E+02 -0.42664036574E+03  0.47198096162E+03  0.81296681755E+02 0.  0.
         23    2    1    2    0    0 -0.18262335729E+02 -0.49807816041E+02 -0.77575687323E+02  0.12930172191E+03  0.88806624645E+02 0.  0.
        -13    1    3    3    0    0  0.15178063944E+03  0.46539925419E+02 -0.40424481159E+03  0.43430081149E+03  0.00000000000E+00 0.  1.
         14    1    3    3    0    0  0.19212457723E+02  0.23433188771E+02 -0.22395554152E+02  0.37680150126E+02  0.00000000000E+00 0. -1.
        -13    1    4    4    0    0  0.27289117982E+02 -0.40655019651E+02 -0.64604096425E+02  0.81063036323E+02  0.00000000000E+00 0. -1.
         13    1    4    4    0    0 -0.45551453711E+02 -0.91527963898E+01 -0.12971590899E+02  0.48238685589E+02  0.00000000000E+00 0.  1.
          1    1    1    2  501    0 -0.15273076143E+03 -0.20165298149E+02 -0.24531547779E+03  0.28967742124E+03  0.00000000000E+00 0. -1.
<scales pt_clust_5="13000.00000" pt_clust_6="13000.00000" pt_clust_7="13000.00000" pt_clust_8="13000.00000" pt_clust_9="13000.00000"></scales>
<clustering>
<clus scale="   81.297">  5  6 -1 -1</clus>
<clus scale="   88.807">  7  8 -1 -1</clus>
<clus scale="  154.056">  7  9 -1 -1</clus>
<clus scale="  201.851">  2  5  1 -1</clus>
<clus scale="  266.992">  1  5  2 -1</clus>
</clustering>
</event>
<event>
 9    2  0.4178938E-005  0.2208286E+03  0.7546771E-02  0.1150840E+00
          4   -1    0    0  502    0 -0.00000000000E+00  0.00000000000E+00  0.61207733790E+03  0.61207733790E+03  0.00000000000E+00 0. -1.
         21   -1    0    0  501  502  0.00000000000E+00 -0.00000000000E+00 -0.55372490835E+02  0.55372490835E+02  0.00000000000E+00 0.  1.
         24    2    1    2    0    0 -0.31434909968E+02 -0.11620086045E+03  0.26008516226E+03  0.29765458381E+03  0.80393818826E+02 0.  0.
         23    2    1    2    0    0  0.68933536577E+02  0.13517028466E+03  0.23013191474E+03  0.29114024113E+03  0.93696870292E+02 0.  0.
        -13    1    3    3    0    0  0.21290107960E+02 -0.67890268631E+02  0.15494253681E+03  0.17049793836E+03  0.00000000000E+00 0.  1.
         14    1    3    3    0    0 -0.52725017928E+02 -0.48310591816E+02  0.10514262544E+03  0.12715664545E+03  0.00000000000E+00 0. -1.
        -11    1    4    4    0    0  0.27490418245E+02  0.78637906589E+02  0.48366810749E+02  0.96327523741E+02  0.00000000000E+00 0.  1.
         11    1    4    4    0    0  0.41443118332E+02  0.56532378075E+02  0.18176510399E+03  0.19481271739E+03  0.00000000000E+00 0. -1.
          3    1    1    2  501    0 -0.37498626609E+02 -0.18969424218E+02  0.66487770064E+02  0.78655003787E+02  0.00000000000E+00 0. -1.
<scales pt_clust_5="13000.00000" pt_clust_6="13000.00000" pt_clust_7="13000.00000" pt_clust_8="13000.00000" pt_clust_9="13000.00000"></scales>
<clustering>
<clus scale="   80.394">  5  6 -1 -1</clus>
<clus scale="   93.697">  7  8 -1 -1</clus>
<clus scale="   42.024">  7  9 -1 -1</clus>
<clus scale="  144.755">  1  5  2 -1</clus>
<clus scale="  220.829">  2  5  1 -1</clus>
</clustering>
</event>
<event>
 9    2  0.4178938E-005  0.1866101E+03  0.7546771E-02  0.1199408E+00
          2   -1    0    0  502    0 -0.00000000000E+00  0.00000000000E+00  0.25021130809E+03  0.25021130809E+03  0.00000000000E+00 0. -1.
         21   -1    0    0  501  502  0.00000000000E+00 -0.00000000000E+00 -0.75588914557E+02  0.75588914557E+02  0.00000000000E+00 0.  1.
         24    2    1    2    0    0 -0.47628546438E+01 -0.18887798756E+02  0.16978620338E+02  0.81515813175E+02  0.77311839473E+02 0.  0.
         23    2    1    2    0    0  0.38905443972E+02  0.55882137141E+02  0.38122637781E+02  0.11459401164E+03  0.83916656099E+02 0.  0.
        -11    1    3    3    0    0 -0.24442580479E+02  0.14493596102E+01 -0.22290294293E+02  0.33111895196E+02  0.00000000000E+00 0.  1.
         12    1    3    3    0    0  0.19679725835E+02 -0.20337158366E+02  0.39268914632E+02  0.48403917979E+02  0.00000000000E+00 0. -1.
        -13    1    4    4    0    0  0.68740819428E+01  0.68643027369E+02  0.92140792496E+01  0.69598976037E+02  0.00000000000E+00 0.  1.
         13    1    4    4    0    0  0.32031362029E+02 -0.12760890228E+02  0.28908558531E+02  0.44995035606E+02  0.00000000000E+00 0. -1.
          1    1    1    2  501    0 -0.34142589328E+02 -0.36994338385E+02  0.11952113542E+03  0.12969039783E+03  0.00000000000E+00 0. -1.
<scales pt_clust_5="13000.00000" pt_clust_6="13000.00000" pt_clust_7="13000.00000" pt_clust_8="13000.00000" pt_clust_9="13000.00000"></scales>
<clustering>
<clus scale="   77.312">  5  6 -1 -1</clus>
<clus scale="   79.728">  1  5  2 -1</clus>
<clus scale="   83.917">  7  8 -1 -1</clus>
<clus scale="   61.224">  7  9 -1 -1</clus>
<clus scale="  186.610">  2  5  1 -1</clus>
</clustering>
</event>
<event>
 9    2  0.4178938E-005  0.1931917E+03  0.7546771E-02  0.1188886E+00
         21   -1    0    0  501  502  0.00000000000E+00  0.00000000000E+00  0.56984151102E+03  0.56984151102E+03  0.00000000000E+00 0.  1.
          4   -1    0    0  502    0 -0.00000000000E+00 -0.00000000000E+00 -0.42470419171E+02  0.42470419171E+02  0.00000000000E+00 0. -1.
         24    2    1    2    0    0 -0.69962076682E+01  0.37694339884E+02  0.30299623527E+03  0.31622561523E+03  0.81988480622E+02 0.  0.
         23    2    1    2    0    0  0.31847144891E+02  0.23479394289E+02  0.49856706366E+02  0.10949483717E+03  0.89094924677E+02 0.  0.
        -11    1    3    3    0    0  0.76991918054E+01  0.56565977341E+02  0.13556725834E+03  0.14709680106E+03  0.00000000000E+00 0.  1.
         12    1    3    3    0    0 -0.14695399474E+02 -0.18871637457E+02  0.16742897693E+03  0.16912881417E+03  0.00000000000E+00 0. -1.
        -11    1    4    4    0    0  0.52799915802E+02 -0.13325382681E+02  0.21601422691E+02  0.58583431058E+02  0.00000000000E+00 0. -1.
         11    1    4    4    0    0 -0.20952770911E+02  0.36804776970E+02  0.28255283675E+02  0.50911406111E+02  0.00000000000E+00 0.  1.
          3    1    1    2  501    0 -0.24850937223E+02 -0.61173734172E+02  0.17451815021E+03  0.18659147780E+03  0.00000000000E+00 0. -1.
<scales pt_clust_5="13000.00000" pt_clust_6="13000.00000" pt_clust_7="13000.00000" pt_clust_8="13000.00000" pt_clust_9="13000.00000"></scales>
<clustering>
<clus scale="   81.988">  5  6 -1 -1</clus>
<clus scale="   89.095">  7  8 -1 -1</clus>
<clus scale="   66.029">  7  9 -1 -1</clus>
<clus scale="   90.509">  2  5  1 -1</clus>
<clus scale="  193.192">  1  5  2 -1</clus>
</clustering>
</event>
<event>
 9    2  0.4178938E-005  0.1240764E+03  0.7546771E-02  0.1257131E+00
          2   -1    0    0  502    0 -0.00000000000E+00  0.00000000000E+00  0.47848516754E+03  0.47848516754E+03  0.00000000000E+00 0. -1.
         21   -1    0    0  501  502  0.00000000000E+00 -0.00000000000E+00 -0.22197774241E+02  0.22197774241E+02  0.00000000000E+00 0.  1.
         24    2    1    2    0    0 -0.23697745432E+02  0.10334506088E+01  0.18539623258E+03  0.20272830662E+03  0.78513387974E+02 0.  0.
         23    2    1    2    0    0  0.17095049237E+02  0.23977377266E+02  0.17947419552E+03  0.20294832677E+03  0.90054878559E+02 0.  0.
        -13    1    3    3    0    0 -0.10685428911E+02 -0.33529993559E+02  0.13922398688E+03  0.14360277637E+03  0.00000000000E+00 0.  1.
         14    1    3    3    0    0 -0.13012316521E+02  0.34563444168E+02  0.46172245698E+02  0.59125530245E+02  0.00000000000E+00 0. -1.
        -11    1    4    4    0    0  0.32395632083E+02 -0.94162657032E+01  0.19829793978E+02  0.39132643241E+02  0.00000000000E+00 0.  1.
         11    1    4    4    0    0 -0.15300582846E+02  0.33393642970E+02  0.15964440154E+03  0.16381568353E+03  0.00000000000E+00 0. -1.
          1    1    1    2  501    0  0.66026961948E+01 -0.25010827875E+02  0.91416965204E+02  0.95006308396E+02  0.00000000000E+00 0. -1.
<scales pt_clust_5="13000.00000" pt_clust_6="13000.00000" pt_clust_7="13000.00000" pt_clust_8="13000.00000" pt_clust_9="13000.00000"></scales>
<clustering>
<clus scale="   78.513">  5  6 -1 -1</clus>
<clus scale="   82.018">  1  5  2 -1</clus>
<clus scale="   90.055">  7  8 -1 -1</clus>
<clus scale="   24.700">  7  9 -1 -1</clus>
<clus scale="  124.076">  2  5  1 -1</clus>
</clustering>
</event>
<event>
 9    2  0.4178938E-005  0.2614330E+03  0.7546771E-02  0.1141380E+00
          2   -1    0    0  502    0 -0.00000000000E+00  0.00000000000E+00  0.17065782437E+04  0.17065782437E+04  0.00000000000E+00 0. -1.
         21   -1    0    0  501  502  0.00000000000E+00 -0.00000000000E+00 -0.83270851749E+02  0.83270851749E+02  0.00000000000E+00 0. -1.
         24    2    1    2    0    0 -0.58949512505E+02  0.39862055266E+02  0.14943437129E+04  0.14983378222E+04  0.83000414139E+02 0.  0.
         23    2    1    2    0    0 -0.77410395970E+02 -0.12666903836E+02  0.46392064622E+02  0.12979648598E+03  0.92423396696E+02 0.  0.
        -11    1    3    3    0    0 -0.96661217306E+01  0.30622029077E+02  0.16769034060E+03  0.17073720422E+03  0.00000000000E+00 0.  1.
         12    1    3    3    0    0 -0.49283390775E+02  0.92400261887E+01  0.13266533723E+04  0.13276006180E+04  0.00000000000E+00 0. -1.
        -11    1    4    4    0    0 -0.56969894886E+02  0.36238065724E+02  0.19047526941E+02  0.70153935123E+02  0.00000000000E+00 0. -1.
         11    1    4    4    0    0 -0.20440501085E+02 -0.48904969560E+02  0.27344537680E+02  0.59642550861E+02  0.00000000000E+00 0.  1.
          1    1    1    2  501    0  0.13635990848E+03 -0.27195151429E+02  0.82571614417E+02  0.16171478723E+03  0.00000000000E+00 0. -1.
<scales pt_clust_5="13000.00000" pt_clust_6="13000.00000" pt_clust_7="13000.00000" pt_clust_8="13000.00000" pt_clust_9="13000.00000"></scales>
<clustering>
<clus scale="   83.000">  5  6 -1 -1</clus>
<clus scale="   92.423">  7  8 -1 -1</clus>
<clus scale="  109.330">  1  5  2 -1</clus>
<clus scale="  102.191">  7  9 -1 -1</clus>
<clus scale="  261.433">  2  5  1 -1</clus>
</clustering>
</event>
<event>
 9    2  0.4178938E-005  0.4421191E+03  0.7546771E-02  0.1069514E+00
         -3   -1    0    0    0  501 -0.00000000000E+00  0.00000000000E+00  0.44532495168E+03  0.44532495168E+03  0.00000000000E+00 0.  1.
         21   -1    0    0  501  502  0.00000000000E+00 -0.00000000000E+00 -0.19323121079E+03  0.19323121079E+03  0.00000000000E+00 0. -1.
         24    2    1    2    0    0  0.11714105461E+03  0.20854189177E+02  0.45219169832E+02  0.15043082076E+03  0.80173154068E+02 0.  0.
         23    2    1    2    0    0  0.13257661565E+03 -0.73235349861E+02  0.13501352337E+03  0.22304665337E+03  0.92634672788E+02 0.  0.
        -13    1    3    3    0    0  0.61186549641E+02  0.49860574354E+02  0.35934453908E+02  0.86724596912E+02  0.00000000000E+00 0.  1.
         14    1    3    3    0    0  0.55954504968E+02 -0.29006385177E+02  0.92847159240E+01  0.63706223848E+02  0.00000000000E+00 0. -1.
        -13    1    4    4    0    0  0.38566081935E+02 -0.74070261194E+02  0.65132382297E+02  0.10590549321E+03  0.00000000000E+00 0.  1.
         13    1    4    4    0    0  0.94010533715E+02  0.83491133286E+00  0.69881141072E+02  0.11714116016E+03  0.00000000000E+00 0. -1.
         -4    1    1    2    0  502 -0.24971767026E+03  0.52381160684E+02  0.71861047690E+02  0.26507868833E+03  0.00000000000E+00 0.  1.
<scales pt_clust_5="13000.00000" pt_clust_6="13000.00000" pt_clust_7="13000.00000" pt_clust_8="13000.00000" pt_clust_9="13000.00000"></scales>
<clustering>
<clus scale="   80.173">  5  6 -1 -1</clus>
<clus scale="   92.635">  7  8 -1 -1</clus>
<clus scale="  143.474">  1  5  2 -1</clus>
<clus scale="  202.796">  7  9 -1 -1</clus>
<clus scale="  442.119">  2  5  1 -1</clus>
</clustering>
</event>
<event>
 9    2  0.4846969E-005  0.3631872E+03  0.7546771E-02  0.1103586E+00
          2   -1    0    0  502    0 -0.00000000000E+00  0.00000000000E+00  0.97474264932E+03  0.97474264932E+03  0.00000000000E+00 0. -1.
         21   -1    0    0  501  502  0.00000000000E+00 -0.00000000000E+00 -0.56230141800E+02  0.56230141800E+02  0.00000000000E+00 0. -1.
         24    2    1    2    0    0  0.31767471832E+02  0.67996933712E+02  0.18545748628E+03  0.21288074576E+03  0.72739105270E+02 0.  0.
         23    2    1    2    0    0  0.93135766490E+02  0.93022889415E+02  0.33883508304E+03  0.37431556778E+03  0.89305105279E+02 0.  0.
        -11    1    3    3    0    0  0.31392362897E+02  0.45525516857E+01  0.25170895599E+02  0.40494199095E+02  0.00000000000E+00 0.  1.
         12    1    3    3    0    0  0.37510893514E+00  0.63444382026E+02  0.16028659068E+03  0.17238654666E+03  0.00000000000E+00 0. -1.
        -13    1    4    4    0    0 -0.11953135196E+01  0.35479593624E+02  0.16162977686E+03  0.16548237098E+03  0.00000000000E+00 0.  1.
         13    1    4    4    0    0  0.94331080009E+02  0.57543295791E+02  0.17720530617E+03  0.20883319679E+03  0.00000000000E+00 0. -1.
          1    1    1    2  501    0 -0.12490323832E+03 -0.16101982313E+03  0.39421993820E+03  0.44377647759E+03  0.00000000000E+00 0. -1.
<scales pt_clust_5="13000.00000" pt_clust_6="13000.00000" pt_clust_7="13000.00000" pt_clust_8="13000.00000" pt_clust_9="13000.00000"></scales>
<clustering>
<clus scale="   72.739">  5  6 -1 -1</clus>
<clus scale="   89.305">  7  8 -1 -1</clus>
<clus scale="  104.517">  1  5  2 -1</clus>
<clus scale="  164.484">  7  9 -1 -1</clus>
<clus scale="  363.187">  2  5  1 -1</clus>
</clustering>
</event>
<event>
 9    2  0.4178938E-005  0.2692054E+03  0.7546771E-02  0.1132884E+00
         -1   -1    0    0    0  501 -0.00000000000E+00  0.00000000000E+00  0.46875828193E+03  0.46875828193E+03  0.00000000000E+00 0.  1.
         21   -1    0    0  501  502  0.00000000000E+00 -0.00000000000E+00 -0.10627956986E+03  0.10627956986E+03  0.00000000000E+00 0. -1.
         24    2    1    2    0    0  0.82056336685E+02 -0.44020771349E+02 -0.61151353181E+00  0.12303555097E+03  0.80413320749E+02 0.  0.
         23    2    1    2    0    0 -0.33643205600E+02  0.53583381443E+01  0.16130504514E+02  0.99554201013E+02  0.92142654036E+02 0.  0.
        -11    1    3    3    0    0  0.62793686947E+01 -0.46769277055E+02 -0.12663773521E+01  0.47205926101E+02  0.00000000000E+00 0.  1.
         12    1    3    3    0    0  0.75776967990E+02  0.27485057069E+01  0.65486382027E+00  0.75829624870E+02  0.00000000000E+00 0. -1.
        -11    1    4    4    0    0 -0.38837386351E+02 -0.19880878125E+02 -0.25543161836E+02  0.50557343781E+02  0.00000000000E+00 0. -1.
         11    1    4    4    0    0  0.51941807513E+01  0.25239216269E+02  0.41673666350E+02  0.48996857232E+02  0.00000000000E+00 0.  1.
         -2    1    1    2    0  502 -0.48413131085E+02  0.38662433204E+02  0.34695972109E+03  0.35244809981E+03  0.00000000000E+00 0.  1.
<scales pt_clust_5="13000.00000" pt_clust_6="13000.00000" pt_clust_7="13000.00000" pt_clust_8="13000.00000" pt_clust_9="13000.00000"></scales>
<clustering>
<clus scale="   80.413">  5  6 -1 -1</clus>
<clus scale="   92.143">  7  8 -1 -1</clus>
<clus scale="   61.957">  7  9 -1 -1</clus>
<clus scale="  123.034">  1  5  2 -1</clus>
<clus scale="  269.205">  2  5  1 -1</clus>
</clustering>
</event>
<event>
 9    2  0.4178938E-005  0.2318352E+03  0.7546771E-02  0.1158413E+00
          2   -1    0    0  502    0 -0.00000000000E+00  0.00000000000E+00  0.58202333097E+03  0.58202333097E+03  0.00000000000E+00 0. -1.
         21   -1    0    0  501  502  0.00000000000E+00 -0.00000000000E+00 -0.63604533767E+02  0.63604533767E+02  0.00000000000E+00 0. -1.
         24    2    1    2    0    0 -0.99657454881E+01  0.57788788514E+02  0.33205972391E+03  0.34817656918E+03  0.86743316281E+02 0.  0.
         23    2    1    2    0    0  0.20152757233E+02  0.60997462382E+02  0.86865363128E+02  0.14216785480E+03  0.92408244151E+02 0.  0.
        -13    1    3    3    0    0  0.21450208208E+02 -0.12397112406E+02  0.49691448381E+02  0.55525128278E+02  0.00000000000E+00 0.  1.
         14    1    3    3    0    0 -0.31415953696E+02  0.70185900919E+02  0.28236827553E+03  0.29265144090E+03  0.00000000000E+00 0. -1.
        -11    1    4    4    0    0 -0.98409778156E+01  0.77461599135E+02  0.64635843602E+02  0.10136536126E+03  0.00000000000E+00 0. -1.
         11    1    4    4    0    0  0.29993735049E+02 -0.16464136753E+02  0.22229519526E+02  0.40802493546E+02  0.00000000000E+00 0.  1.
          1    1    1    2  501    0 -0.10187011745E+02 -0.11878625090E+03  0.99493710158E+02  0.15528344075E+03  0.00000000000E+00 0. -1.
<scales pt_clust_5="13000.00000" pt_clust_6="13000.00000" pt_clust_7="13000.00000" pt_clust_8="13000.00000" pt_clust_9="13000.00000"></scales>
<clustering>
<clus scale="   86.743">  5  6 -1 -1</clus>
<clus scale="   92.408">  7  8 -1 -1</clus>
<clus scale="  104.706">  1  5  2 -1</clus>
<clus scale="   89.692">  7  9 -1 -1</clus>
<clus scale="  231.835">  2  5  1 -1</clus>
</clustering>
</event>
<event>
 9    2  0.4178938E-005  0.2049912E+03  0.7546771E-02  0.1172042E+00
         21   -1    0    0  501  502  0.00000000000E+00  0.00000000000E+00  0.35819000922E+02  0.35819000922E+02  0.00000000000E+00 0. -1.
          2   -1    0    0  502    0 -0.00000000000E+00 -0.00000000000E+00 -0.10008025840E+04  0.10008025840E+04  0.00000000000E+00 0. -1.
         24    2    1    2    0    0  0.70529405870E+02  0.28761249427E+02 -0.65965037681E+03  0.66885840534E+03  0.80195637118E+02 0.  0.
         23    2    1    2    0    0 -0.43204691119E+02 -0.22610290800E+02 -0.31992444481E+03  0.33618187869E+03  0.91042487804E+02 0.  0.
        -13    1    3    3    0    0  0.30216212929E+02 -0.18769937434E+02 -0.10819867416E+03  0.11389593130E+03  0.00000000000E+00 0.  1.
         14    1    3    3    0    0  0.40313192940E+02  0.47531186862E+02 -0.55145170264E+03  0.55496247404E+03  0.00000000000E+00 0. -1.
        -13    1    4    4    0    0 -0.43779960341E+02  0.19141243420E+02 -0.84417945171E+02  0.97002379321E+02  0.00000000000E+00 0.  1.
         13    1    4    4    0    0  0.57526922170E+00 -0.41751534220E+02 -0.23550649964E+03  0.23917949937E+03  0.00000000000E+00 0. -1.
          1    1    1    2  501    0 -0.27324714750E+02 -0.61509586269E+01  0.14591238494E+02  0.31581300939E+02  0.00000000000E+00 0. -1.
<scales pt_clust_5="13000.00000" pt_clust_6="13000.00000" pt_clust_7="13000.00000" pt_clust_8="13000.00000" pt_clust_9="13000.00000"></scales>
<clustering>
<clus scale="   80.196">  5  6 -1 -1</clus>
<clus scale="   91.042">  7  8 -1 -1</clus>
<clus scale="   28.008">  7  9 -1 -1</clus>
<clus scale="  110.603">  2  5  1 -1</clus>
<clus scale="  204.991">  1  5  2 -1</clus>
</clustering>
</event>
<event>
 9    2  0.4178938E-005  0.3244211E+03  0.7546771E-02  0.1119810E+00
          4   -1    0    0  502    0 -0.00000000000E+00  0.00000000000E+00  0.12597243481E+03  0.12597243481E+03  0.00000000000E+00 0. -1.
         21   -1    0    0  501  502  0.00000000000E+00 -0.00000000000E+00 -0.35670952480E+03  0.35670952480E+03  0.00000000000E+00 0. -1.
         24    2    1    2    0    0  0.15988884460E+02 -0.52639535342E+02 -0.75582648842E+02  0.12306830891E+03  0.80040656823E+02 0.  0.
         23    2    1    2    0    0  0.49245793323E+02 -0.17802464918E+02  0.62435902127E+02  0.12178346744E+03  0.90503564299E+02 0.  0.
        -13    1    3    3    0    0  0.31348850822E+02 -0.15986980071E+02  0.26818951991E+01  0.35292018099E+02  0.00000000000E+00 0.  1.
         14    1    3    3    0    0 -0.15359966362E+02 -0.36652555271E+02 -0.78264544041E+02  0.87776290811E+02  0.00000000000E+00 0. -1.
        -11    1    4    4    0    0  0.68209302390E+02  0.58949998602E+01  0.60510122299E+02  0.91371411593E+02  0.00000000000E+00 0. -1.
         11    1    4    4    0    0 -0.18963509067E+02 -0.23697464779E+02  0.19257798280E+01  0.30412055850E+02  0.00000000000E+00 0.  1.
          3    1    1    2  501    0 -0.65234677782E+02  0.70442000260E+02 -0.21759034327E+03  0.23783018327E+03  0.00000000000E+00 0. -1.
<scales pt_clust_5="13000.00000" pt_clust_6="13000.00000" pt_clust_7="13000.00000" pt_clust_8="13000.00000" pt_clust_9="13000.00000"></scales>
<clustering>
<clus scale="   80.041">  5  6 -1 -1</clus>
<clus scale="   90.504">  7  8 -1 -1</clus>
<clus scale="   96.009">  7  9 -1 -1</clus>
<clus scale="   97.124">  1  5  2 -1</clus>
<clus scale="  324.421">  2  5  1 -1</clus>
</clustering>
</event>
<event>
 9    2  0.4178938E-005  0.1271723E+03  0.7546771E-02  0.1253304E+00
         -3   -1    0    0    0  501 -0.00000000000E+00  0.00000000000E+00  0.15790929925E+03  0.15790929925E+03  0.00000000000E+00 0.  1.
         21   -1    0    0  501  502  0.00000000000E+00 -0.00000000000E+00 -0.83490571027E+02  0.83490571027E+02  0.00000000000E+00 0. -1.
         24    2    1    2    0    0  0.22946511427E+01  0.17318516708E+02 -0.18090339180E+02  0.84139848172E+02  0.80293569070E+02 0.  0.
         23    2    1    2    0    0 -0.15278470990E+02 -0.36107757341E+02  0.72338352527E+02  0.12678916915E+03  0.96464782954E+02 0.  0.
        -13    1    3    3    0    0  0.13673131312E+02 -0.15237867219E+02  0.22803197362E+02  0.30645275772E+02  0.00000000000E+00 0.  1.
         14    1    3    3    0    0 -0.11378480169E+02  0.32556383927E+02 -0.40893536542E+02  0.53494572400E+02  0.00000000000E+00 0. -1.
        -13    1    4    4    0    0 -0.55632145140E+02 -0.30224057569E+02  0.42375401405E+02  0.76184669541E+02  0.00000000000E+00 0.  1.
         13    1    4    4    0    0  0.40353674149E+02 -0.58836997724E+01  0.29962951122E+02  0.50604499605E+02  0.00000000000E+00 0. -1.
         -4    1    1    2    0  502  0.12983819848E+02  0.18789240633E+02  0.20170714873E+02  0.30470852957E+02  0.00000000000E+00 0.  1.
<scales pt_clust_5="13000.00000" pt_clust_6="13000.00000" pt_clust_7="13000.00000" pt_clust_8="13000.00000" pt_clust_9="13000.00000"></scales>
<clustering>
<clus scale="   80.294">  5  6 -1 -1</clus>
<clus scale="   82.172">  1  5  2 -1</clus>
<clus scale="   96.465">  7  8 -1 -1</clus>
<clus scale="   26.042">  7  9 -1 -1</clus>
<clus scale="  127.172">  2  5  1 -1</clus>
</clustering>
</event>
<event>
 9    2  0.4178938E-005  0.2761273E+03  0.7546771E-02  0.1136061E+00
         21   -1    0    0  501  502  0.00000000000E+00  0.00000000000E+00  0.19584079178E+03  0.19584079178E+03  0.00000000000E+00 0. -1.
          4   -1    0    0  502    0 -0.00000000000E+00 -0.00000000000E+00 -0.20018901582E+03  0.20018901582E+03  0.00000000000E+00 0. -1.
         24    2    1    2    0    0 -0.36671796495E+02 -0.57060602637E+02 -0.48952853029E+02  0.11632302207E+03  0.80832732315E+02 0.  0.
         23    2    1    2    0    0 -0.46072522648E+02  0.25387146622E+02  0.12004164566E+03  0.16334281495E+03  0.97486891151E+02 0.  0.
        -11    1    3    3    0    0  0.12455144076E+02 -0.50444222460E+02 -0.91685599484E+01  0.52761848765E+02  0.00000000000E+00 0.  1.
         12    1    3    3    0    0 -0.49126940572E+02 -0.66163801768E+01 -0.39784293081E+02  0.63561173310E+02  0.00000000000E+00 0. -1.
        -13    1    4    4    0    0 -0.63242185927E+02  0.45933179749E+02  0.10957058564E+03  0.13459251213E+03  0.00000000000E+00 0. -1.
         13    1    4    4    0    0  0.17169663279E+02 -0.20546033127E+02  0.10471060011E+02  0.28750302818E+02  0.00000000000E+00 0.  1.
          3    1    1    2  501    0  0.82744319143E+02  0.31673456015E+02 -0.75437016663E+02  0.11636397058E+03  0.00000000000E+00 0. -1.
<scales pt_clust_5="13000.00000" pt_clust_6="13000.00000" pt_clust_7="13000.00000" pt_clust_8="13000.00000" pt_clust_9="13000.00000"></scales>
<clustering>
<clus scale="   80.833">  5  6 -1 -1</clus>
<clus scale="   97.487">  7  8 -1 -1</clus>
<clus scale="   88.599">  7  9 -1 -1</clus>
<clus scale="  105.521">  2  5  1 -1</clus>
<clus scale="  276.127">  1  5  2 -1</clus>
</clustering>
</event>
<event>
 9    2  0.4178938E-005  0.2054963E+03  0.7546771E-02  0.1154128E+00
          2   -1    0    0  502    0 -0.00000000000E+00  0.00000000000E+00  0.28501493064E+03  0.28501493064E+03  0.00000000000E+00 0. -1.
         21   -1    0    0  501  502  0.00000000000E+00 -0.00000000000E+00 -0.12336865047E+03  0.12336865047E+03  0.00000000000E+00 0.  1.
         24    2    1    2    0    0 -0.51097819909E+02  0.13585781313E+03  0.99351591481E+02  0.19365265055E+03  0.81007886937E+02 0.  0.
         23    2    1    2    0    0  0.63439789323E+02 -0.96343258214E+02  0.89804696646E+01  0.14723181790E+03  0.91049047743E+02 0.  0.
        -13    1    3    3    0    0 -0.66609399803E+02  0.73163142940E+02  0.42781304709E+02  0.10779562913E+03  0.00000000000E+00 0.  1.
         14    1    3    3    0    0  0.15511579894E+02  0.62694670189E+02  0.56570286772E+02  0.85857021416E+02  0.00000000000E+00 0. -1.
        -11    1    4    4    0    0 -0.73934395897E+01 -0.55240655063E+02 -0.21657794719E+02  0.59793419311E+02  0.00000000000E+00 0. -1.
         11    1    4    4    0    0  0.70833228912E+02 -0.41102603151E+02  0.30638264383E+02  0.87438398592E+02  0.00000000000E+00 0.  1.
          1    1    1    2  501    0 -0.12341969414E+02 -0.39514554915E+02  0.53314219031E+02  0.67499112661E+02  0.00000000000E+00 0. -1.
<scales pt_clust_5="13000.00000" pt_clust_6="13000.00000" pt_clust_7="13000.00000" pt_clust_8="13000.00000" pt_clust_9="13000.00000"></scales>
<clustering>
<clus scale="   81.008">  5  6 -1 -1</clus>
<clus scale="   91.049">  7  8 -1 -1</clus>
<clus scale="   41.397">  7  9 -1 -1</clus>
<clus scale="  166.225">  1  5  2 -1</clus>
<clus scale="  205.496">  2  5  1 -1</clus>
</clustering>
</event>
<event>
 9    2  0.4178938E-005  0.3137951E+03  0.7546771E-02  0.1128232E+00
         21   -1    0    0  501  502  0.00000000000E+00  0.00000000000E+00  0.63711527122E+03  0.63711527122E+03  0.00000000000E+00 0.  1.
          2   -1    0    0  502    0 -0.00000000000E+00 -0.00000000000E+00 -0.65696870206E+02  0.65696870206E+02  0.00000000000E+00 0. -1.
         24    2    1    2    0    0  0.22187380627E+02  0.25178138412E+02  0.71980969731E+02  0.11297734757E+03  0.80351742659E+02 0.  0.
         23    2    1    2    0    0  0.12107607124E+03 -0.46092590793E+02  0.18293871129E+03  0.24179274076E+03  0.90626792084E+02 0.  0.
        -11    1    3    3    0    0 -0.22121780040E+02  0.35048622166E+02  0.30202962271E+02  0.51283506099E+02  0.00000000000E+00 0.  1.
         12    1    3    3    0    0  0.44309160667E+02 -0.98704837543E+01  0.41778007460E+02  0.61693841474E+02  0.00000000000E+00 0. -1.
        -13    1    4    4    0    0  0.17083167677E+02  0.24547553668E+02  0.53883592652E+02  0.61626768259E+02  0.00000000000E+00 0. -1.
         13    1    4    4    0    0  0.10399290357E+03 -0.70640144460E+02  0.12905511863E+03  0.18016597250E+03  0.00000000000E+00 0.  1.
          1    1    1    2  501    0 -0.14326345187E+03  0.20914452381E+02  0.31649872000E+03  0.34804205309E+03  0.00000000000E+00 0. -1.
<scales pt_clust_5="13000.00000" pt_clust_6="13000.00000" pt_clust_7="13000.00000" pt_clust_8="13000.00000" pt_clust_9="13000.00000"></scales>
<clustering>
<clus scale="   80.352">  5  6 -1 -1</clus>
<clus scale="   87.078">  2  5  1 -1</clus>
<clus scale="   90.627">  7  8 -1 -1</clus>
<clus scale="  138.738">  7  9 -1 -1</clus>
<clus scale="  313.795">  1  5  2 -1</clus>
</clustering>
</event>
<event>
 9    2  0.4178938E-005  0.1610366E+03  0.7546771E-02  0.1211875E+00
         21   -1    0    0  501  502  0.00000000000E+00  0.00000000000E+00  0.33089739477E+02  0.33089739477E+02  0.00000000000E+00 0.  1.
          2   -1    0    0  502    0 -0.00000000000E+00 -0.00000000000E+00 -0.87667227407E+03  0.87667227407E+03  0.00000000000E+00 0. -1.
         24    2    1    2    0    0 -0.36297870847E+02 -0.36180653383E+02 -0.65474648123E+03  0.66158495154E+03  0.79844337986E+02 0.  0.
         23    2    1    2    0    0  0.19736675530E+02  0.83750630756E+01 -0.19390851744E+03  0.21541803372E+03  0.91349537890E+02 0.  0.
        -11    1    3    3    0    0 -0.33905059804E+02  0.18885428876E+02 -0.22568414755E+03  0.22899682741E+03  0.00000000000E+00 0.  1.
         12    1    3    3    0    0 -0.23928110423E+01 -0.55066082259E+02 -0.42906233368E+03  0.43258812413E+03  0.00000000000E+00 0. -1.
        -11    1    4    4    0    0  0.50136639837E+02  0.22851791652E+02 -0.83923766116E+02  0.10039464904E+03  0.00000000000E+00 0.  1.
         11    1    4    4    0    0 -0.30399964307E+02 -0.14476728577E+02 -0.10998475132E+03  0.11502338468E+03  0.00000000000E+00 0. -1.
          1    1    1    2  501    0  0.16561195317E+02  0.27805590307E+02  0.50724640801E+01  0.32759028290E+02  0.00000000000E+00 0. -1.
<scales pt_clust_5="13000.00000" pt_clust_6="13000.00000" pt_clust_7="13000.00000" pt_clust_8="13000.00000" pt_clust_9="13000.00000"></scales>
<clustering>
<clus scale="   79.844">  5  6 -1 -1</clus>
<clus scale="   91.350">  7  8 -1 -1</clus>
<clus scale="   32.364">  7  9 -1 -1</clus>
<clus scale="   94.877">  2  5  1 -1</clus>
<clus scale="  161.037">  1  5  2 -1</clus>
</clustering>
</event>
<event>
 9    2  0.4178938E-005  0.3850116E+03  0.7546771E-02  0.1097838E+00
          2   -1    0    0  502    0 -0.00000000000E+00  0.00000000000E+00  0.36345443890E+03  0.36345443890E+03  0.00000000000E+00 0. -1.
         21   -1    0    0  501  502  0.00000000000E+00 -0.00000000000E+00 -0.16816206753E+03  0.16816206753E+03  0.00000000000E+00 0. -1.
         24    2    1    2    0    0  0.17070548281E+02  0.60043054488E+02  0.44997063663E+01  0.10192383868E+03  0.80446563147E+02 0.  0.
         23    2    1    2    0    0 -0.10188828313E+03 -0.18229567074E+03  0.15600385160E+03  0.27688556103E+03  0.93356726511E+02 0.  0.
        -13    1    3    3    0    0  0.27649131928E+02  0.34192567485E+02  0.38133417752E+02  0.58204499113E+02  0.00000000000E+00 0.  1.
         14    1    3    3    0    0 -0.10578583647E+02  0.25850487003E+02 -0.33633711385E+02  0.43719339563E+02  0.00000000000E+00 0. -1.
        -11    1    4    4    0    0  0.80059418175E+01 -0.22705536574E+02  0.51230650409E+02  0.56605795081E+02  0.00000000000E+00 0.  1.
         11    1    4    4    0    0 -0.10989422495E+03 -0.15959013417E+03  0.10477320119E+03  0.22027976595E+03  0.00000000000E+00 0. -1.
          1    1    1    2  501    0  0.84817734847E+02  0.12225261625E+03  0.34788813403E+02  0.15280710672E+03  0.00000000000E+00 0. -1.
<scales pt_clust_5="13000.00000" pt_clust_6="13000.00000" pt_clust_7="13000.00000" pt_clust_8="13000.00000" pt_clust_9="13000.00000"></scales>
<clustering>
<clus scale="   80.447">  5  6 -1 -1</clus>
<clus scale="   93.357">  7  8 -1 -1</clus>
<clus scale="  101.825">  1  5  2 -1</clus>
<clus scale="  166.763">  7  9 -1 -1</clus>
<clus scale="  385.012">  2  5  1 -1</clus>
</clustering>
</event>
<event>
 9    2  0.4178938E-005  0.3043437E+03  0.7546771E-02  0.1113459E+00
          2   -1    0    0  502    0 -0.00000000000E+00  0.00000000000E+00  0.70275645265E+03  0.70275645265E+03  0.00000000000E+00 0. -1.
         21   -1    0    0  501  502  0.00000000000E+00 -0.00000000000E+00 -0.76180070782E+02  0.76180070782E+02  0.00000000000E+00 0. -1.
         24    2    1    2    0    0 -0.37519226499E+02 -0.10632680161E+03  0.31232987587E+03  0.34147117802E+03  0.79621184133E+02 0.  0.
         23    2    1    2    0    0 -0.19938521583E+02 -0.14363985607E+02 -0.85129796745E-01  0.95892459779E+02  0.92690279264E+02 0.  0.
        -11    1    3    3    0    0 -0.55804340132E+02 -0.50578497135E+02  0.13370780388E+03  0.15346037133E+03  0.00000000000E+00 0.  1.
         12    1    3    3    0    0  0.18285113633E+02 -0.55748304477E+02  0.17862207198E+03  0.18801080669E+03  0.00000000000E+00 0. -1.
        -13    1    4    4    0    0 -0.51909072033E+02  0.11962817681E+02 -0.75746228667E+01  0.53805535754E+02  0.00000000000E+00 0. -1.
         13    1    4    4    0    0  0.31970550450E+02 -0.26326803288E+02  0.74894930700E+01  0.42086924025E+02  0.00000000000E+00 0.  1.
          1    1    1    2  501    0  0.57457748082E+02  0.12069078722E+03  0.31433163580E+03  0.34157288563E+03  0.00000000000E+00 0. -1.
<scales pt_clust_5="13000.00000" pt_clust_6="13000.00000" pt_clust_7="13000.00000" pt_clust_8="13000.00000" pt_clust_9="13000.00000"></scales>
<clustering>
<clus scale="   79.621">  5  6 -1 -1</clus>
<clus scale="   92.690">  7  8 -1 -1</clus>
<clus scale="  133.670">  7  9 -1 -1</clus>
<clus scale="  138.031">  1  5  2 -1</clus>
<clus scale="  304.344">  2  5  1 -1</clus>
</clustering>
</event>
<event>
 9    2  0.4178938E-005  0.5756106E+03  0.7546771E-02  0.1015726E+00
         21   -1    0    0  501  502  0.00000000000E+00  0.00000000000E+00  0.19388604808E+03  0.19388604808E+03  0.00000000000E+00 0. -1.
          2   -1    0    0  502    0 -0.00000000000E+00 -0.00000000000E+00 -0.10134364235E+04  0.10134364235E+04  0.00000000000E+00 0. -1.
         24    2    1    2    0    0 -0.28418804950E+03  0.90021517838E+02 -0.24649667311E+03  0.39509211517E+03  0.80439097833E+02 0.  0.
         23    2    1    2    0    0 -0.23725613398E+02 -0.74222655004E+01  0.55186601926E+02  0.10773100214E+03  0.89120216756E+02 0.  0.
        -13    1    3    3    0    0 -0.19166502118E+02  0.19350858868E+02 -0.14257048504E+01  0.27273488532E+02  0.00000000000E+00 0.  1.
         14    1    3    3    0    0 -0.26502154738E+03  0.70670658970E+02 -0.24507096826E+03  0.36781862664E+03  0.00000000000E+00 0. -1.
        -11    1    4    4    0    0 -0.27798512246E+01 -0.36149816051E+02 -0.62090702288E+01  0.36784362526E+02  0.00000000000E+00 0.  1.
         11    1    4    4    0    0 -0.20945762173E+02  0.28727550551E+02  0.61395672155E+02  0.70946639618E+02  0.00000000000E+00 0. -1.
          1    1    1    2  501    0  0.30791366290E+03 -0.82599252338E+02 -0.62824030421E+03  0.70449935423E+03  0.00000000000E+00 0. -1.
<scales pt_clust_5="13000.00000" pt_clust_6="13000.00000" pt_clust_7="13000.00000" pt_clust_8="13000.00000" pt_clust_9="13000.00000"></scales>
<clustering>
<clus scale="   80.439">  5  6 -1 -1</clus>
<clus scale="   89.120">  7  8 -1 -1</clus>
<clus scale="  308.767">  2  5  1 -1</clus>
<clus scale="   34.737">  7  9 -1 -1</clus>
<clus scale="  575.611">  1  5  2 -1</clus>
</clustering>
</event>
<event>
 9    2  0.4178938E-005  0.1511797E+03  0.7546771E-02  0.1220518E+00
          2   -1    0    0  502    0 -0.00000000000E+00  0.00000000000E+00  0.86319224071E+03  0.86319224071E+03  0.00000000000E+00 0. -1.
         21   -1    0    0  501  502  0.00000000000E+00 -0.00000000000E+00 -0.27939766617E+02  0.27939766617E+02  0.00000000000E+00 0.  1.
         24    2    1    2    0    0  0.32076468474E+02 -0.38224622243E+02  0.62449616507E+03  0.63176063329E+03  0.81461745641E+02 0.  0.
         23    2    1    2    0    0 -0.51503392138E+02  0.57392128853E+02  0.17424045501E+03  0.21378402638E+03  0.96940280160E+02 0.  0.
        -11    1    3    3    0    0  0.37850852590E+00  0.20159242835E+02  0.58462769896E+02  0.61842006794E+02  0.00000000000E+00 0.  1.
         12    1    3    3    0    0  0.31697959948E+02 -0.58383865078E+02  0.56603339518E+03  0.56991862649E+03  0.00000000000E+00 0. -1.
        -13    1    4    4    0    0 -0.59414638284E+02  0.76173370797E+02  0.11004898627E+03  0.14643517692E+03  0.00000000000E+00 0.  1.
         13    1    4    4    0    0  0.79112461460E+01 -0.18781241945E+02  0.64191468734E+02  0.67348849454E+02  0.00000000000E+00 0. -1.
          1    1    1    2  501    0  0.19426923664E+02 -0.19167506610E+02  0.36515854016E+02  0.45587347666E+02  0.00000000000E+00 0. -1.
<scales pt_clust_5="13000.00000" pt_clust_6="13000.00000" pt_clust_7="13000.00000" pt_clust_8="13000.00000" pt_clust_9="13000.00000"></scales>
<clustering>
<clus scale="   81.462">  5  6 -1 -1</clus>
<clus scale="   95.530">  1  5  2 -1</clus>
<clus scale="   96.940">  7  8 -1 -1</clus>
<clus scale="   35.976">  7  9 -1 -1</clus>
<clus scale="  151.180">  2  5  1 -1</clus>
</clustering>
</event>
<event>
 9    2  0.4178938E-005  0.3292080E+03  0.7546771E-02  0.1083368E+00
          2   -1    0    0  502    0 -0.00000000000E+00  0.00000000000E+00  0.41405595986E+03  0.41405595986E+03  0.00000000000E+00 0. -1.
         21   -1    0    0  501  502  0.00000000000E+00 -0.00000000000E+00 -0.19771203442E+03  0.19771203442E+03  0.00000000000E+00 0.  1.
         24    2    1    2    0    0 -0.22429617647E+03 -0.18294470547E+01  0.53982562432E+02  0.24469972517E+03  0.81558057838E+02 0.  0.
         23    2    1    2    0    0  0.18565427740E+02  0.44974842387E+02  0.10890350016E+03  0.15017103719E+03  0.91235719485E+02 0.  0.
        -13    1    3    3    0    0 -0.22555442782E+03 -0.11668966325E+02  0.59208171704E+02  0.23348784182E+03  0.00000000000E+00 0.  1.
         14    1    3    3    0    0  0.12582513511E+01  0.98395192702E+01 -0.52256092720E+01  0.11211883347E+02  0.00000000000E+00 0. -1.
        -13    1    4    4    0    0  0.36168694664E+02  0.66333834157E+02  0.83406873091E+02  0.11253914211E+03  0.00000000000E+00 0.  1.
         13    1    4    4    0    0 -0.17603266925E+02 -0.21358991770E+02  0.25496627067E+02  0.37631895084E+02  0.00000000000E+00 0. -1.
          1    1    1    2  501    0  0.20573074873E+03 -0.43145395332E+02  0.53457862853E+02  0.21689723191E+03  0.00000000000E+00 0. -1.
<scales pt_clust_5="13000.00000" pt_clust_6="13000.00000" pt_clust_7="13000.00000" pt_clust_8="13000.00000" pt_clust_9="13000.00000"></scales>
<clustering>
<clus scale="   81.558">  5  6 -1 -1</clus>
<clus scale="   91.236">  7  8 -1 -1</clus>
<clus scale="  210.206">  7  9 -1 -1</clus>
<clus scale="  238.671">  1  5  2 -1</clus>
<clus scale="  329.208">  2  5  1 -1</clus>
</clustering>
</event>
<event>
 9    2  0.4178938E-005  0.1764318E+03  0.7546771E-02  0.1197740E+00
         21   -1    0    0  501  502  0.00000000000E+00  0.00000000000E+00  0.43599298516E+02  0.43599298516E+02  0.00000000000E+00 0. -1.
          2   -1    0    0  502    0 -0.00000000000E+00 -0.00000000000E+00 -0.43425705361E+03  0.43425705361E+03  0.00000000000E+00 0. -1.
         24    2    1    2    0    0 -0.56827355253E+02 -0.62476271644E+01 -0.15863081777E+03  0.18636933278E+03  0.79381425427E+02 0.  0.
         23    2    1    2    0    0  0.22407458749E+02 -0.44347709526E+02 -0.19451830563E+03  0.21971296539E+03  0.89261427218E+02 0.  0.
        -13    1    3    3    0    0  0.14552092562E+02  0.15745053688E+02 -0.51375319713E+02  0.55669503224E+02  0.00000000000E+00 0.  1.
         14    1    3    3    0    0 -0.71379447816E+02 -0.21992680852E+02 -0.10725549806E+03  0.13069982955E+03  0.00000000000E+00 0. -1.
        -11    1    4    4    0    0  0.15140781909E+02  0.19983395261E+02 -0.11230322418E+03  0.11506777796E+03  0.00000000000E+00 0.  1.
         11    1    4    4    0    0  0.72666768406E+01 -0.64331104787E+02 -0.82215081443E+02  0.10464518743E+03  0.00000000000E+00 0. -1.
          1    1    1    2  501    0  0.34419896504E+02  0.50595336690E+02 -0.37508631700E+02  0.71774053962E+02  0.00000000000E+00 0. -1.
<scales pt_clust_5="13000.00000" pt_clust_6="13000.00000" pt_clust_7="13000.00000" pt_clust_8="13000.00000" pt_clust_9="13000.00000"></scales>
<clustering>
<clus scale="   79.381">  5  6 -1 -1</clus>
<clus scale="   89.261">  7  8 -1 -1</clus>
<clus scale="   61.193">  7  9 -1 -1</clus>
<clus scale="   97.825">  2  5  1 -1</clus>
<clus scale="  176.432">  1  5  2 -1</clus>
</clustering>
</event>
<event>
 9    2  0.4178938E-005  0.3230255E+03  0.7546771E-02  0.1102187E+00
          2   -1    0    0  502    0 -0.00000000000E+00  0.00000000000E+00  0.11519153372E+04  0.11519153372E+04  0.00000000000E+00 0. -1.
         21   -1    0    0  501  502  0.00000000000E+00 -0.00000000000E+00 -0.49412218854E+02  0.49412218854E+02  0.00000000000E+00 0. -1.
         24    2    1    2    0    0  0.12633459646E+03 -0.31452884311E+02  0.36832116676E+03  0.39922492326E+03  0.82282095738E+02 0.  0.
         23    2    1    2    0    0 -0.84417718582E+01 -0.12311502636E+02  0.47523446508E+02  0.10402388203E+03  0.91321703094E+02 0.  0.
        -13    1    3    3    0    0  0.96957391516E+02  0.11199914198E+02  0.19096613303E+03  0.21446267230E+03  0.00000000000E+00 0.  1.
         14    1    3    3    0    0  0.29377204944E+02 -0.42652798508E+02  0.17735503373E+03  0.18476225096E+03  0.00000000000E+00 0. -1.
        -13    1    4    4    0    0  0.20762158730E+02  0.20750111879E+02 -0.10465400948E+02  0.31163423996E+02  0.00000000000E+00 0. -1.
         13    1    4    4    0    0 -0.29203930589E+02 -0.33061614515E+02  0.57988847456E+02  0.72860458037E+02  0.00000000000E+00 0.  1.
          1    1    1    2  501    0 -0.11789282460E+03  0.43764386947E+02  0.68665850505E+03  0.69807875073E+03  0.00000000000E+00 0. -1.
<scales pt_clust_5="13000.00000" pt_clust_6="13000.00000" pt_clust_7="13000.00000" pt_clust_8="13000.00000" pt_clust_9="13000.00000"></scales>
<clustering>
<clus scale="   82.282">  5  6 -1 -1</clus>
<clus scale="   91.322">  7  8 -1 -1</clus>
<clus scale="  125.754">  7  9 -1 -1</clus>
<clus scale="  154.013">  1  5  2 -1</clus>
<clus scale="  323.026">  2  5  1 -1</clus>
</clustering>
</event>
<event>
 9    2  0.4178938E-005  0.2431764E+03  0.7546771E-02  0.1146782E+00
          2   -1    0    0  502    0 -0.00000000000E+00  0.00000000000E+00  0.10902665811E+04  0.10902665811E+04  0.00000000000E+00 0. -1.
         21   -1    0    0  501  502  0.00000000000E+00 -0.00000000000E+00 -0.72304799734E+02  0.72304799734E+02  0.00000000000E+00 0.  1.
         24    2    1    2    0    0 -0.30523229626E+02 -0.69865206879E+02  0.86950646815E+03  0.87766128593E+03  0.91842364876E+02 0.  0.
         23    2    1    2    0    0 -0.32106209561E+02 -0.34590792955E+02  0.14664244011E+02  0.10398593191E+03  0.91491542415E+02 0.  0.
        -13    1    3    3    0    0  0.27737201852E+02 -0.58271298662E+01  0.12697352442E+03  0.13009836169E+03  0.00000000000E+00 0.  1.
         14    1    3    3    0    0 -0.58260431478E+02 -0.64038077013E+02  0.74253294372E+03  0.74756292424E+03  0.00000000000E+00 0. -1.
        -11    1    4    4    0    0  0.31136887163E+02 -0.15470661738E+02 -0.48239849415E+01  0.35101537680E+02  0.00000000000E+00 0.  1.
         11    1    4    4    0    0 -0.63243096724E+02 -0.19120131217E+02  0.19488228953E+02  0.68884394232E+02  0.00000000000E+00 0. -1.
          1    1    1    2  501    0  0.62629439187E+02  0.10445599983E+03  0.13379106919E+03  0.18092416298E+03  0.00000000000E+00 0. -1.
<scales pt_clust_5="13000.00000" pt_clust_6="13000.00000" pt_clust_7="13000.00000" pt_clust_8="13000.00000" pt_clust_9="13000.00000"></scales>
<clustering>
<clus scale="   91.492">  7  8 -1 -1</clus>
<clus scale="   91.842">  5  6 -1 -1</clus>
<clus scale="  119.364">  1  5  2 -1</clus>
<clus scale="   67.253">  7  9 -1 -1</clus>
<clus scale="  243.176">  2  5  1 -1</clus>
</clustering>
</event>
<event>
 9    2  0.4178938E-005  0.2607423E+03  0.7546771E-02  0.1147328E+00
          2   -1    0    0  502    0 -0.00000000000E+00  0.00000000000E+00  0.23540891458E+03  0.23540891458E+03  0.00000000000E+00 0. -1.
         21   -1    0    0  501  502  0.00000000000E+00 -0.00000000000E+00 -0.21591610842E+03  0.21591610842E+03  0.00000000000E+00 0. -1.
         24    2    1    2    0    0  0.47408725422E+02 -0.12286248920E+02  0.13560086284E+03  0.16589965392E+03  0.82076561880E+02 0.  0.
         23    2    1    2    0    0  0.82613787399E+02  0.32269596588E+02 -0.68626392764E+02  0.14556938447E+03  0.92814326361E+02 0.  0.
        -11    1    3    3    0    0 -0.20424712436E+02  0.87698002270E+01  0.18394416925E+02  0.28851912382E+02  0.00000000000E+00 0.  1.
         12    1    3    3    0    0  0.67833437858E+02 -0.21056049147E+02  0.11720644591E+03  0.13704774154E+03  0.00000000000E+00 0. -1.
        -11    1    4    4    0    0  0.45585824840E+02  0.57404068990E+02 -0.13451801038E+02  0.74526810707E+02  0.00000000000E+00 0. -1.
         11    1    4    4    0    0  0.37027962559E+02 -0.25134472403E+02 -0.55174591727E+02  0.71042573760E+02  0.00000000000E+00 0.  1.
          1    1    1    2  501    0 -0.13002251282E+03 -0.19983347668E+02 -0.47481663914E+02  0.13985598461E+03  0.00000000000E+00 0. -1.
<scales pt_clust_5="13000.00000" pt_clust_6="13000.00000" pt_clust_7="13000.00000" pt_clust_8="13000.00000" pt_clust_9="13000.00000"></scales>
<clustering>
<clus scale="   82.077">  5  6 -1 -1</clus>
<clus scale="   92.814">  7  8 -1 -1</clus>
<clus scale="   95.578">  1  5  2 -1</clus>
<clus scale="  107.522">  7  9 -1 -1</clus>
<clus scale="  260.742">  2  5  1 -1</clus>
</clustering>
</event>
<event>
 9    2  0.4178938E-005  0.4123903E+03  0.7546771E-02  0.1064888E+00
          2   -1    0    0  502    0 -0.00000000000E+00  0.00000000000E+00  0.11338474221E+04  0.11338474221E+04  0.00000000000E+00 0. -1.
         21   -1    0    0  501  502  0.00000000000E+00 -0.00000000000E+00 -0.29464891982E+03  0.29464891982E+03  0.00000000000E+00 0. -1.
         24    2    1    2    0    0  0.23713199739E+02  0.18519712189E+03  0.97410530953E+03  0.99460053221E+03  0.74086266142E+02 0.  0.
         23    2    1    2    0    0 -0.52811016417E+02  0.45359504821E+01  0.89684489032E+02  0.13845279986E+03  0.91193705449E+02 0.  0.
        -11    1    3    3    0    0  0.31315508512E+02  0.69345819392E+02  0.25250696321E+03  0.26372195625E+03  0.00000000000E+00 0.  1.
         12    1    3    3    0    0 -0.76023087731E+01  0.11585130250E+03  0.72159834632E+03  0.73087857596E+03  0.00000000000E+00 0. -1.
        -11    1    4    4    0    0 -0.33348292416E+02 -0.35612659645E+02  0.78547243351E+02  0.92466424026E+02  0.00000000000E+00 0.  1.
         11    1    4    4    0    0 -0.19462724001E+02  0.40148610127E+02  0.11137245680E+02  0.45986375830E+02  0.00000000000E+00 0. -1.
          1    1    1    2  501    0  0.29097816678E+02 -0.18973307238E+03 -0.22459129630E+03  0.29544300984E+03  0.00000000000E+00 0. -1.
<scales pt_clust_5="13000.00000" pt_clust_6="13000.00000" pt_clust_7="13000.00000" pt_clust_8="13000.00000" pt_clust_9="13000.00000"></scales>
<clustering>
<clus scale="   74.086">  5  6 -1 -1</clus>
<clus scale="   91.194">  7  8 -1 -1</clus>
<clus scale="  191.951">  7  9 -1 -1</clus>
<clus scale="  200.871">  1  5  2 -1</clus>
<clus scale="  412.390">  2  5  1 -1</clus>
</clustering>
</event>
<event>
 9    2  0.4178938E-005  0.2610958E+03  0.7546771E-02  0.1137690E+00
          2   -1    0    0  502    0 -0.00000000000E+00  0.00000000000E+00  0.73791819529E+03  0.73791819529E+03  0.00000000000E+00 0. -1.
         21   -1    0    0  501  502  0.00000000000E+00 -0.00000000000E+00 -0.90269738588E+02  0.90269738588E+02  0.00000000000E+00 0.  1.
         24    2    1    2    0    0  0.43398282563E+02 -0.76265242497E+02  0.52714334404E+03  0.54062486508E+03  0.81825066055E+02 0.  0.
         23    2    1    2    0    0 -0.11276278631E+03 -0.87515476416E+01  0.10073987677E+03  0.17607336732E+03  0.89784588564E+02 0.  0.
        -13    1    3    3    0    0 -0.18434752318E+02 -0.11413809744E+02  0.41899188555E+02  0.47176870895E+02  0.00000000000E+00 0.  1.
         14    1    3    3    0    0  0.61833034882E+02 -0.64851432753E+02  0.48524415549E+03  0.49344799419E+03  0.00000000000E+00 0. -1.
        -13    1    4    4    0    0 -0.11101615152E+03  0.19108249260E+02  0.62801067601E+02  0.12897164487E+03  0.00000000000E+00 0.  1.
         13    1    4    4    0    0 -0.17466347917E+01 -0.27859796902E+02  0.37938809167E+02  0.47101722448E+02  0.00000000000E+00 0. -1.
          1    1    1    2  501    0  0.69364503749E+02  0.85016790139E+02  0.19765235888E+02  0.11148970148E+03  0.00000000000E+00 0. -1.
<scales pt_clust_5="13000.00000" pt_clust_6="13000.00000" pt_clust_7="13000.00000" pt_clust_8="13000.00000" pt_clust_9="13000.00000"></scales>
<clustering>
<clus scale="   81.825">  5  6 -1 -1</clus>
<clus scale="   89.785">  7  8 -1 -1</clus>
<clus scale="  109.724">  7  9 -1 -1</clus>
<clus scale="  119.980">  1  5  2 -1</clus>
<clus scale="  261.096">  2  5  1 -1</clus>
</clustering>
</event>
<event>
 9    2  0.4178938E-005  0.3674671E+03  0.7546771E-02  0.1093513E+00
         21   -1    0    0  501  502  0.00000000000E+00  0.00000000000E+00  0.15807097340E+03  0.15807097340E+03  0.00000000000E+00 0. -1.
          2   -1    0    0  502    0 -0.00000000000E+00 -0.00000000000E+00 -0.50423226470E+03  0.50423226470E+03  0.00000000000E+00 0. -1.
         24    2    1    2    0    0 -0.90707775420E+02 -0.52378571012E+02 -0.25024216772E+03  0.28252366174E+03  0.78911733691E+02 0.  0.
         23    2    1    2    0    0 -0.11924087442E+03 -0.17115165040E+02 -0.41097761267E+02  0.15193489969E+03  0.82969107240E+02 0.  0.
        -11    1    3    3    0    0 -0.51247086224E+02 -0.84766111279E+01 -0.44236471326E+02  0.68227429807E+02  0.00000000000E+00 0.  1.
         12    1    3    3    0    0 -0.39460689196E+02 -0.43901959885E+02 -0.20600569639E+03  0.21429623193E+03  0.00000000000E+00 0. -1.
        -13    1    4    4    0    0 -0.75141121819E+02 -0.49480794736E+02 -0.14577129357E+02  0.91142909413E+02  0.00000000000E+00 0. -1.
         13    1    4    4    0    0 -0.44099752603E+02  0.32365629696E+02 -0.26520631909E+02  0.60791990280E+02  0.00000000000E+00 0.  1.
          1    1    1    2  501    0  0.20994864984E+03  0.69493736052E+02 -0.54821362318E+02  0.22784467667E+03  0.00000000000E+00 0. -1.
<scales pt_clust_5="13000.00000" pt_clust_6="13000.00000" pt_clust_7="13000.00000" pt_clust_8="13000.00000" pt_clust_9="13000.00000"></scales>
<clustering>
<clus scale="   78.912">  5  6 -1 -1</clus>
<clus scale="   82.969">  7  8 -1 -1</clus>
<clus scale="  131.143">  2  5  1 -1</clus>
<clus scale="  160.697">  7  9 -1 -1</clus>
<clus scale="  367.467">  1  5  2 -1</clus>
</clustering>
</event>
<event>
 9    2  0.4178938E-005  0.2453047E+03  0.7546771E-02  0.1133898E+00
         21   -1    0    0  501  502  0.00000000000E+00  0.00000000000E+00  0.92509247630E+02  0.92509247630E+02  0.00000000000E+00 0.  1.
          2   -1    0    0  502    0 -0.00000000000E+00 -0.00000000000E+00 -0.63532091849E+03  0.63532091849E+03  0.00000000000E+00 0. -1.
         24    2    1    2    0    0  0.11154938869E+03  0.79634709424E+02 -0.32951373921E+02  0.16202815767E+03  0.79889785147E+02 0.  0.
         23    2    1    2    0    0  0.16367732758E+02 -0.31225829703E+02 -0.12211189517E+03  0.15463898401E+03  0.88084875642E+02 0.  0.
        -13    1    3    3    0    0  0.95949875462E+02  0.76422873606E+02 -0.55324929637E+02  0.13456478756E+03  0.00000000000E+00 0.  1.
         14    1    3    3    0    0  0.15599513231E+02  0.32118358179E+01  0.22373555716E+02  0.27463370109E+02  0.00000000000E+00 0. -1.
        -13    1    4    4    0    0 -0.17077102726E+01  0.30131433344E+02 -0.48454466720E+02  0.57084629235E+02  0.00000000000E+00 0. -1.
         13    1    4    4    0    0  0.18075443031E+02 -0.61357263047E+02 -0.73657428449E+02  0.97554354773E+02  0.00000000000E+00 0.  1.
          1    1    1    2  501    0 -0.12791712145E+03 -0.48408879720E+02 -0.38774840177E+03  0.41116302445E+03  0.00000000000E+00 0. -1.
<scales pt_clust_5="13000.00000" pt_clust_6="13000.00000" pt_clust_7="13000.00000" pt_clust_8="13000.00000" pt_clust_9="13000.00000"></scales>
<clustering>
<clus scale="   79.890">  5  6 -1 -1</clus>
<clus scale="   88.085">  7  8 -1 -1</clus>
<clus scale="  136.771">  7  9 -1 -1</clus>
<clus scale="  158.642">  2  5  1 -1</clus>
<clus scale="  245.305">  1  5  2 -1</clus>
</clustering>
</event>
<event>
 9    2  0.4178938E-005  0.2760318E+03  0.7546771E-02  0.1123614E+00
          2   -1    0    0  502    0 -0.00000000000E+00  0.00000000000E+00  0.14723306376E+03  0.14723306376E+03  0.00000000000E+00 0. -1.
         21   -1    0    0  501  502  0.00000000000E+00 -0.00000000000E+00 -0.30054290211E+03  0.30054290211E+03  0.00000000000E+00 0. -1.
         24    2    1    2    0    0 -0.60596499783E+02  0.99863794879E+02 -0.36078060362E+02  0.14788128053E+03  0.83201763066E+02 0.  0.
         23    2    1    2    0    0  0.13724525853E+03 -0.21437251250E+02 -0.79803475580E+02  0.18402133732E+03  0.90550765566E+02 0.  0.
        -13    1    3    3    0    0 -0.75488123809E+02  0.48016936060E+02 -0.21957456460E+02  0.92120643066E+02  0.00000000000E+00 0.  1.
         14    1    3    3    0    0  0.14891624026E+02  0.51846858818E+02 -0.14120603903E+02  0.55760637461E+02  0.00000000000E+00 0. -1.
        -11    1    4    4    0    0  0.11988478969E+03 -0.36885347077E+02 -0.29859920432E+02  0.12893605577E+03  0.00000000000E+00 0. -1.
         11    1    4    4    0    0  0.17360468836E+02  0.15448095827E+02 -0.49943555149E+02  0.55085281553E+02  0.00000000000E+00 0.  1.
          1    1    1    2  501    0 -0.76648758744E+02 -0.78426543629E+02 -0.37428302406E+02  0.11587334803E+03  0.00000000000E+00 0. -1.
<scales pt_clust_5="13000.00000" pt_clust_6="13000.00000" pt_clust_7="13000.00000" pt_clust_8="13000.00000" pt_clust_9="13000.00000"></scales>
<clustering>
<clus scale="   83.202">  5  6 -1 -1</clus>
<clus scale="   90.551">  7  8 -1 -1</clus>
<clus scale="  109.662">  7  9 -1 -1</clus>
<clus scale="  143.413">  1  5  2 -1</clus>
<clus scale="  276.032">  2  5  1 -1</clus>
</clustering>
</event>
<event>
 9    2  0.4178938E-005  0.5554005E+03  0.7546771E-02  0.1046094E+00
          2   -1    0    0  502    0 -0.00000000000E+00  0.00000000000E+00  0.23913384929E+04  0.23913384929E+04  0.00000000000E+00 0. -1.
         21   -1    0    0  501  502  0.00000000000E+00 -0.00000000000E+00 -0.51657802291E+02  0.51657802291E+02  0.00000000000E+00 0. -1.
         24    2    1    2    0    0 -0.94967491904E+01  0.11321116330E+03  0.63174187313E+03  0.64702171183E+03  0.81439214011E+02 0.  0.
         23    2    1    2    0    0 -0.14221827839E+03  0.38271756470E+02  0.16719414834E+03  0.24038509379E+03  0.90223855075E+02 0.  0.
        -13    1    3    3    0    0 -0.35661869679E+02  0.36284942445E+02  0.14793134738E+03  0.15643544846E+03  0.00000000000E+00 0.  1.
         14    1    3    3    0    0  0.26165120489E+02  0.76926220850E+02  0.48381052575E+03  0.49058626337E+03  0.00000000000E+00 0. -1.
        -11    1    4    4    0    0 -0.18058389541E+02 -0.26745746073E+02  0.36926455470E+02  0.49040834816E+02  0.00000000000E+00 0.  1.
         11    1    4    4    0    0 -0.12415988885E+03  0.65017502543E+02  0.13026769287E+03  0.19134425897E+03  0.00000000000E+00 0. -1.
          1    1    1    2  501    0  0.15171502758E+03 -0.15148291977E+03  0.15407446691E+04  0.15555894896E+04  0.00000000000E+00 0. -1.
<scales pt_clust_5="13000.00000" pt_clust_6="13000.00000" pt_clust_7="13000.00000" pt_clust_8="13000.00000" pt_clust_9="13000.00000"></scales>
<clustering>
<clus scale="   81.439">  5  6 -1 -1</clus>
<clus scale="   90.224">  7  8 -1 -1</clus>
<clus scale="  139.783">  1  5  2 -1</clus>
<clus scale="  152.275">  7  9 -1 -1</clus>
<clus scale="  555.400">  2  5  1 -1</clus>
</clustering>
</event>
<event>
 9    2  0.4558702E-005  0.2818382E+03  0.7546771E-02  0.1136089E+00
         21   -1    0    0  501  502  0.00000000000E+00  0.00000000000E+00  0.33417420446E+03  0.33417420446E+03  0.00000000000E+00 0.  1.
         -1   -1    0    0    0  501 -0.00000000000E+00 -0.00000000000E+00 -0.24868914298E+03  0.24868914298E+03  0.00000000000E+00 0.  1.
         24    2    1    2    0    0  0.22825889632E+02 -0.53800939768E+02 -0.17366905086E+03  0.19998787310E+03  0.80116464000E+02 0.  0.
         23    2    1    2    0    0 -0.24817127639E+02  0.99874132125E+01 -0.28420563978E+02  0.91975517999E+02  0.83283426968E+02 0.  0.
        -11    1    3    3    0    0  0.11911510245E+02 -0.43252361936E+02 -0.17850587572E+03  0.18405705245E+03  0.00000000000E+00 0.  1.
         12    1    3    3    0    0  0.10914379387E+02 -0.10548577832E+02  0.48368248674E+01  0.15930820647E+02  0.00000000000E+00 0. -1.
        -13    1    4    4    0    0  0.46920744551E+01 -0.31069075271E+02 -0.26945633798E+02  0.41392875978E+02  0.00000000000E+00 0.  1.
         13    1    4    4    0    0 -0.29509202094E+02  0.41056488484E+02 -0.14749301793E+01  0.50582642021E+02  0.00000000000E+00 0. -1.
         -2    1    1    2    0  502  0.19912380064E+01  0.43813526556E+02  0.28757467632E+03  0.29089995634E+03  0.00000000000E+00 0.  1.
<scales pt_clust_5="13000.00000" pt_clust_6="13000.00000" pt_clust_7="13000.00000" pt_clust_8="13000.00000" pt_clust_9="13000.00000"></scales>
<clustering>
<clus scale="   80.116">  5  6 -1 -1</clus>
<clus scale="   83.283">  7  8 -1 -1</clus>
<clus scale="   43.859">  7  9 -1 -1</clus>
<clus scale="   99.168">  2  5  1 -1</clus>
<clus scale="  281.838">  1  5  2 -1</clus>
</clustering>
</event>
<event>
 9    2  0.4178938E-005  0.1358478E+03  0.7546771E-02  0.1237804E+00
         21   -1    0    0  501  502  0.00000000000E+00  0.00000000000E+00  0.16273861763E+03  0.16273861763E+03  0.00000000000E+00 0. -1.
          2   -1    0    0  502    0 -0.00000000000E+00 -0.00000000000E+00 -0.13601228217E+03  0.13601228217E+03  0.00000000000E+00 0. -1.
         24    2    1    2    0    0 -0.38736642237E+02 -0.15550674889E+02  0.10683061603E+03  0.14104443929E+03  0.82087772494E+02 0.  0.
         23    2    1    2    0    0  0.57757215981E+02 -0.57308605669E+01 -0.60578471530E+02  0.12312404886E+03  0.90116821035E+02 0.  0.
        -13    1    3    3    0    0 -0.51350445373E+02 -0.35258444211E+02  0.50986173039E+02  0.80496061825E+02  0.00000000000E+00 0.  1.
         14    1    3    3    0    0  0.12613803135E+02  0.19707769322E+02  0.55844442990E+02  0.60548377468E+02  0.00000000000E+00 0. -1.
        -13    1    4    4    0    0 -0.67765655841E+01 -0.32409552561E+02 -0.36447039560E+02  0.49241117280E+02  0.00000000000E+00 0.  1.
         13    1    4    4    0    0  0.64533781565E+02  0.26678691994E+02 -0.24131431971E+02  0.73882931578E+02  0.00000000000E+00 0. -1.
          1    1    1    2  501    0 -0.19020573744E+02  0.21281535456E+02 -0.19525809038E+02  0.34582411649E+02  0.00000000000E+00 0. -1.
<scales pt_clust_5="13000.00000" pt_clust_6="13000.00000" pt_clust_7="13000.00000" pt_clust_8="13000.00000" pt_clust_9="13000.00000"></scales>
<clustering>
<clus scale="   82.088">  5  6 -1 -1</clus>
<clus scale="   90.117">  7  8 -1 -1</clus>
<clus scale="   28.543">  7  9 -1 -1</clus>
<clus scale="   92.091">  2  5  1 -1</clus>
<clus scale="  135.848">  1  5  2 -1</clus>
</clustering>
</event>
<event>
 9    2  0.4178938E-005  0.1982673E+03  0.7546771E-02  0.1188121E+00
         21   -1    0    0  501  502  0.00000000000E+00  0.00000000000E+00  0.95870745065E+02  0.95870745065E+02  0.00000000000E+00 0.  1.
          2   -1    0    0  502    0 -0.00000000000E+00 -0.00000000000E+00 -0.24468340730E+03  0.24468340730E+03  0.00000000000E+00 0. -1.
         24    2    1    2    0    0 -0.60858174875E+01 -0.23550039617E+02 -0.10900511297E+03  0.13833008150E+03  0.81617738598E+02 0.  0.
         23    2    1    2    0    0  0.36114349598E+02 -0.30717662469E+02  0.31231795470E+02  0.10791985712E+03  0.91779352129E+02 0.  0.
        -13    1    3    3    0    0 -0.40797551796E+02 -0.23850519246E+02 -0.43668957164E+02  0.64344893509E+02  0.00000000000E+00 0.  1.
         14    1    3    3    0    0  0.34711734308E+02  0.30047962814E+00 -0.65336155808E+02  0.73985187994E+02  0.00000000000E+00 0. -1.
        -11    1    4    4    0    0  0.59081329237E+02 -0.36948942629E+02  0.42466274064E+02  0.81603996585E+02  0.00000000000E+00 0.  1.
         11    1    4    4    0    0 -0.22966979639E+02  0.62312801600E+01 -0.11234478594E+02  0.26315860531E+02  0.00000000000E+00 0. -1.
          1    1    1    2  501    0 -0.30028532110E+02  0.54267702086E+02 -0.71039344738E+02  0.94304213751E+02  0.00000000000E+00 0. -1.
<scales pt_clust_5="13000.00000" pt_clust_6="13000.00000" pt_clust_7="13000.00000" pt_clust_8="13000.00000" pt_clust_9="13000.00000"></scales>
<clustering>
<clus scale="   81.618">  5  6 -1 -1</clus>
<clus scale="   85.165">  2  5  1 -1</clus>
<clus scale="   91.779">  7  8 -1 -1</clus>
<clus scale="   51.248">  7  9 -1 -1</clus>
<clus scale="  198.267">  1  5  2 -1</clus>
</clustering>
</event>
<event>
 9    2  0.4178938E-005  0.7267321E+03  0.7546771E-02  0.1017204E+00
         21   -1    0    0  501  502  0.00000000000E+00  0.00000000000E+00  0.22756124140E+03  0.22756124140E+03  0.00000000000E+00 0. -1.
          2   -1    0    0  502    0 -0.00000000000E+00 -0.00000000000E+00 -0.10064992645E+04  0.10064992645E+04  0.00000000000E+00 0. -1.
         24    2    1    2    0    0 -0.48094021586E+02 -0.11326793278E+03 -0.37489302036E+03  0.40256069729E+03  0.79797736728E+02 0.  0.
         23    2    1    2    0    0 -0.10918123028E+03 -0.25068685609E+03 -0.37191575281E+02  0.29133313947E+03  0.93420254880E+02 0.  0.
        -11    1    3    3    0    0  0.15034248274E+01 -0.92033422303E+02 -0.21740364989E+03  0.23608633610E+03  0.00000000000E+00 0.  1.
         12    1    3    3    0    0 -0.49597446414E+02 -0.21234510474E+02 -0.15748937047E+03  0.16647436120E+03  0.00000000000E+00 0. -1.
        -11    1    4    4    0    0 -0.48162587177E+02 -0.30233096484E+02 -0.25418553670E+02  0.62287862359E+02  0.00000000000E+00 0.  1.
         11    1    4    4    0    0 -0.61018643101E+02 -0.22045375961E+03 -0.11773021612E+02  0.22904527712E+03  0.00000000000E+00 0. -1.
          1    1    1    2  501    0  0.15727525186E+03  0.36395478887E+03 -0.36685342742E+03  0.54016666909E+03  0.00000000000E+00 0. -1.
<scales pt_clust_5="13000.00000" pt_clust_6="13000.00000" pt_clust_7="13000.00000" pt_clust_8="13000.00000" pt_clust_9="13000.00000"></scales>
<clustering>
<clus scale="   79.798">  5  6 -1 -1</clus>
<clus scale="   93.420">  7  8 -1 -1</clus>
<clus scale="  146.664">  2  5  1 -1</clus>
<clus scale="  306.150">  7  9 -1 -1</clus>
<clus scale="  726.732">  1  5  2 -1</clus>
</clustering>
</event>
<event>
 9    2  0.4178938E-005  0.1777773E+03  0.7546771E-02  0.1206349E+00
         21   -1    0    0  501  502  0.00000000000E+00  0.00000000000E+00  0.35941035547E+02  0.35941035547E+02  0.00000000000E+00 0. -1.
          2   -1    0    0  502    0 -0.00000000000E+00 -0.00000000000E+00 -0.45993836991E+03  0.45993836991E+03  0.00000000000E+00 0. -1.
         24    2    1    2    0    0 -0.46359584968E+01 -0.19905326656E+01 -0.13056273773E+03  0.15279248355E+03  0.79205177952E+02 0.  0.
         23    2    1    2    0    0  0.69112517998E+02  0.13181518378E+01 -0.17443857943E+03  0.20774390978E+03  0.89165219616E+02 0.  0.
        -11    1    3    3    0    0  0.13731326145E+01  0.27338688784E+02 -0.10936857454E+02  0.29477181829E+02  0.00000000000E+00 0.  1.
         12    1    3    3    0    0 -0.60090911113E+01 -0.29329221449E+02 -0.11962588028E+03  0.12331530172E+03  0.00000000000E+00 0. -1.
        -11    1    4    4    0    0  0.13115015088E+02  0.20488063609E+02 -0.13369042330E+03  0.13588559031E+03  0.00000000000E+00 0.  1.
         11    1    4    4    0    0  0.55997502910E+02 -0.19169911772E+02 -0.40748156129E+02  0.71858319473E+02  0.00000000000E+00 0. -1.
          1    1    1    2  501    0 -0.64476559502E+02  0.67238082777E+00 -0.11899601720E+03  0.13534301212E+03  0.00000000000E+00 0. -1.
<scales pt_clust_5="13000.00000" pt_clust_6="13000.00000" pt_clust_7="13000.00000" pt_clust_8="13000.00000" pt_clust_9="13000.00000"></scales>
<clustering>
<clus scale="   79.205">  5  6 -1 -1</clus>
<clus scale="   79.366">  2  5  1 -1</clus>
<clus scale="   89.165">  7  8 -1 -1</clus>
<clus scale="   66.329">  7  9 -1 -1</clus>
<clus scale="  177.777">  1  5  2 -1</clus>
</clustering>
</event>
<event>
 9    2  0.4178938E-005  0.2648774E+03  0.7546771E-02  0.1141606E+00
          2   -1    0    0  502    0 -0.00000000000E+00  0.00000000000E+00  0.32622575917E+03  0.32622575917E+03  0.00000000000E+00 0. -1.
         21   -1    0    0  501  502  0.00000000000E+00 -0.00000000000E+00 -0.10465247892E+03  0.10465247892E+03  0.00000000000E+00 0. -1.
         24    2    1    2    0    0 -0.10495190008E+02 -0.65815674089E+02  0.67578329414E+02  0.12448879311E+03  0.80552945531E+02 0.  0.
         23    2    1    2    0    0  0.19625125583E+02 -0.69203911780E+02  0.23798942830E+02  0.11860061466E+03  0.91243570497E+02 0.  0.
        -13    1    3    3    0    0 -0.39994675599E+02 -0.26636585767E+02  0.56572112729E+02  0.74225910006E+02  0.00000000000E+00 0.  1.
         14    1    3    3    0    0  0.29499485591E+02 -0.39179088321E+02  0.11006216685E+02  0.50262883101E+02  0.00000000000E+00 0. -1.
        -13    1    4    4    0    0  0.26276464940E+02 -0.22458649080E+02  0.52859333622E+02  0.63158156078E+02  0.00000000000E+00 0.  1.
         13    1    4    4    0    0 -0.66513393564E+01 -0.46745262701E+02 -0.29060390792E+02  0.55442458578E+02  0.00000000000E+00 0. -1.
          1    1    1    2  501    0 -0.91299355756E+01  0.13501958587E+03  0.13019600801E+03  0.18778883032E+03  0.00000000000E+00 0. -1.
<scales pt_clust_5="13000.00000" pt_clust_6="13000.00000" pt_clust_7="13000.00000" pt_clust_8="13000.00000" pt_clust_9="13000.00000"></scales>
<clustering>
<clus scale="   80.553">  5  6 -1 -1</clus>
<clus scale="   91.244">  7  8 -1 -1</clus>
<clus scale="  104.550">  1  5  2 -1</clus>
<clus scale="   91.046">  7  9 -1 -1</clus>
<clus scale="  264.877">  2  5  1 -1</clus>
</clustering>
</event>
<event>
 9    2  0.4178938E-005  0.2378253E+03  0.7546771E-02  0.1127002E+00
         21   -1    0    0  501  502  0.00000000000E+00  0.00000000000E+00  0.25729199379E+03  0.25729199379E+03  0.00000000000E+00 0. -1.
          2   -1    0    0  502    0 -0.00000000000E+00 -0.00000000000E+00 -0.31820902823E+03  0.31820902823E+03  0.00000000000E+00 0. -1.
         24    2    1    2    0    0  0.69879717976E+02 -0.15976555645E+03 -0.21041348283E+03  0.29459165807E+03  0.11001001426E+03 0.  0.
         23    2    1    2    0    0  0.59728930530E+01  0.62446525185E+02  0.49581916853E+02  0.12214058219E+03  0.92329363588E+02 0.  0.
        -11    1    3    3    0    0  0.65522557614E+02 -0.60017272215E+02 -0.15934735973E+03  0.18244686781E+03  0.00000000000E+00 0.  1.
         12    1    3    3    0    0  0.43571603620E+01 -0.99748284236E+02 -0.51066123094E+02  0.11214479026E+03  0.00000000000E+00 0. -1.
        -13    1    4    4    0    0  0.24320992249E+02  0.59644998296E+01  0.57032109041E+02  0.62287618223E+02  0.00000000000E+00 0. -1.
         13    1    4    4    0    0 -0.18348099196E+02  0.56482025356E+02 -0.74501921880E+01  0.59852963970E+02  0.00000000000E+00 0.  1.
          1    1    1    2  501    0 -0.75852611029E+02  0.97319031266E+02  0.99914531539E+02  0.15876878175E+03  0.00000000000E+00 0. -1.
<scales pt_clust_5="13000.00000" pt_clust_6="13000.00000" pt_clust_7="13000.00000" pt_clust_8="13000.00000" pt_clust_9="13000.00000"></scales>
<clustering>
<clus scale="   92.329">  7  8 -1 -1</clus>
<clus scale="  110.010">  5  6 -1 -1</clus>
<clus scale="  123.388">  7  9 -1 -1</clus>
<clus scale="  206.181">  2  5  1 -1</clus>
<clus scale="  237.825">  1  5  2 -1</clus>
</clustering>
</event>
<event>
 9    2  0.4178938E-005  0.3970006E+03  0.7546771E-02  0.1090822E+00
          2   -1    0    0  502    0 -0.00000000000E+00  0.00000000000E+00  0.11154277767E+04  0.11154277767E+04  0.00000000000E+00 0. -1.
         21   -1    0    0  501  502  0.00000000000E+00 -0.00000000000E+00 -0.58385219121E+02  0.58385219121E+02  0.00000000000E+00 0. -1.
         24    2    1    2    0    0 -0.45044731382E+02 -0.55613576300E+02  0.19369100600E+03  0.22355755805E+03  0.85673089498E+02 0.  0.
         23    2    1    2    0    0  0.82527465700E+02 -0.97633375575E+02  0.13772149434E+03  0.20767307627E+03  0.88418538694E+02 0.  0.
        -13    1    3    3    0    0 -0.65132774052E+02 -0.16511566858E+02  0.10679638805E+03  0.12617598264E+03  0.00000000000E+00 0.  1.
         14    1    3    3    0    0  0.20088042670E+02 -0.39102009442E+02  0.86894617952E+02  0.97381575412E+02  0.00000000000E+00 0. -1.
        -11    1    4    4    0    0  0.38704651765E+02  0.48698896634E+01  0.60776258174E+02  0.72218553373E+02  0.00000000000E+00 0.  1.
         11    1    4    4    0    0  0.43822813935E+02 -0.10250326524E+03  0.76945236166E+02  0.13545452290E+03  0.00000000000E+00 0. -1.
          1    1    1    2  501    0 -0.37482734319E+02  0.15324695188E+03  0.72563005727E+03  0.74258236153E+03  0.00000000000E+00 0. -1.
<scales pt_clust_5="13000.00000" pt_clust_6="13000.00000" pt_clust_7="13000.00000" pt_clust_8="13000.00000" pt_clust_9="13000.00000"></scales>
<clustering>
<clus scale="   85.673">  5  6 -1 -1</clus>
<clus scale="   88.419">  7  8 -1 -1</clus>
<clus scale="  111.632">  1  5  2 -1</clus>
<clus scale="  131.077">  7  9 -1 -1</clus>
<clus scale="  397.001">  2  5  1 -1</clus>
</clustering>
</event>
<event>
 9    2  0.4178938E-005  0.1471029E+03  0.7546771E-02  0.1216873E+00
         21   -1    0    0  501  502  0.00000000000E+00  0.00000000000E+00  0.21731835570E+03  0.21731835570E+03  0.00000000000E+00 0.  1.
         -1   -1    0    0    0  501 -0.00000000000E+00 -0.00000000000E+00 -0.77233237430E+02  0.77233237430E+02  0.00000000000E+00 0.  1.
         24    2    1    2    0    0 -0.32652290809E+02  0.70693157948E+02  0.57871161996E+02  0.12603332574E+03  0.80446461274E+02 0.  0.
         23    2    1    2    0    0  0.59905120633E+01 -0.31975767124E+02  0.55408929951E+02  0.11440360917E+03  0.94655693725E+02 0.  0.
        -13    1    3    3    0    0 -0.10956536012E+02  0.66671694408E+02  0.72853717080E+02  0.99362088389E+02  0.00000000000E+00 0.  1.
         14    1    3    3    0    0 -0.21695754797E+02  0.40214635400E+01 -0.14982555084E+02  0.26671237355E+02  0.00000000000E+00 0. -1.
        -11    1    4    4    0    0 -0.38183520934E+02 -0.39598428954E+02  0.26464230830E+02  0.61044019854E+02  0.00000000000E+00 0. -1.
         11    1    4    4    0    0  0.44174032997E+02  0.76226618297E+01  0.28944699121E+02  0.53359589314E+02  0.00000000000E+00 0.  1.
         -2    1    1    2    0  502  0.26661778745E+02 -0.38717390824E+02  0.26805026326E+02  0.54114658221E+02  0.00000000000E+00 0.  1.
<scales pt_clust_5="13000.00000" pt_clust_6="13000.00000" pt_clust_7="13000.00000" pt_clust_8="13000.00000" pt_clust_9="13000.00000"></scales>
<clustering>
<clus scale="   80.446">  5  6 -1 -1</clus>
<clus scale="   94.656">  7  8 -1 -1</clus>
<clus scale="   47.009">  7  9 -1 -1</clus>
<clus scale="  111.961">  2  5  1 -1</clus>
<clus scale="  147.103">  1  5  2 -1</clus>
</clustering>
</event>
<event>
 9    2  0.4178938E-005  0.3714887E+03  0.7546771E-02  0.1096715E+00
          2   -1    0    0  502    0 -0.00000000000E+00  0.00000000000E+00  0.14669989798E+04  0.14669989798E+04  0.00000000000E+00 0. -1.
         21   -1    0    0  501  502  0.00000000000E+00 -0.00000000000E+00 -0.21698169411E+03  0.21698169411E+03  0.00000000000E+00 0. -1.
         24    2    1    2    0    0 -0.63092839163E+02  0.56131114859E+02  0.13034528840E+04  0.13086684668E+04  0.80574975474E+02 0.  0.
         23    2    1    2    0    0 -0.82147135203E+01  0.12404120227E+03 -0.86866516898E+02  0.17867940916E+03  0.94481945995E+02 0.  0.
        -11    1    3    3    0    0  0.12290765359E+00  0.31246465663E+02  0.15017489263E+03  0.15339118325E+03  0.00000000000E+00 0.  1.
         12    1    3    3    0    0 -0.63215746816E+02  0.24884649196E+02  0.11532779914E+04  0.11552772835E+04  0.00000000000E+00 0. -1.
        -11    1    4    4    0    0 -0.42684634601E+02  0.25280599958E+02 -0.15218542830E+02  0.51891143860E+02  0.00000000000E+00 0.  1.
         11    1    4    4    0    0  0.34469921080E+02  0.98760602314E+02 -0.71647974068E+02  0.12678826530E+03  0.00000000000E+00 0. -1.
          1    1    1    2  501    0  0.71307552683E+02 -0.18017231713E+03  0.33430918595E+02  0.19663279800E+03  0.00000000000E+00 0. -1.
<scales pt_clust_5="13000.00000" pt_clust_6="13000.00000" pt_clust_7="13000.00000" pt_clust_8="13000.00000" pt_clust_9="13000.00000"></scales>
<clustering>
<clus scale="   80.575">  5  6 -1 -1</clus>
<clus scale="   94.482">  7  8 -1 -1</clus>
<clus scale="  116.721">  1  5  2 -1</clus>
<clus scale="  142.484">  7  9 -1 -1</clus>
<clus scale="  371.489">  2  5  1 -1</clus>
</clustering>
</event>
<event>
 9    2  0.4178938E-005  0.2886195E+03  0.7546771E-02  0.1117020E+00
          2   -1    0    0  502    0 -0.00000000000E+00  0.00000000000E+00  0.64265203088E+03  0.64265203088E+03  0.00000000000E+00 0. -1.
         21   -1    0    0  501  502  0.00000000000E+00 -0.00000000000E+00 -0.82092002465E+02  0.82092002465E+02  0.00000000000E+00 0.  1.
         24    2    1    2    0    0  0.12446183393E+03 -0.96142939836E+00  0.30608129236E+03  0.33995755385E+03  0.79960668054E+02 0.  0.
         23    2    1    2    0    0  0.34460711104E+01  0.48858291329E+02  0.70536579970E+01  0.10216710506E+03  0.89383193199E+02 0.  0.
        -13    1    3    3    0    0  0.13331388419E+03 -0.82655742673E+01  0.29576010301E+03  0.32452264939E+03  0.00000000000E+00 0.  1.
         14    1    3    3    0    0 -0.88520502585E+01  0.73041448690E+01  0.10321189347E+02  0.15434904457E+02  0.00000000000E+00 0. -1.
        -11    1    4    4    0    0  0.18889521104E+02 -0.18481127680E+02  0.18335341752E+02  0.32164434474E+02  0.00000000000E+00 0. -1.
         11    1    4    4    0    0 -0.15443449993E+02  0.67339419009E+02 -0.11281683755E+02  0.70002670581E+02  0.00000000000E+00 0.  1.
          1    1    1    2  501    0 -0.12790790505E+03 -0.47896861931E+02  0.24742507806E+03  0.28261937444E+03  0.00000000000E+00 0. -1.
<scales pt_clust_5="13000.00000" pt_clust_6="13000.00000" pt_clust_7="13000.00000" pt_clust_8="13000.00000" pt_clust_9="13000.00000"></scales>
<clustering>
<clus scale="   79.961">  5  6 -1 -1</clus>
<clus scale="   89.383">  7  8 -1 -1</clus>
<clus scale="  136.582">  7  9 -1 -1</clus>
<clus scale="  147.937">  1  5  2 -1</clus>
<clus scale="  288.619">  2  5  1 -1</clus>
</clustering>
</event>
<event>
 9    2  0.4178938E-005  0.2590257E+03  0.7546771E-02  0.1131146E+00
         21   -1    0    0  501  502  0.00000000000E+00  0.00000000000E+00  0.77553631918E+02  0.77553631918E+02  0.00000000000E+00 0.  1.
          2   -1    0    0  502    0 -0.00000000000E+00 -0.00000000000E+00 -0.53763190832E+03  0.53763190832E+03  0.00000000000E+00 0. -1.
         24    2    1    2    0    0  0.17187160092E+01 -0.11969223576E+03 -0.11899563995E+03  0.18689629281E+03  0.80256318467E+02 0.  0.
         23    2    1    2    0    0 -0.56262376776E+02 -0.14264248743E+02 -0.96929401244E+02  0.14451089566E+03  0.90106416567E+02 0.  0.
        -13    1    3    3    0    0 -0.36184599733E-01 -0.80600633985E+02 -0.23908013577E+02  0.84071734973E+02  0.00000000000E+00 0.  1.
         14    1    3    3    0    0  0.17549006090E+01 -0.39091601771E+02 -0.95087626372E+02  0.10282455784E+03  0.00000000000E+00 0. -1.
        -11    1    4    4    0    0 -0.14775864075E+02  0.28309937588E+02 -0.13608589833E+01  0.31962957663E+02  0.00000000000E+00 0.  1.
         11    1    4    4    0    0 -0.41486512701E+02 -0.42574186330E+02 -0.95568542261E+02  0.11254793800E+03  0.00000000000E+00 0. -1.
          1    1    1    2  501    0  0.54543660767E+02  0.13395648450E+03 -0.24415323521E+03  0.28377835176E+03  0.00000000000E+00 0. -1.
<scales pt_clust_5="13000.00000" pt_clust_6="13000.00000" pt_clust_7="13000.00000" pt_clust_8="13000.00000" pt_clust_9="13000.00000"></scales>
<clustering>
<clus scale="   80.256">  5  6 -1 -1</clus>
<clus scale="   90.106">  7  8 -1 -1</clus>
<clus scale="  144.119">  2  5  1 -1</clus>
<clus scale="   76.098">  7  9 -1 -1</clus>
<clus scale="  259.026">  1  5  2 -1</clus>
</clustering>
</event>
<event>
 9    2  0.4178938E-005  0.3527835E+03  0.7546771E-02  0.1096845E+00
          2   -1    0    0  502    0 -0.00000000000E+00  0.00000000000E+00  0.47710141662E+03  0.47710141662E+03  0.00000000000E+00 0. -1.
         21   -1    0    0  501  502  0.00000000000E+00 -0.00000000000E+00 -0.24759976480E+03  0.24759976480E+03  0.00000000000E+00 0. -1.
         24    2    1    2    0    0 -0.10481077752E+03  0.20736881750E+02  0.33085129625E+03  0.35764816899E+03  0.83870824492E+02 0.  0.
         23    2    1    2    0    0 -0.94632005182E+02 -0.50285011588E+02  0.32564020970E+01  0.13991221795E+03  0.89894525881E+02 0.  0.
        -11    1    3    3    0    0 -0.23107241667E+02  0.14302514780E+02  0.14397279312E+02  0.30753669669E+02  0.00000000000E+00 0.  1.
         12    1    3    3    0    0 -0.81703535852E+02  0.64343669696E+01  0.31645401694E+03  0.32689449932E+03  0.00000000000E+00 0. -1.
        -13    1    4    4    0    0 -0.83235904675E+02 -0.14688734671E+02 -0.30194228459E+02  0.89753363087E+02  0.00000000000E+00 0. -1.
         13    1    4    4    0    0 -0.11396100507E+02 -0.35596276917E+02  0.33450630555E+02  0.50158854868E+02  0.00000000000E+00 0.  1.
          1    1    1    2  501    0  0.19944278270E+03  0.29548129838E+02 -0.10460604653E+03  0.22714079448E+03  0.00000000000E+00 0. -1.
<scales pt_clust_5="13000.00000" pt_clust_6="13000.00000" pt_clust_7="13000.00000" pt_clust_8="13000.00000" pt_clust_9="13000.00000"></scales>
<clustering>
<clus scale="   83.871">  5  6 -1 -1</clus>
<clus scale="   89.895">  7  8 -1 -1</clus>
<clus scale="  135.829">  1  5  2 -1</clus>
<clus scale="  156.087">  7  9 -1 -1</clus>
<clus scale="  352.783">  2  5  1 -1</clus>
</clustering>
</event>
<event>
 9    2  0.4178938E-005  0.1633740E+03  0.7546771E-02  0.1213148E+00
          4   -1    0    0  502    0 -0.00000000000E+00  0.00000000000E+00  0.21382032546E+02  0.21382032546E+02  0.00000000000E+00 0. -1.
         21   -1    0    0  501  502  0.00000000000E+00 -0.00000000000E+00 -0.78279239675E+03  0.78279239675E+03  0.00000000000E+00 0. -1.
         24    2    1    2    0    0 -0.28892237675E+02 -0.18829438052E+02 -0.18488526460E+03  0.20494805519E+03  0.81436079973E+02 0.  0.
         23    2    1    2    0    0  0.39579273342E+02 -0.29760541735E+02 -0.46939543227E+03  0.48110793994E+03  0.93169572935E+02 0.  0.
        -11    1    3    3    0    0 -0.21700026459E+02  0.17785786533E+02 -0.15392581152E+03  0.15646207464E+03  0.00000000000E+00 0.  1.
         12    1    3    3    0    0 -0.71922112154E+01 -0.36615224585E+02 -0.30959453087E+02  0.48485980541E+02  0.00000000000E+00 0. -1.
        -13    1    4    4    0    0 -0.11115361610E+02  0.19890069094E+02 -0.41271843437E+02  0.47143728883E+02  0.00000000000E+00 0.  1.
         13    1    4    4    0    0  0.50694634952E+02 -0.49650610830E+02 -0.42812358883E+03  0.43396421106E+03  0.00000000000E+00 0. -1.
          3    1    1    2  501    0 -0.10687035667E+02  0.48589979787E+02 -0.10712966733E+03  0.11811843417E+03  0.00000000000E+00 0. -1.
<scales pt_clust_5="13000.00000" pt_clust_6="13000.00000" pt_clust_7="13000.00000" pt_clust_8="13000.00000" pt_clust_9="13000.00000"></scales>
<clustering>
<clus scale="   81.436">  5  6 -1 -1</clus>
<clus scale="   88.437">  1  5  2 -1</clus>
<clus scale="   93.170">  7  8 -1 -1</clus>
<clus scale="   46.552">  7  9 -1 -1</clus>
<clus scale="  163.374">  2  5  1 -1</clus>
</clustering>
</event>
<event>
 9    2  0.4178938E-005  0.5913264E+03  0.7546771E-02  0.1036550E+00
         21   -1    0    0  501  502  0.00000000000E+00  0.00000000000E+00  0.10363174348E+03  0.10363174348E+03  0.00000000000E+00 0. -1.
          2   -1    0    0  502    0 -0.00000000000E+00 -0.00000000000E+00 -0.13496068170E+04  0.13496068170E+04  0.00000000000E+00 0. -1.
         24    2    1    2    0    0 -0.10811587790E+03 -0.72070670944E+02 -0.19995987078E+03  0.25165012979E+03  0.80377939987E+02 0.  0.
         23    2    1    2    0    0 -0.16015590728E+03  0.40197533171E+02 -0.84175016893E+03  0.86290000210E+03  0.93740655093E+02 0.  0.
        -13    1    3    3    0    0 -0.49928729393E+02 -0.79493714371E+02 -0.13005899502E+03  0.16039785169E+03  0.00000000000E+00 0.  1.
         14    1    3    3    0    0 -0.58187148508E+02  0.74230434275E+01 -0.69900875760E+02  0.91252278093E+02  0.00000000000E+00 0. -1.
        -13    1    4    4    0    0 -0.63036272594E+02  0.62423300858E+02 -0.34227288816E+03  0.35358304558E+03  0.00000000000E+00 0.  1.
         13    1    4    4    0    0 -0.97119634685E+02 -0.22225767687E+02 -0.49947728078E+03  0.50931695652E+03  0.00000000000E+00 0. -1.
          1    1    1    2  501    0  0.26827178518E+03  0.31873137773E+02 -0.20426503386E+03  0.33868842864E+03  0.00000000000E+00 0. -1.
<scales pt_clust_5="13000.00000" pt_clust_6="13000.00000" pt_clust_7="13000.00000" pt_clust_8="13000.00000" pt_clust_9="13000.00000"></scales>
<clustering>
<clus scale="   80.378">  5  6 -1 -1</clus>
<clus scale="   93.741">  7  8 -1 -1</clus>
<clus scale="  152.787">  2  5  1 -1</clus>
<clus scale="  242.586">  7  9 -1 -1</clus>
<clus scale="  591.326">  1  5  2 -1</clus>
</clustering>
</event>
<event>
 9    2  0.4178938E-005  0.4108522E+03  0.7546771E-02  0.1078329E+00
         21   -1    0    0  501  502  0.00000000000E+00  0.00000000000E+00  0.16156682392E+03  0.16156682392E+03  0.00000000000E+00 0.  1.
          2   -1    0    0  502    0 -0.00000000000E+00 -0.00000000000E+00 -0.16332984491E+04  0.16332984491E+04  0.00000000000E+00 0. -1.
         24    2    1    2    0    0  0.11309592955E+03  0.24294851448E+02 -0.13625060442E+04  0.13697420608E+04  0.79935372126E+02 0.  0.
         23    2    1    2    0    0 -0.50713998931E+02  0.16324480191E+03 -0.11912522349E+03  0.22723276326E+03  0.90681501923E+02 0.  0.
        -11    1    3    3    0    0  0.44482054625E+02  0.23310378136E+02 -0.24301035387E+03  0.24814523772E+03  0.00000000000E+00 0.  1.
         12    1    3    3    0    0  0.68613874926E+02  0.98447331187E+00 -0.11194956903E+04  0.11215968231E+04  0.00000000000E+00 0. -1.
        -11    1    4    4    0    0 -0.38240048860E+00  0.13142020246E+03 -0.98413537706E+02  0.16418477471E+03  0.00000000000E+00 0.  1.
         11    1    4    4    0    0 -0.50331598442E+02  0.31824599450E+02 -0.20711685780E+02  0.63047988547E+02  0.00000000000E+00 0. -1.
          1    1    1    2  501    0 -0.62381930619E+02 -0.18753965335E+03  0.98996424938E+01  0.19789044891E+03  0.00000000000E+00 0. -1.
<scales pt_clust_5="13000.00000" pt_clust_6="13000.00000" pt_clust_7="13000.00000" pt_clust_8="13000.00000" pt_clust_9="13000.00000"></scales>
<clustering>
<clus scale="   79.935">  5  6 -1 -1</clus>
<clus scale="   90.682">  7  8 -1 -1</clus>
<clus scale="  140.608">  2  5  1 -1</clus>
<clus scale="  180.413">  7  9 -1 -1</clus>
<clus scale="  410.852">  1  5  2 -1</clus>
</clustering>
</event>
<event>
 9    2  0.4178938E-005  0.1760940E+03  0.7546771E-02  0.1178490E+00
         21   -1    0    0  501  502  0.00000000000E+00  0.00000000000E+00  0.49727330848E+02  0.49727330848E+02  0.00000000000E+00 0.  1.
          2   -1    0    0  502    0 -0.00000000000E+00 -0.00000000000E+00 -0.53768916906E+03  0.53768916906E+03  0.00000000000E+00 0. -1.
         24    2    1    2    0    0 -0.14082348764E+02 -0.12663346879E+03 -0.21525385063E+03  0.26279558045E+03  0.80578836715E+02 0.  0.
         23    2    1    2    0    0  0.92584493430E+01  0.60025955779E+02 -0.15419381667E+03  0.18858621983E+03  0.90001083114E+02 0.  0.
        -13    1    3    3    0    0  0.40957715728E+01 -0.13178204623E+03 -0.18955958748E+03  0.23090283727E+03  0.00000000000E+00 0.  1.
         14    1    3    3    0    0 -0.18178120337E+02  0.51485774376E+01 -0.25694263155E+02  0.31892743183E+02  0.00000000000E+00 0. -1.
        -13    1    4    4    0    0 -0.26309747399E+02  0.39274555855E+02 -0.26021233330E+02  0.53961079769E+02  0.00000000000E+00 0.  1.
         13    1    4    4    0    0  0.35568196742E+02  0.20751399924E+02 -0.12817258334E+03  0.13462514007E+03  0.00000000000E+00 0. -1.
          1    1    1    2  501    0  0.48238994213E+01  0.66607513012E+02 -0.11851417091E+03  0.13603469962E+03  0.00000000000E+00 0. -1.
<scales pt_clust_5="13000.00000" pt_clust_6="13000.00000" pt_clust_7="13000.00000" pt_clust_8="13000.00000" pt_clust_9="13000.00000"></scales>
<clustering>
<clus scale="   80.579">  5  6 -1 -1</clus>
<clus scale="   90.001">  7  8 -1 -1</clus>
<clus scale="   66.782">  7  9 -1 -1</clus>
<clus scale="  150.756">  2  5  1 -1</clus>
<clus scale="  176.094">  1  5  2 -1</clus>
</clustering>
</event>
<event>
 9    2  0.4178938E-005  0.1894779E+03  0.7546771E-02  0.1195419E+00
         -3   -1    0    0    0  501 -0.00000000000E+00  0.00000000000E+00  0.23417406474E+03  0.23417406474E+03  0.00000000000E+00 0.  1.
         21   -1    0    0  501  502  0.00000000000E+00 -0.00000000000E+00 -0.10390132054E+03  0.10390132054E+03  0.00000000000E+00 0.  1.
         24    2    1    2    0    0 -0.26656037742E+02 -0.14018570624E+02  0.12303118368E+03  0.14845915472E+03  0.77436320870E+02 0.  0.
         23    2    1    2    0    0 -0.51460350776E+02 -0.49898565283E+01  0.24538262634E+02  0.10738079804E+03  0.90859468880E+02 0.  0.
        -11    1    3    3    0    0 -0.53207405121E+02 -0.11179641245E+02  0.66180928125E+02  0.85650029688E+02  0.00000000000E+00 0.  1.
         12    1    3    3    0    0  0.26551367379E+02 -0.28389293794E+01  0.56850255559E+02  0.62809125028E+02  0.00000000000E+00 0. -1.
        -13    1    4    4    0    0 -0.25939651626E+02 -0.22947383683E+02 -0.29159715857E+02  0.45274020953E+02  0.00000000000E+00 0.  1.
         13    1    4    4    0    0 -0.25520699150E+02  0.17957527155E+02  0.53697978491E+02  0.62106777091E+02  0.00000000000E+00 0. -1.
         -4    1    1    2    0  502  0.78116388518E+02  0.19008427152E+02 -0.17296702112E+02  0.82235432521E+02  0.00000000000E+00 0.  1.
<scales pt_clust_5="13000.00000" pt_clust_6="13000.00000" pt_clust_7="13000.00000" pt_clust_8="13000.00000" pt_clust_9="13000.00000"></scales>
<clustering>
<clus scale="   77.436">  5  6 -1 -1</clus>
<clus scale="   83.087">  1  5  2 -1</clus>
<clus scale="   90.859">  7  8 -1 -1</clus>
<clus scale="   70.800">  7  9 -1 -1</clus>
<clus scale="  189.478">  2  5  1 -1</clus>
</clustering>
</event>
<event>
 9    2  0.4178938E-005  0.5183164E+03  0.7546771E-02  0.1055575E+00
         21   -1    0    0  501  502  0.00000000000E+00  0.00000000000E+00  0.63779322240E+02  0.63779322240E+02  0.00000000000E+00 0.  1.
          2   -1    0    0  502    0 -0.00000000000E+00 -0.00000000000E+00 -0.17429713573E+04  0.17429713573E+04  0.00000000000E+00 0. -1.
         24    2    1    2    0    0  0.10052566589E+03  0.27021255648E+02 -0.19872632795E+03  0.23817469283E+03  0.79996706966E+02 0.  0.
         23    2    1    2    0    0 -0.21511883404E+02 -0.18825859889E+03 -0.30352011435E+03  0.37801242813E+03  0.12192159294E+03 0.  0.
        -13    1    3    3    0    0  0.54449395696E+02  0.51384654221E+02 -0.86264769159E+02  0.11422228232E+03  0.00000000000E+00 0.  1.
         14    1    3    3    0    0  0.46076270191E+02 -0.24363398573E+02 -0.11246155880E+03  0.12395241051E+03  0.00000000000E+00 0. -1.
        -13    1    4    4    0    0 -0.23590265666E+02 -0.15969850527E+03 -0.14520403544E+03  0.21712743984E+03  0.00000000000E+00 0.  1.
         13    1    4    4    0    0  0.20783822625E+01 -0.28560093620E+02 -0.15831607890E+03  0.16088498830E+03  0.00000000000E+00 0. -1.
          1    1    1    2  501    0 -0.79013782484E+02  0.16123734325E+03 -0.11769455928E+04  0.11905635586E+04  0.00000000000E+00 0. -1.
<scales pt_clust_5="13000.00000" pt_clust_6="13000.00000" pt_clust_7="13000.00000" pt_clust_8="13000.00000" pt_clust_9="13000.00000"></scales>
<clustering>
<clus scale="   79.997">  5  6 -1 -1</clus>
<clus scale="  121.922">  7  8 -1 -1</clus>
<clus scale="  131.282">  2  5  1 -1</clus>
<clus scale="  182.221">  7  9 -1 -1</clus>
<clus scale="  518.316">  1  5  2 -1</clus>
</clustering>
</event>
<event>
 9    2  0.6238112E-005  0.5090458E+03  0.7546771E-02  0.1046697E+00
         21   -1    0    0  501  502  0.00000000000E+00  0.00000000000E+00  0.18054955876E+03  0.18054955876E+03  0.00000000000E+00 0. -1.
          2   -1    0    0  502    0 -0.00000000000E+00 -0.00000000000E+00 -0.67176683326E+03  0.67176683326E+03  0.00000000000E+00 0. -1.
         24    2    1    2    0    0 -0.27836948105E+02 -0.15634663134E+03 -0.19079558255E+03  0.26123197779E+03  0.81363548912E+02 0.  0.
         23    2    1    2    0    0 -0.58737953705E+02 -0.15212341192E+03 -0.87391410970E+02  0.20633659834E+03  0.91355642641E+02 0.  0.
        -13    1    3    3    0    0 -0.36240621757E+02 -0.50001018433E+02 -0.30993461027E+02  0.69094711347E+02  0.00000000000E+00 0.  1.
         14    1    3    3    0    0  0.84036736519E+01 -0.10634561290E+03 -0.15980212152E+03  0.19213726644E+03  0.00000000000E+00 0. -1.
        -13    1    4    4    0    0 -0.22881099956E+02 -0.44572713540E+02 -0.77831756073E+02  0.92563782231E+02  0.00000000000E+00 0.  1.
         13    1    4    4    0    0 -0.35856853750E+02 -0.10755069838E+03 -0.95596548964E+01  0.11377281611E+03  0.00000000000E+00 0. -1.
          1    1    1    2  501    0  0.86574901810E+02  0.30847004326E+03 -0.21303028098E+03  0.38474781588E+03  0.00000000000E+00 0. -1.
<scales pt_clust_5="13000.00000" pt_clust_6="13000.00000" pt_clust_7="13000.00000" pt_clust_8="13000.00000" pt_clust_9="13000.00000"></scales>
<clustering>
<clus scale="   81.364">  5  6 -1 -1</clus>
<clus scale="   91.356">  7  8 -1 -1</clus>
<clus scale="  178.435">  2  5  1 -1</clus>
<clus scale="  214.661">  7  9 -1 -1</clus>
<clus scale="  509.046">  1  5  2 -1</clus>
</clustering>
</event>
<event>
 9    2  0.4178938E-005  0.2635466E+03  0.7546771E-02  0.1153414E+00
          2   -1    0    0  502    0 -0.00000000000E+00  0.00000000000E+00  0.49749278770E+02  0.49749278770E+02  0.00000000000E+00 0. -1.
         21   -1    0    0  501  502  0.00000000000E+00 -0.00000000000E+00 -0.76664143671E+03  0.76664143671E+03  0.00000000000E+00 0. -1.
         24    2    1    2    0    0 -0.53649911584E+01 -0.56559814967E-01 -0.38157835848E+03  0.38990253366E+03  0.79957212072E+02 0.  0.
         23    2    1    2    0    0 -0.11070720131E+02 -0.98832559702E+02 -0.90940309031E+02  0.16235262309E+03  0.90541696002E+02 0.  0.
        -13    1    3    3    0    0  0.33801840158E+02  0.10349638243E+02 -0.11653475702E+03  0.12177860651E+03  0.00000000000E+00 0.  1.
         14    1    3    3    0    0 -0.39166831316E+02 -0.10406198058E+02 -0.26504360147E+03  0.26812392715E+03  0.00000000000E+00 0. -1.
        -11    1    4    4    0    0  0.71915201160E+01 -0.52246278187E+02  0.61801993277E+01  0.53099777869E+02  0.00000000000E+00 0. -1.
         11    1    4    4    0    0 -0.18262240247E+02 -0.46586281514E+02 -0.97120508359E+02  0.10925284522E+03  0.00000000000E+00 0.  1.
          1    1    1    2  501    0  0.16435711290E+02  0.98889119517E+02 -0.24437349042E+03  0.26413555873E+03  0.00000000000E+00 0. -1.
<scales pt_clust_5="13000.00000" pt_clust_6="13000.00000" pt_clust_7="13000.00000" pt_clust_8="13000.00000" pt_clust_9="13000.00000"></scales>
<clustering>
<clus scale="   79.957">  5  6 -1 -1</clus>
<clus scale="   80.137">  1  5  2 -1</clus>
<clus scale="   90.542">  7  8 -1 -1</clus>
<clus scale="  100.050">  7  9 -1 -1</clus>
<clus scale="  263.547">  2  5  1 -1</clus>
</clustering>
</event>
<event>
 9    2  0.4178938E-005  0.4652453E+03  0.7546771E-02  0.1034089E+00
         21   -1    0    0  501  502  0.00000000000E+00  0.00000000000E+00  0.19656194061E+03  0.19656194061E+03  0.00000000000E+00 0.  1.
          4   -1    0    0  502    0 -0.00000000000E+00 -0.00000000000E+00 -0.10841330775E+04  0.10841330775E+04  0.00000000000E+00 0. -1.
         24    2    1    2    0    0  0.24898371523E+03  0.21263041396E+03 -0.76685054202E+02  0.34582102073E+03  0.80665962159E+02 0.  0.
         23    2    1    2    0    0 -0.47615169736E+02  0.75915463656E+00 -0.40724756060E+02  0.11071814552E+03  0.91281001784E+02 0.  0.
        -13    1    3    3    0    0  0.90027112803E+02  0.72715095544E+02  0.11778173787E+02  0.11632322011E+03  0.00000000000E+00 0.  1.
         14    1    3    3    0    0  0.15895660243E+03  0.13991531842E+03 -0.88463227989E+02  0.22949780062E+03  0.00000000000E+00 0. -1.
        -11    1    4    4    0    0  0.17450686679E+01 -0.31693647974E+02  0.95505998535E+01  0.33147345959E+02  0.00000000000E+00 0. -1.
         11    1    4    4    0    0 -0.49360238404E+02  0.32452802610E+02 -0.50275355914E+02  0.77570799563E+02  0.00000000000E+00 0.  1.
          3    1    1    2  501    0 -0.20136854550E+03 -0.21338956860E+03 -0.77016132660E+03  0.82415585183E+03  0.00000000000E+00 0. -1.
<scales pt_clust_5="13000.00000" pt_clust_6="13000.00000" pt_clust_7="13000.00000" pt_clust_8="13000.00000" pt_clust_9="13000.00000"></scales>
<clustering>
<clus scale="   80.666">  5  6 -1 -1</clus>
<clus scale="   91.281">  7  8 -1 -1</clus>
<clus scale="  293.402">  7  9 -1 -1</clus>
<clus scale="  337.212">  2  5  1 -1</clus>
<clus scale="  465.245">  1  5  2 -1</clus>
</clustering>
</event>
<event>
 9    2  0.4178938E-005  0.1563831E+03  0.7546771E-02  0.1215528E+00
         21   -1    0    0  501  502  0.00000000000E+00  0.00000000000E+00  0.59883069332E+02  0.59883069332E+02  0.00000000000E+00 0. -1.
          2   -1    0    0  502    0 -0.00000000000E+00 -0.00000000000E+00 -0.66756732287E+03  0.66756732287E+03  0.00000000000E+00 0. -1.
         24    2    1    2    0    0  0.23014682612E+02  0.46446717443E+02 -0.55381028990E+03  0.56204762243E+03  0.80651841281E+02 0.  0.
         23    2    1    2    0    0  0.26720744791E+02 -0.26841933680E+02 -0.51662371391E+02  0.11189714927E+03  0.91746846213E+02 0.  0.
        -13    1    3    3    0    0  0.35558310511E+01  0.31796240632E+02 -0.63237208341E+02  0.70870229092E+02  0.00000000000E+00 0.  1.
         14    1    3    3    0    0  0.19458851561E+02  0.14650476810E+02 -0.49057308156E+03  0.49117739334E+03  0.00000000000E+00 0. -1.
        -11    1    4    4    0    0 -0.18359259212E+02 -0.10645448935E+02 -0.59669567549E+02  0.63331234579E+02  0.00000000000E+00 0.  1.
         11    1    4    4    0    0  0.45080004003E+02 -0.16196484745E+02  0.80071961574E+01  0.48565914686E+02  0.00000000000E+00 0. -1.
          1    1    1    2  501    0 -0.49735427403E+02 -0.19604783763E+02 -0.22115922431E+01  0.53505620505E+02  0.00000000000E+00 0. -1.
<scales pt_clust_5="13000.00000" pt_clust_6="13000.00000" pt_clust_7="13000.00000" pt_clust_8="13000.00000" pt_clust_9="13000.00000"></scales>
<clustering>
<clus scale="   80.652">  5  6 -1 -1</clus>
<clus scale="   91.747">  7  8 -1 -1</clus>
<clus scale="   53.460">  7  9 -1 -1</clus>
<clus scale="   95.873">  2  5  1 -1</clus>
<clus scale="  156.383">  1  5  2 -1</clus>
</clustering>
</event>
<event>
 9    2  0.4178938E-005  0.5738084E+03  0.7546771E-02  0.1050338E+00
         21   -1    0    0  501  502  0.00000000000E+00  0.00000000000E+00  0.11273574409E+03  0.11273574409E+03  0.00000000000E+00 0. -1.
          2   -1    0    0  502    0 -0.00000000000E+00 -0.00000000000E+00 -0.10594836323E+04  0.10594836323E+04  0.00000000000E+00 0. -1.
         24    2    1    2    0    0 -0.56334084468E+02  0.45258854901E+02 -0.10649859152E+03  0.15473473126E+03  0.85901071244E+02 0.  0.
         23    2    1    2    0    0  0.10886929292E+03  0.22317807763E+03 -0.59439129716E+03  0.64970143344E+03  0.84557443245E+02 0.  0.
        -13    1    3    3    0    0 -0.85803164641E+01 -0.23988582591E+02 -0.11815135731E+02  0.28083293213E+02  0.00000000000E+00 0.  1.
         14    1    3    3    0    0 -0.47753768004E+02  0.69247437492E+02 -0.94683455793E+02  0.12665143804E+03  0.00000000000E+00 0. -1.
        -11    1    4    4    0    0  0.10360134347E+03  0.15756572292E+03 -0.50208377093E+03  0.53632854524E+03  0.00000000000E+00 0.  1.
         11    1    4    4    0    0  0.52679494522E+01  0.65612354706E+02 -0.92307526230E+02  0.11337288821E+03  0.00000000000E+00 0. -1.
          1    1    1    2  501    0 -0.52535208455E+02 -0.26843693253E+03 -0.24585799954E+03  0.36778321170E+03  0.00000000000E+00 0. -1.
<scales pt_clust_5="13000.00000" pt_clust_6="13000.00000" pt_clust_7="13000.00000" pt_clust_8="13000.00000" pt_clust_9="13000.00000"></scales>
<clustering>
<clus scale="   84.557">  7  8 -1 -1</clus>
<clus scale="   85.901">  5  6 -1 -1</clus>
<clus scale="  112.254">  2  5  1 -1</clus>
<clus scale="  263.282">  7  9 -1 -1</clus>
<clus scale="  573.808">  1  5  2 -1</clus>
</clustering>
</event>
<event>
 9    2  0.4178938E-005  0.2283005E+03  0.7546771E-02  0.1180955E+00
         -3   -1    0    0    0  501 -0.00000000000E+00  0.00000000000E+00  0.20086347885E+02  0.20086347885E+02  0.00000000000E+00 0.  1.
         21   -1    0    0  501  502  0.00000000000E+00 -0.00000000000E+00 -0.12683728491E+04  0.12683728491E+04  0.00000000000E+00 0. -1.
         24    2    1    2    0    0 -0.24514468781E+02 -0.67542306422E+01 -0.54808073016E+03  0.55197480982E+03  0.60308582237E+02 0.  0.
         23    2    1    2    0    0  0.17203188124E+02  0.96699153621E+02 -0.48744421685E+03  0.50537613776E+03  0.90313343886E+02 0.  0.
        -13    1    3    3    0    0 -0.96630925066E+01  0.17776360594E+02 -0.65757415158E+02  0.68799796519E+02  0.00000000000E+00 0.  1.
         14    1    3    3    0    0 -0.14851376274E+02 -0.24530591236E+02 -0.48232331501E+03  0.48317501330E+03  0.00000000000E+00 0. -1.
        -11    1    4    4    0    0  0.53101901061E+02  0.73469526092E+02 -0.33513229876E+03  0.34717609485E+03  0.00000000000E+00 0. -1.
         11    1    4    4    0    0 -0.35898712937E+02  0.23229627529E+02 -0.15231191809E+03  0.15820004292E+03  0.00000000000E+00 0.  1.
         -4    1    1    2    0  502  0.73112806568E+01 -0.89944922979E+02 -0.21276155418E+03  0.23110824938E+03  0.00000000000E+00 0.  1.
<scales pt_clust_5="13000.00000" pt_clust_6="13000.00000" pt_clust_7="13000.00000" pt_clust_8="13000.00000" pt_clust_9="13000.00000"></scales>
<clustering>
<clus scale="   60.309">  5  6 -1 -1</clus>
<clus scale="   65.450">  1  5  2 -1</clus>
<clus scale="   90.313">  7  8 -1 -1</clus>
<clus scale="   93.499">  7  9 -1 -1</clus>
<clus scale="  228.301">  2  5  1 -1</clus>
</clustering>
</event>
<event>
 9    2  0.4178938E-005  0.5164195E+03  0.7546771E-02  0.1071254E+00
          2   -1    0    0  502    0 -0.00000000000E+00  0.00000000000E+00  0.29859074393E+03  0.29859074393E+03  0.00000000000E+00 0. -1.
         21   -1    0    0  501  502  0.00000000000E+00 -0.00000000000E+00 -0.44768368208E+03  0.44768368208E+03  0.00000000000E+00 0.  1.
         24    2    1    2    0    0  0.13093161456E+02  0.21111595108E+02 -0.20943521328E+03  0.22634141974E+03  0.82159597143E+02 0.  0.
         23    2    1    2    0    0  0.67196965570E+02  0.15221470139E+03 -0.14549779905E+03  0.23911519044E+03  0.91223446925E+02 0.  0.
        -11    1    3    3    0    0  0.29444047109E+02  0.38407787438E+02 -0.71315437019E+02  0.86185855007E+02  0.00000000000E+00 0.  1.
         12    1    3    3    0    0 -0.16350885653E+02 -0.17296192330E+02 -0.13811977626E+03  0.14015556473E+03  0.00000000000E+00 0. -1.
        -13    1    4    4    0    0  0.35710590000E+02  0.13776930334E+03 -0.14677880162E+03  0.20444961185E+03  0.00000000000E+00 0.  1.
         13    1    4    4    0    0  0.31486375570E+02  0.14445398053E+02  0.12810025689E+01  0.34665578590E+02  0.00000000000E+00 0. -1.
          1    1    1    2  501    0 -0.80290127025E+02 -0.17332629650E+03  0.20584007417E+03  0.28081781584E+03  0.00000000000E+00 0. -1.
<scales pt_clust_5="13000.00000" pt_clust_6="13000.00000" pt_clust_7="13000.00000" pt_clust_8="13000.00000" pt_clust_9="13000.00000"></scales>
<clustering>
<clus scale="   82.160">  5  6 -1 -1</clus>
<clus scale="   85.833">  1  5  2 -1</clus>
<clus scale="   91.223">  7  8 -1 -1</clus>
<clus scale="  170.357">  7  9 -1 -1</clus>
<clus scale="  516.420">  2  5  1 -1</clus>
</clustering>
</event>
<event>
 9    2  0.4178938E-005  0.5066592E+03  0.7546771E-02  0.1060052E+00
         21   -1    0    0  501  502  0.00000000000E+00  0.00000000000E+00  0.83081316247E+02  0.83081316247E+02  0.00000000000E+00 0. -1.
          2   -1    0    0  502    0 -0.00000000000E+00 -0.00000000000E+00 -0.11966414997E+04  0.11966414997E+04  0.00000000000E+00 0. -1.
         24    2    1    2    0    0 -0.30983681805E+02  0.88893580578E+02 -0.22304461294E+03  0.25516364777E+03  0.80607261312E+02 0.  0.
         23    2    1    2    0    0 -0.52330546505E+02 -0.20334228247E+03 -0.84555677793E+03  0.87602951112E+03  0.91514314251E+02 0.  0.
        -11    1    3    3    0    0  0.21080580244E+02  0.19249763499E+01 -0.54775631548E+02  0.58723642674E+02  0.00000000000E+00 0.  1.
         12    1    3    3    0    0 -0.52064262049E+02  0.86968604228E+02 -0.16826898139E+03  0.19644000509E+03  0.00000000000E+00 0. -1.
        -11    1    4    4    0    0 -0.51102441230E+02 -0.98569217770E+02 -0.28695887973E+03  0.30768937071E+03  0.00000000000E+00 0.  1.
         11    1    4    4    0    0 -0.12281052746E+01 -0.10477306470E+03 -0.55859789820E+03  0.56834014041E+03  0.00000000000E+00 0. -1.
          1    1    1    2  501    0  0.83314228310E+02  0.11444870189E+03 -0.44958792629E+02  0.14852965710E+03  0.00000000000E+00 0. -1.
<scales pt_clust_5="13000.00000" pt_clust_6="13000.00000" pt_clust_7="13000.00000" pt_clust_8="13000.00000" pt_clust_9="13000.00000"></scales>
<clustering>
<clus scale="   80.607">  5  6 -1 -1</clus>
<clus scale="   91.514">  7  8 -1 -1</clus>
<clus scale="  123.934">  2  5  1 -1</clus>
<clus scale="  147.188">  7  9 -1 -1</clus>
<clus scale="  506.659">  1  5  2 -1</clus>
</clustering>
</event>
<event>
 9    2  0.4178938E-005  0.1652302E+03  0.7546771E-02  0.1214482E+00
         21   -1    0    0  501  502  0.00000000000E+00  0.00000000000E+00  0.25484234937E+03  0.25484234937E+03  0.00000000000E+00 0. -1.
          2   -1    0    0  502    0 -0.00000000000E+00 -0.00000000000E+00 -0.10452827877E+03  0.10452827877E+03  0.00000000000E+00 0. -1.
         24    2    1    2    0    0  0.18285446181E+02 -0.17081280189E+02 -0.52097015166E+02  0.98082889351E+02  0.79246618347E+02 0.  0.
         23    2    1    2    0    0 -0.41750947312E+02  0.24401680177E+02  0.62897301165E+02  0.11962506165E+03  0.89529331970E+02 0.  0.
        -13    1    3    3    0    0  0.19464164707E+02  0.29795810585E+02 -0.16601865723E+02  0.39271694408E+02  0.00000000000E+00 0.  1.
         14    1    3    3    0    0 -0.11787185264E+01 -0.46877090774E+02 -0.35495149443E+02  0.58811194944E+02  0.00000000000E+00 0. -1.
        -11    1    4    4    0    0 -0.70495508162E+01  0.51606649262E+02  0.14317408948E+02  0.54017873096E+02  0.00000000000E+00 0.  1.
         11    1    4    4    0    0 -0.34701396496E+02 -0.27204969085E+02  0.48579892217E+02  0.65607188550E+02  0.00000000000E+00 0. -1.
          1    1    1    2  501    0  0.23465501131E+02 -0.73203999883E+01  0.13951378461E+03  0.14166267714E+03  0.00000000000E+00 0. -1.
<scales pt_clust_5="13000.00000" pt_clust_6="13000.00000" pt_clust_7="13000.00000" pt_clust_8="13000.00000" pt_clust_9="13000.00000"></scales>
<clustering>
<clus scale="   79.247">  5  6 -1 -1</clus>
<clus scale="   83.103">  2  5  1 -1</clus>
<clus scale="   89.529">  7  8 -1 -1</clus>
<clus scale="   25.407">  7  9 -1 -1</clus>
<clus scale="  165.230">  1  5  2 -1</clus>
</clustering>
</event>
<event>
 9    2  0.4178938E-005  0.5304393E+03  0.7546771E-02  0.1043232E+00
          2   -1    0    0  502    0 -0.00000000000E+00  0.00000000000E+00  0.87377554903E+03  0.87377554903E+03  0.00000000000E+00 0. -1.
         21   -1    0    0  501  502  0.00000000000E+00 -0.00000000000E+00 -0.14238746104E+03  0.14238746104E+03  0.00000000000E+00 0. -1.
         24    2    1    2    0    0 -0.44076816631E+02  0.14834376591E+03  0.20144505750E+03  0.26635935961E+03  0.80115907350E+02 0.  0.
         23    2    1    2    0    0 -0.15878450856E+03 -0.87090055556E+02  0.49536878573E+03  0.53509428249E+03  0.90213410008E+02 0.  0.
        -13    1    3    3    0    0 -0.15170530899E+02  0.94207065202E+02  0.17543144353E+03  0.19970304835E+03  0.00000000000E+00 0.  1.
         14    1    3    3    0    0 -0.28906285732E+02  0.54136700711E+02  0.26013613970E+02  0.66656311258E+02  0.00000000000E+00 0. -1.
        -13    1    4    4    0    0 -0.10992435662E+03 -0.44087468413E+02  0.19827959781E+03  0.23095858494E+03  0.00000000000E+00 0. -1.
         13    1    4    4    0    0 -0.48860151948E+02 -0.43002587143E+02  0.29708918792E+03  0.30413569756E+03  0.00000000000E+00 0.  1.
          1    1    1    2  501    0  0.20286132520E+03 -0.61253710358E+02  0.34574244761E+02  0.21470936797E+03  0.00000000000E+00 0. -1.
<scales pt_clust_5="13000.00000" pt_clust_6="13000.00000" pt_clust_7="13000.00000" pt_clust_8="13000.00000" pt_clust_9="13000.00000"></scales>
<clustering>
<clus scale="   80.116">  5  6 -1 -1</clus>
<clus scale="   90.213">  7  8 -1 -1</clus>
<clus scale="  174.262">  1  5  2 -1</clus>
<clus scale="  196.952">  7  9 -1 -1</clus>
<clus scale="  530.439">  2  5  1 -1</clus>
</clustering>
</event>
<event>
 9    2  0.4178938E-005  0.2071583E+03  0.7546771E-02  0.1181888E+00
         21   -1    0    0  501  502  0.00000000000E+00  0.00000000000E+00  0.72259030573E+02  0.72259030573E+02  0.00000000000E+00 0.  1.
          4   -1    0    0  502    0 -0.00000000000E+00 -0.00000000000E+00 -0.32180524955E+03  0.32180524955E+03  0.00000000000E+00 0. -1.
         24    2    1    2    0    0  0.10894589537E+02  0.27753387444E+02 -0.12734902798E+03  0.15355084669E+03  0.80443427305E+02 0.  0.
         23    2    1    2    0    0  0.36749818414E+02 -0.23954403937E+02  0.79900503935E+01  0.10182983777E+03  0.91548415242E+02 0.  0.
        -13    1    3    3    0    0  0.33690657883E+02  0.40043491328E+02 -0.11154764151E+03  0.12321289686E+03  0.00000000000E+00 0.  1.
         14    1    3    3    0    0 -0.22796068347E+02 -0.12290103884E+02 -0.15801386468E+02  0.30337949829E+02  0.00000000000E+00 0. -1.
        -11    1    4    4    0    0  0.14789891056E+01 -0.28778312895E+02 -0.35438219017E+02  0.45675442734E+02  0.00000000000E+00 0. -1.
         11    1    4    4    0    0  0.35270829309E+02  0.48239089575E+01  0.43428269411E+02  0.56154395035E+02  0.00000000000E+00 0.  1.
          3    1    1    2  501    0 -0.47644407951E+02 -0.37989835070E+01 -0.13018724140E+03  0.13868359567E+03  0.00000000000E+00 0. -1.
<scales pt_clust_5="13000.00000" pt_clust_6="13000.00000" pt_clust_7="13000.00000" pt_clust_8="13000.00000" pt_clust_9="13000.00000"></scales>
<clustering>
<clus scale="   80.443">  5  6 -1 -1</clus>
<clus scale="   85.791">  2  5  1 -1</clus>
<clus scale="   91.548">  7  8 -1 -1</clus>
<clus scale="   42.977">  7  9 -1 -1</clus>
<clus scale="  207.158">  1  5  2 -1</clus>
</clustering>
</event>
<event>
 9    2  0.4178938E-005  0.1898250E+03  0.7546771E-02  0.1185273E+00
         -3   -1    0    0    0  501 -0.00000000000E+00  0.00000000000E+00  0.48322243036E+03  0.48322243036E+03  0.00000000000E+00 0.  1.
         21   -1    0    0  501  502  0.00000000000E+00 -0.00000000000E+00 -0.45287409500E+02  0.45287409500E+02  0.00000000000E+00 0. -1.
         24    2    1    2    0    0  0.31747764918E+02  0.57120468313E+02  0.18935697789E+03  0.21574065897E+03  0.80108041916E+02 0.  0.
         23    2    1    2    0    0 -0.54258537573E+02 -0.29764199140E+02  0.95767739428E+02  0.15590589896E+03  0.10632635123E+03 0.  0.
        -11    1    3    3    0    0 -0.22466579888E+02  0.82796055361E+01  0.19522640594E+02  0.30893892203E+02  0.00000000000E+00 0.  1.
         12    1    3    3    0    0  0.54214344806E+02  0.48840862777E+02  0.16983433730E+03  0.18484676677E+03  0.00000000000E+00 0. -1.
        -13    1    4    4    0    0 -0.22672524632E+02  0.32821150903E+02  0.71215302889E+02  0.81626531749E+02  0.00000000000E+00 0.  1.
         13    1    4    4    0    0 -0.31586012941E+02 -0.62585350043E+02  0.24552436539E+02  0.74279367212E+02  0.00000000000E+00 0. -1.
         -4    1    1    2    0  502  0.22510772654E+02 -0.27356269174E+02  0.15281030354E+03  0.15686328193E+03  0.00000000000E+00 0.  1.
<scales pt_clust_5="13000.00000" pt_clust_6="13000.00000" pt_clust_7="13000.00000" pt_clust_8="13000.00000" pt_clust_9="13000.00000"></scales>
<clustering>
<clus scale="   80.108">  5  6 -1 -1</clus>
<clus scale="  103.383">  1  5  2 -1</clus>
<clus scale="  106.326">  7  8 -1 -1</clus>
<clus scale="   40.240">  7  9 -1 -1</clus>
<clus scale="  189.825">  2  5  1 -1</clus>
</clustering>
</event>
<event>
 9    2  0.4178938E-005  0.2173031E+03  0.7546771E-02  0.1154954E+00
         21   -1    0    0  501  502  0.00000000000E+00  0.00000000000E+00  0.38780012683E+03  0.38780012683E+03  0.00000000000E+00 0.  1.
          4   -1    0    0  502    0 -0.00000000000E+00 -0.00000000000E+00 -0.12216497403E+03  0.12216497403E+03  0.00000000000E+00 0. -1.
         24    2    1    2    0    0 -0.62561254454E+02 -0.84192352460E+02 -0.31909913642E+02  0.14151743288E+03  0.89480044980E+02 0.  0.
         23    2    1    2    0    0 -0.67284495976E+01 -0.17088639118E+02  0.12355451965E+03  0.15553544964E+03  0.92672882480E+02 0.  0.
        -13    1    3    3    0    0 -0.45770253891E+02 -0.83687742833E+02 -0.57151230896E+02  0.11119720156E+03  0.00000000000E+00 0.  1.
         14    1    3    3    0    0 -0.16791000564E+02 -0.50460962707E+00  0.25241317254E+02  0.30320231324E+02  0.00000000000E+00 0. -1.
        -11    1    4    4    0    0 -0.42260131607E+02 -0.23383229172E+02  0.34230915822E+02  0.59198392950E+02  0.00000000000E+00 0. -1.
         11    1    4    4    0    0  0.35531682009E+02  0.62945900535E+01  0.89323603829E+02  0.96337056688E+02  0.00000000000E+00 0.  1.
          3    1    1    2  501    0  0.69289704052E+02  0.10128099158E+03  0.17399054679E+03  0.21291221833E+03  0.00000000000E+00 0. -1.
<scales pt_clust_5="13000.00000" pt_clust_6="13000.00000" pt_clust_7="13000.00000" pt_clust_8="13000.00000" pt_clust_9="13000.00000"></scales>
<clustering>
<clus scale="   89.480">  5  6 -1 -1</clus>
<clus scale="   92.673">  7  8 -1 -1</clus>
<clus scale="  122.715">  7  9 -1 -1</clus>
<clus scale="  137.873">  2  5  1 -1</clus>
<clus scale="  217.303">  1  5  2 -1</clus>
</clustering>
</event>
<event>
 9    2  0.4178938E-005  0.2299235E+03  0.7546771E-02  0.1165461E+00
         21   -1    0    0  501  502  0.00000000000E+00  0.00000000000E+00  0.83560527197E+02  0.83560527197E+02  0.00000000000E+00 0.  1.
          2   -1    0    0  502    0 -0.00000000000E+00 -0.00000000000E+00 -0.32157399803E+03  0.32157399803E+03  0.00000000000E+00 0. -1.
         24    2    1    2    0    0 -0.11907104115E+02 -0.41644014085E+02 -0.32554139354E+02  0.96786731533E+02  0.80199104573E+02 0.  0.
         23    2    1    2    0    0  0.36022811046E+02 -0.64668717619E+02 -0.79182299744E+02  0.14152497455E+03  0.90993383685E+02 0.  0.
        -13    1    3    3    0    0  0.83051809430E+01 -0.53768800877E+02 -0.44568993200E+02  0.70331039613E+02  0.00000000000E+00 0.  1.
         14    1    3    3    0    0 -0.20212285058E+02  0.12124786792E+02  0.12014853846E+02  0.26455691920E+02  0.00000000000E+00 0. -1.
        -11    1    4    4    0    0  0.30052128056E+02 -0.39636869910E+02  0.82172019194E+01  0.50415615282E+02  0.00000000000E+00 0.  1.
         11    1    4    4    0    0  0.59706829902E+01 -0.25031847709E+02 -0.87399501663E+02  0.91109359267E+02  0.00000000000E+00 0. -1.
          1    1    1    2  501    0 -0.24115706931E+02  0.10631273170E+03 -0.12627703174E+03  0.16682281914E+03  0.00000000000E+00 0. -1.
<scales pt_clust_5="13000.00000" pt_clust_6="13000.00000" pt_clust_7="13000.00000" pt_clust_8="13000.00000" pt_clust_9="13000.00000"></scales>
<clustering>
<clus scale="   80.199">  5  6 -1 -1</clus>
<clus scale="   90.993">  7  8 -1 -1</clus>
<clus scale="   91.148">  2  5  1 -1</clus>
<clus scale="   88.153">  7  9 -1 -1</clus>
<clus scale="  229.924">  1  5  2 -1</clus>
</clustering>
</event>
<event>
 9    2  0.4178938E-005  0.2225653E+03  0.7546771E-02  0.1172451E+00
         21   -1    0    0  501  502  0.00000000000E+00  0.00000000000E+00  0.24193559266E+03  0.24193559266E+03  0.00000000000E+00 0. -1.
          2   -1    0    0  502    0 -0.00000000000E+00 -0.00000000000E+00 -0.38173348051E+03  0.38173348051E+03  0.00000000000E+00 0. -1.
         24    2    1    2    0    0  0.27036524389E+02  0.73653159926E+01 -0.32377780859E+03  0.33490631931E+03  0.80900876682E+02 0.  0.
         23    2    1    2    0    0  0.58992587348E+02  0.45735558216E+02  0.12138956219E+03  0.16985832210E+03  0.92436773705E+02 0.  0.
        -11    1    3    3    0    0  0.85520282064E+01  0.32928853647E+02 -0.57838129630E+02  0.67102129832E+02  0.00000000000E+00 0.  1.
         12    1    3    3    0    0  0.18484496183E+02 -0.25563537654E+02 -0.26593967896E+03  0.26780418948E+03  0.00000000000E+00 0. -1.
        -13    1    4    4    0    0  0.59057590059E+02 -0.11117487042E+02  0.47343272947E+02  0.76503483287E+02  0.00000000000E+00 0. -1.
         13    1    4    4    0    0 -0.65002710804E-01  0.56853045258E+02  0.74046289240E+02  0.93354838818E+02  0.00000000000E+00 0.  1.
          1    1    1    2  501    0 -0.86029111737E+02 -0.53100874209E+02  0.62590358548E+02  0.11890443176E+03  0.00000000000E+00 0. -1.
<scales pt_clust_5="13000.00000" pt_clust_6="13000.00000" pt_clust_7="13000.00000" pt_clust_8="13000.00000" pt_clust_9="13000.00000"></scales>
<clustering>
<clus scale="   80.901">  5  6 -1 -1</clus>
<clus scale="   85.616">  2  5  1 -1</clus>
<clus scale="   92.437">  7  8 -1 -1</clus>
<clus scale="   86.759">  7  9 -1 -1</clus>
<clus scale="  222.565">  1  5  2 -1</clus>
</clustering>
</event>
<event>
 9    2  0.4178938E-005  0.8565875E+03  0.7546771E-02  0.9617385E-01
          2   -1    0    0  502    0 -0.00000000000E+00  0.00000000000E+00  0.72796007939E+03  0.72796007939E+03  0.00000000000E+00 0. -1.
         21   -1    0    0  501  502  0.00000000000E+00 -0.00000000000E+00 -0.78756913199E+03  0.78756913199E+03  0.00000000000E+00 0.  1.
         24    2    1    2    0    0  0.21917606932E+02 -0.52861437130E+03 -0.31584922660E+03  0.62143679508E+03  0.80680984714E+02 0.  0.
         23    2    1    2    0    0  0.16737345226E+03  0.11152181043E+03 -0.16238434170E+03  0.27357344433E+03  0.89569907282E+02 0.  0.
        -11    1    3    3    0    0  0.44020774817E+02 -0.33650439897E+03 -0.17231914751E+03  0.38061388274E+03  0.00000000000E+00 0.  1.
         12    1    3    3    0    0 -0.22103167885E+02 -0.19210997233E+03 -0.14353007910E+03  0.24082291233E+03  0.00000000000E+00 0. -1.
        -13    1    4    4    0    0  0.58344163137E+02  0.35693357162E+02 -0.63756111678E+01  0.68692834673E+02  0.00000000000E+00 0. -1.
         13    1    4    4    0    0  0.10902928913E+03  0.75828453269E+02 -0.15600873053E+03  0.20488060966E+03  0.00000000000E+00 0.  1.
          1    1    1    2  501    0 -0.18929105920E+03  0.41709256086E+03  0.41862451570E+03  0.62051897197E+03  0.00000000000E+00 0. -1.
<scales pt_clust_5="13000.00000" pt_clust_6="13000.00000" pt_clust_7="13000.00000" pt_clust_8="13000.00000" pt_clust_9="13000.00000"></scales>
<clustering>
<clus scale="   80.681">  5  6 -1 -1</clus>
<clus scale="   89.570">  7  8 -1 -1</clus>
<clus scale="  458.037">  7  9 -1 -1</clus>
<clus scale="  535.185">  1  5  2 -1</clus>
<clus scale="  856.588">  2  5  1 -1</clus>
</clustering>
</event>
<event>
 9    2  0.4178938E-005  0.2814074E+03  0.7546771E-02  0.1136742E+00
          2   -1    0    0  502    0 -0.00000000000E+00  0.00000000000E+00  0.11677929019E+04  0.11677929019E+04  0.00000000000E+00 0. -1.
         21   -1    0    0  501  502  0.00000000000E+00 -0.00000000000E+00 -0.32402408432E+02  0.32402408432E+02  0.00000000000E+00 0.  1.
         24    2    1    2    0    0  0.43389891404E+02 -0.31329491006E+02  0.18999719279E+03  0.21380866897E+03  0.82164432556E+02 0.  0.
         23    2    1    2    0    0  0.71004435057E+00 -0.99658513378E+02  0.56999768533E+03  0.58635598048E+03  0.94782124380E+02 0.  0.
        -13    1    3    3    0    0  0.60905540962E+02 -0.11362497540E+02  0.16884826510E+03  0.17985640911E+03  0.00000000000E+00 0.  1.
         14    1    3    3    0    0 -0.17515649558E+02 -0.19966993466E+02  0.21148927692E+02  0.33952259866E+02  0.00000000000E+00 0. -1.
        -13    1    4    4    0    0 -0.46558220611E+02 -0.41354785754E+02  0.24260322134E+03  0.25046798042E+03  0.00000000000E+00 0.  1.
         13    1    4    4    0    0  0.47268264962E+02 -0.58303727624E+02  0.32739446400E+03  0.33588800006E+03  0.00000000000E+00 0. -1.
          1    1    1    2  501    0 -0.44099935754E+02  0.13098800438E+03  0.37539561533E+03  0.40003066087E+03  0.00000000000E+00 0. -1.
<scales pt_clust_5="13000.00000" pt_clust_6="13000.00000" pt_clust_7="13000.00000" pt_clust_8="13000.00000" pt_clust_9="13000.00000"></scales>
<clustering>
<clus scale="   82.164">  5  6 -1 -1</clus>
<clus scale="   94.782">  7  8 -1 -1</clus>
<clus scale="   98.057">  1  5  2 -1</clus>
<clus scale="  121.381">  7  9 -1 -1</clus>
<clus scale="  281.407">  2  5  1 -1</clus>
</clustering>
</event>
<event>
 9    2  0.4178938E-005  0.3629161E+03  0.7546771E-02  0.1063470E+00
          2   -1    0    0  502    0 -0.00000000000E+00  0.00000000000E+00  0.11393131943E+04  0.11393131943E+04  0.00000000000E+00 0. -1.
         21   -1    0    0  501  502  0.00000000000E+00 -0.00000000000E+00 -0.10255279481E+03  0.10255279481E+03  0.00000000000E+00 0. -1.
         24    2    1    2    0    0  0.62607886387E+02 -0.28922095508E+03  0.60180950238E+03  0.67539411985E+03  0.80087649954E+02 0.  0.
         23    2    1    2    0    0 -0.11146374655E+02  0.64876908175E+02  0.63681411242E+02  0.12964287558E+03  0.91753464071E+02 0.  0.
        -13    1    3    3    0    0 -0.88634049889E+01 -0.22877321015E+02  0.20426853692E+02  0.31924725786E+02  0.00000000000E+00 0.  1.
         14    1    3    3    0    0  0.71471291376E+02 -0.26634363407E+03  0.58138264869E+03  0.64346939406E+03  0.00000000000E+00 0. -1.
        -13    1    4    4    0    0 -0.40838821465E+02  0.59149187185E+02  0.16735426811E+02  0.73800475567E+02  0.00000000000E+00 0.  1.
         13    1    4    4    0    0  0.29692446810E+02  0.57277209901E+01  0.46945984430E+02  0.55842400015E+02  0.00000000000E+00 0. -1.
          1    1    1    2  501    0 -0.51461511732E+02  0.22434404691E+03  0.37126948583E+03  0.43682899364E+03  0.00000000000E+00 0. -1.
<scales pt_clust_5="13000.00000" pt_clust_6="13000.00000" pt_clust_7="13000.00000" pt_clust_8="13000.00000" pt_clust_9="13000.00000"></scales>
<clustering>
<clus scale="   80.088">  5  6 -1 -1</clus>
<clus scale="   91.753">  7  8 -1 -1</clus>
<clus scale="  230.171">  7  9 -1 -1</clus>
<clus scale="  306.566">  1  5  2 -1</clus>
<clus scale="  362.916">  2  5  1 -1</clus>
</clustering>
</event>
<event>
 9    2  0.4178938E-005  0.3570584E+03  0.7546771E-02  0.1098577E+00
         21   -1    0    0  501  502  0.00000000000E+00  0.00000000000E+00  0.19478138027E+03  0.19478138027E+03  0.00000000000E+00 0.  1.
          2   -1    0    0  502    0 -0.00000000000E+00 -0.00000000000E+00 -0.32421792665E+03  0.32421792665E+03  0.00000000000E+00 0. -1.
         24    2    1    2    0    0  0.59689932985E+02  0.49988835146E+02  0.28724618935E+02  0.12847960237E+03  0.98082275430E+02 0.  0.
         23    2    1    2    0    0  0.87360951790E+02  0.87606824026E+02 -0.48085423085E+02  0.16101328381E+03  0.91138236406E+02 0.  0.
        -13    1    3    3    0    0  0.90024104364E+01 -0.19494482148E+02  0.36262517409E+02  0.42143189209E+02  0.00000000000E+00 0.  1.
         14    1    3    3    0    0  0.50687522548E+02  0.69483317294E+02 -0.75378984739E+01  0.86336413162E+02  0.00000000000E+00 0. -1.
        -13    1    4    4    0    0  0.69506410191E+02  0.22456286594E+02 -0.57297218917E+02  0.92835322808E+02  0.00000000000E+00 0. -1.
         13    1    4    4    0    0  0.17854541599E+02  0.65150537432E+02  0.92117958327E+01  0.68177960998E+02  0.00000000000E+00 0.  1.
          1    1    1    2  501    0 -0.14705088477E+03 -0.13759565917E+03 -0.11007574223E+03  0.22950642075E+03  0.00000000000E+00 0. -1.
<scales pt_clust_5="13000.00000" pt_clust_6="13000.00000" pt_clust_7="13000.00000" pt_clust_8="13000.00000" pt_clust_9="13000.00000"></scales>
<clustering>
<clus scale="   91.138">  7  8 -1 -1</clus>
<clus scale="   98.082">  5  6 -1 -1</clus>
<clus scale="  125.227">  2  5  1 -1</clus>
<clus scale="  153.296">  7  9 -1 -1</clus>
<clus scale="  357.058">  1  5  2 -1</clus>
</clustering>
</event>
<event>
 9    2  0.4178938E-005  0.5867446E+03  0.7546771E-02  0.1040009E+00
          2   -1    0    0  502    0 -0.00000000000E+00  0.00000000000E+00  0.10219027408E+04  0.10219027408E+04  0.00000000000E+00 0. -1.
         21   -1    0    0  501  502  0.00000000000E+00 -0.00000000000E+00 -0.24208634761E+03  0.24208634761E+03  0.00000000000E+00 0. -1.
         24    2    1    2    0    0  0.86663284462E+02  0.77091614355E+02  0.64717889625E+03  0.66243945822E+03  0.80819986228E+02 0.  0.
         23    2    1    2    0    0 -0.17342611512E+03  0.19003780974E+03  0.16522746639E+03  0.31879881393E+03  0.90230713044E+02 0.  0.
        -13    1    3    3    0    0  0.26079847902E+02  0.29407173724E+01  0.40565565552E+02  0.48315332906E+02  0.00000000000E+00 0.  1.
         14    1    3    3    0    0  0.60583436560E+02  0.74150896982E+02  0.60661333070E+03  0.61412412531E+03  0.00000000000E+00 0. -1.
        -11    1    4    4    0    0 -0.92750510782E+01  0.49331312202E+02  0.65629266819E+01  0.50622889513E+02  0.00000000000E+00 0.  1.
         11    1    4    4    0    0 -0.16415106404E+03  0.14070649754E+03  0.15866453971E+03  0.26817592441E+03  0.00000000000E+00 0. -1.
          1    1    1    2  501    0  0.86762830658E+02 -0.26712942409E+03 -0.32589969434E+02  0.28275081628E+03  0.00000000000E+00 0. -1.
<scales pt_clust_5="13000.00000" pt_clust_6="13000.00000" pt_clust_7="13000.00000" pt_clust_8="13000.00000" pt_clust_9="13000.00000"></scales>
<clustering>
<clus scale="   80.820">  5  6 -1 -1</clus>
<clus scale="   90.231">  7  8 -1 -1</clus>
<clus scale="  141.370">  1  5  2 -1</clus>
<clus scale="  267.466">  7  9 -1 -1</clus>
<clus scale="  586.745">  2  5  1 -1</clus>
</clustering>
</event>
<event>
 9    2  0.4178938E-005  0.2923301E+03  0.7546771E-02  0.1103006E+00
         21   -1    0    0  501  502  0.00000000000E+00  0.00000000000E+00  0.10451445279E+03  0.10451445279E+03  0.00000000000E+00 0. -1.
          2   -1    0    0  502    0 -0.00000000000E+00 -0.00000000000E+00 -0.68395300728E+03  0.68395300728E+03  0.00000000000E+00 0. -1.
         24    2    1    2    0    0 -0.14520428991E+03 -0.11940967364E+03 -0.99426326954E+02  0.22644552917E+03  0.77775492425E+02 0.  0.
         23    2    1    2    0    0  0.11092094202E+02  0.97461154759E+02 -0.13170607979E+03  0.18814362037E+03  0.91814046816E+02 0.  0.
        -13    1    3    3    0    0 -0.60594007038E+02 -0.83423179456E+02 -0.84473641421E+02  0.13329237283E+03  0.00000000000E+00 0.  1.
         14    1    3    3    0    0 -0.84610282875E+02 -0.35986494185E+02 -0.14952685533E+02  0.93153156343E+02  0.00000000000E+00 0. -1.
        -13    1    4    4    0    0 -0.19236350060E+02  0.73238428051E+02 -0.33990831445E+02  0.83001693533E+02  0.00000000000E+00 0. -1.
         13    1    4    4    0    0  0.30328444262E+02  0.24222726708E+02 -0.97715248346E+02  0.10514192684E+03  0.00000000000E+00 0.  1.
          1    1    1    2  501    0  0.13411219571E+03  0.21948518882E+02 -0.34830614775E+03  0.37387831053E+03  0.00000000000E+00 0. -1.
<scales pt_clust_5="13000.00000" pt_clust_6="13000.00000" pt_clust_7="13000.00000" pt_clust_8="13000.00000" pt_clust_9="13000.00000"></scales>
<clustering>
<clus scale="   77.775">  5  6 -1 -1</clus>
<clus scale="   91.814">  7  8 -1 -1</clus>
<clus scale="  135.896">  7  9 -1 -1</clus>
<clus scale="  203.450">  2  5  1 -1</clus>
<clus scale="  292.330">  1  5  2 -1</clus>
</clustering>
</event>
<event>
 9    2  0.4178938E-005  0.1368599E+03  0.7546771E-02  0.1236424E+00
         21   -1    0    0  501  502  0.00000000000E+00  0.00000000000E+00  0.52658637332E+02  0.52658637332E+02  0.00000000000E+00 0. -1.
          2   -1    0    0  502    0 -0.00000000000E+00 -0.00000000000E+00 -0.34741350763E+03  0.34741350763E+03  0.00000000000E+00 0. -1.
         24    2    1    2    0    0 -0.43090168216E+02 -0.79348350704E+01 -0.23141095849E+03  0.24926400775E+03  0.81619787094E+02 0.  0.
         23    2    1    2    0    0 -0.60997728479E+00 -0.58896619056E+01 -0.43395465023E+02  0.10082053913E+03  0.90810541985E+02 0.  0.
        -11    1    3    3    0    0 -0.49864398434E+01  0.34566102969E+02 -0.74111373292E+02  0.81927868933E+02  0.00000000000E+00 0.  1.
         12    1    3    3    0    0 -0.38103728373E+02 -0.42500938040E+02 -0.15729958520E+03  0.16733613881E+03  0.00000000000E+00 0. -1.
        -11    1    4    4    0    0  0.39796345423E+02  0.17414760892E+02 -0.28080414265E+02  0.51725551435E+02  0.00000000000E+00 0.  1.
         11    1    4    4    0    0 -0.40406322708E+02 -0.23304422798E+02 -0.15315050758E+02  0.49094987692E+02  0.00000000000E+00 0. -1.
          1    1    1    2  501    0  0.43700145501E+02  0.13824496976E+02 -0.19948446789E+02  0.49987598090E+02  0.00000000000E+00 0. -1.
<scales pt_clust_5="13000.00000" pt_clust_6="13000.00000" pt_clust_7="13000.00000" pt_clust_8="13000.00000" pt_clust_9="13000.00000"></scales>
<clustering>
<clus scale="   81.620">  5  6 -1 -1</clus>
<clus scale="   90.811">  7  8 -1 -1</clus>
<clus scale="   45.835">  7  9 -1 -1</clus>
<clus scale="   92.636">  2  5  1 -1</clus>
<clus scale="  136.860">  1  5  2 -1</clus>
</clustering>
</event>
<event>
 9    2  0.4178938E-005  0.2536935E+03  0.7546771E-02  0.1151730E+00
          2   -1    0    0  502    0 -0.00000000000E+00  0.00000000000E+00  0.31195904050E+03  0.31195904050E+03  0.00000000000E+00 0. -1.
         21   -1    0    0  501  502  0.00000000000E+00 -0.00000000000E+00 -0.10258995459E+03  0.10258995459E+03  0.00000000000E+00 0. -1.
         24    2    1    2    0    0  0.17759973463E+02  0.91377741022E+01  0.14388315203E+02  0.94583531942E+02  0.91324177124E+02 0.  0.
         23    2    1    2    0    0 -0.11114272824E+03 -0.48002586655E+02  0.13309557452E+03  0.20138810422E+03  0.90475312646E+02 0.  0.
        -11    1    3    3    0    0  0.51253517117E+02 -0.53363091944E+00  0.26469708359E+02  0.57687548392E+02  0.00000000000E+00 0.  1.
         12    1    3    3    0    0 -0.33493543654E+02  0.96714050216E+01 -0.12081393156E+02  0.36895983551E+02  0.00000000000E+00 0. -1.
        -11    1    4    4    0    0 -0.77232143306E+01 -0.46939335864E+02  0.37912834678E+02  0.60830356930E+02  0.00000000000E+00 0.  1.
         11    1    4    4    0    0 -0.10341951391E+03 -0.10632507914E+01  0.95182739838E+02  0.14055774729E+03  0.00000000000E+00 0. -1.
          1    1    1    2  501    0  0.93382754776E+02  0.38864812553E+02  0.61885196194E+02  0.11857735894E+03  0.00000000000E+00 0. -1.
<scales pt_clust_5="13000.00000" pt_clust_6="13000.00000" pt_clust_7="13000.00000" pt_clust_8="13000.00000" pt_clust_9="13000.00000"></scales>
<clustering>
<clus scale="   90.475">  7  8 -1 -1</clus>
<clus scale="   91.324">  5  6 -1 -1</clus>
<clus scale="   93.483">  1  5  2 -1</clus>
<clus scale="  108.126">  7  9 -1 -1</clus>
<clus scale="  253.694">  2  5  1 -1</clus>
</clustering>
</event>
<event>
 9    2  0.4178938E-005  0.1834625E+03  0.7546771E-02  0.1181766E+00
          2   -1    0    0  502    0 -0.00000000000E+00  0.00000000000E+00  0.12769725742E+03  0.12769725742E+03  0.00000000000E+00 0. -1.
         21   -1    0    0  501  502  0.00000000000E+00 -0.00000000000E+00 -0.20474738075E+03  0.20474738075E+03  0.00000000000E+00 0. -1.
         24    2    1    2    0    0 -0.67399187894E+02  0.51092120701E+02  0.19103268948E+02  0.12531190744E+03  0.90471453702E+02 0.  0.
         23    2    1    2    0    0 -0.59580651140E+01  0.18695621844E+01 -0.55713019909E+02  0.10802849197E+03  0.92342951472E+02 0.  0.
        -11    1    3    3    0    0 -0.38682367025E+02 -0.19007005561E+02 -0.98555164862E+01  0.44212249256E+02  0.00000000000E+00 0.  1.
         12    1    3    3    0    0 -0.28716820869E+02  0.70099126262E+02  0.28958785434E+02  0.81099658183E+02  0.00000000000E+00 0. -1.
        -13    1    4    4    0    0  0.38997487284E+02 -0.18103982438E+02 -0.21209978666E+02  0.47941854257E+02  0.00000000000E+00 0.  1.
         13    1    4    4    0    0 -0.44955552398E+02  0.19973544623E+02 -0.34503041243E+02  0.60086637709E+02  0.00000000000E+00 0. -1.
          1    1    1    2  501    0  0.73357253008E+02 -0.52961682885E+02 -0.40440372374E+02  0.99104238763E+02  0.00000000000E+00 0. -1.
<scales pt_clust_5="13000.00000" pt_clust_6="13000.00000" pt_clust_7="13000.00000" pt_clust_8="13000.00000" pt_clust_9="13000.00000"></scales>
<clustering>
<clus scale="   90.471">  5  6 -1 -1</clus>
<clus scale="   92.343">  7  8 -1 -1</clus>
<clus scale="   90.478">  7  9 -1 -1</clus>
<clus scale="  123.847">  1  5  2 -1</clus>
<clus scale="  183.463">  2  5  1 -1</clus>
</clustering>
</event>
<event>
 9    2  0.4178938E-005  0.4040943E+03  0.7546771E-02  0.1090130E+00
         21   -1    0    0  501  502  0.00000000000E+00  0.00000000000E+00  0.53480544513E+03  0.53480544513E+03  0.00000000000E+00 0.  1.
         -1   -1    0    0    0  501 -0.00000000000E+00 -0.00000000000E+00 -0.12301008153E+03  0.12301008153E+03  0.00000000000E+00 0.  1.
         24    2    1    2    0    0 -0.56626832484E+02 -0.47280427343E+02  0.10459095703E+03  0.15020664874E+03  0.78617632045E+02 0.  0.
         23    2    1    2    0    0 -0.95394789195E+02 -0.28214640800E+02 -0.22532903378E+02  0.13674937305E+03  0.91084727222E+02 0.  0.
        -13    1    3    3    0    0 -0.49266373189E+02 -0.68999216805E+02  0.84844373186E+02  0.11994430002E+03  0.00000000000E+00 0.  1.
         14    1    3    3    0    0 -0.73604592945E+01  0.21718789461E+02  0.19746583839E+02  0.30262348719E+02  0.00000000000E+00 0. -1.
        -11    1    4    4    0    0 -0.10608360192E+02 -0.36541359773E+02 -0.33697681334E+02  0.50826587602E+02  0.00000000000E+00 0. -1.
         11    1    4    4    0    0 -0.84786429003E+02  0.83267189726E+01  0.11164777955E+02  0.85922785445E+02  0.00000000000E+00 0.  1.
         -2    1    1    2    0  502  0.15202162168E+03  0.75495068144E+02  0.32973730996E+03  0.37085950487E+03  0.00000000000E+00 0.  1.
<scales pt_clust_5="13000.00000" pt_clust_6="13000.00000" pt_clust_7="13000.00000" pt_clust_8="13000.00000" pt_clust_9="13000.00000"></scales>
<clustering>
<clus scale="   78.618">  5  6 -1 -1</clus>
<clus scale="   91.085">  7  8 -1 -1</clus>
<clus scale="  107.809">  2  5  1 -1</clus>
<clus scale="  155.053">  7  9 -1 -1</clus>
<clus scale="  404.094">  1  5  2 -1</clus>
</clustering>
</event>
<event>
 9    2  0.4178938E-005  0.1674372E+03  0.7546771E-02  0.1212136E+00
          2   -1    0    0  502    0 -0.00000000000E+00  0.00000000000E+00  0.11353974339E+03  0.11353974339E+03  0.00000000000E+00 0. -1.
         21   -1    0    0  501  502  0.00000000000E+00 -0.00000000000E+00 -0.14077233571E+03  0.14077233571E+03  0.00000000000E+00 0. -1.
         24    2    1    2    0    0  0.16629398230E+02 -0.13581011766E+02  0.37927470311E+01  0.84024758787E+02  0.81146746041E+02 0.  0.
         23    2    1    2    0    0  0.44768963928E+01 -0.46550169659E+02 -0.30991886510E+02  0.10655949459E+03  0.90595076915E+02 0.  0.
        -13    1    3    3    0    0  0.10611370209E+02 -0.34532956133E+02  0.32078861084E+02  0.48313347694E+02  0.00000000000E+00 0.  1.
         14    1    3    3    0    0  0.60180280220E+01  0.20951944367E+02 -0.28286114053E+02  0.35711411093E+02  0.00000000000E+00 0. -1.
        -11    1    4    4    0    0 -0.38288603737E+02 -0.15012483822E+02  0.63500398935E+01  0.41613878133E+02  0.00000000000E+00 0.  1.
         11    1    4    4    0    0  0.42765500130E+02 -0.31537685838E+02 -0.37341926404E+02  0.64945616457E+02  0.00000000000E+00 0. -1.
          1    1    1    2  501    0 -0.21106294623E+02  0.60131181426E+02 -0.33452846698E-01  0.63727825724E+02  0.00000000000E+00 0. -1.
<scales pt_clust_5="13000.00000" pt_clust_6="13000.00000" pt_clust_7="13000.00000" pt_clust_8="13000.00000" pt_clust_9="13000.00000"></scales>
<clustering>
<clus scale="   81.147">  5  6 -1 -1</clus>
<clus scale="   83.939">  1  5  2 -1</clus>
<clus scale="   90.595">  7  8 -1 -1</clus>
<clus scale="   55.584">  7  9 -1 -1</clus>
<clus scale="  167.437">  2  5  1 -1</clus>
</clustering>
</event>
<event>
 9    2  0.4178938E-005  0.4049730E+03  0.7546771E-02  0.1092906E+00
          2   -1    0    0  502    0 -0.00000000000E+00  0.00000000000E+00  0.48517951822E+03  0.48517951822E+03  0.00000000000E+00 0. -1.
         21   -1    0    0  501  502  0.00000000000E+00 -0.00000000000E+00 -0.14522863954E+03  0.14522863954E+03  0.00000000000E+00 0. -1.
         24    2    1    2    0    0 -0.58398812188E+02  0.10420810576E+02 -0.31992909021E+01  0.99602006496E+02  0.79945667036E+02 0.  0.
         23    2    1    2    0    0 -0.10611927457E+03 -0.12441883345E+03  0.23701305725E+03  0.30425188248E+03  0.98248013416E+02 0.  0.
        -13    1    3    3    0    0  0.16508534234E+01  0.20429769610E+02  0.25152194350E+02  0.32445857731E+02  0.00000000000E+00 0.  1.
         14    1    3    3    0    0 -0.60049665611E+02 -0.10008959034E+02 -0.28351485252E+02  0.67156148765E+02  0.00000000000E+00 0. -1.
        -13    1    4    4    0    0 -0.11117241805E+03 -0.77035722190E+02  0.20908573688E+03  0.24901938558E+03  0.00000000000E+00 0. -1.
         13    1    4    4    0    0  0.50531434883E+01 -0.47383111256E+02  0.27927320370E+02  0.55232496905E+02  0.00000000000E+00 0.  1.
          1    1    1    2  501    0  0.16451808675E+03  0.11399802287E+03  0.10613711234E+03  0.22655426878E+03  0.00000000000E+00 0. -1.
<scales pt_clust_5="13000.00000" pt_clust_6="13000.00000" pt_clust_7="13000.00000" pt_clust_8="13000.00000" pt_clust_9="13000.00000"></scales>
<clustering>
<clus scale="   79.946">  5  6 -1 -1</clus>
<clus scale="   98.248">  7  8 -1 -1</clus>
<clus scale="   99.551">  1  5  2 -1</clus>
<clus scale="  184.828">  7  9 -1 -1</clus>
<clus scale="  404.973">  2  5  1 -1</clus>
</clustering>
</event>
<event>
 9    2  0.4178938E-005  0.1190043E+03  0.7546771E-02  0.1256604E+00
         21   -1    0    0  501  502  0.00000000000E+00  0.00000000000E+00  0.45994557339E+02  0.45994557339E+02  0.00000000000E+00 0. -1.
          4   -1    0    0  502    0 -0.00000000000E+00 -0.00000000000E+00 -0.26326770648E+03  0.26326770648E+03  0.00000000000E+00 0. -1.
         24    2    1    2    0    0 -0.19144111480E+02 -0.33377582251E+02 -0.57838869743E+02  0.11031174255E+03  0.85690055961E+02 0.  0.
         23    2    1    2    0    0  0.10620019984E+01 -0.32989697825E+01 -0.92023666021E+02  0.12010685983E+03  0.77105717178E+02 0.  0.
        -13    1    3    3    0    0 -0.35765357092E+02 -0.79447974855E+01 -0.68853668864E+02  0.77994283707E+02  0.00000000000E+00 0.  1.
         14    1    3    3    0    0  0.16621245612E+02 -0.25432784765E+02  0.11014799120E+02  0.32317458846E+02  0.00000000000E+00 0. -1.
        -11    1    4    4    0    0 -0.24938637447E+02  0.11869094312E+02 -0.50571904780E+01  0.28078215987E+02  0.00000000000E+00 0.  1.
         11    1    4    4    0    0  0.26000639446E+02 -0.15168064094E+02 -0.86966475543E+02  0.92028643847E+02  0.00000000000E+00 0. -1.
          3    1    1    2  501    0  0.18082109482E+02  0.36676552033E+02 -0.67410613381E+02  0.78843661437E+02  0.00000000000E+00 0. -1.
<scales pt_clust_5="13000.00000" pt_clust_6="13000.00000" pt_clust_7="13000.00000" pt_clust_8="13000.00000" pt_clust_9="13000.00000"></scales>
<clustering>
<clus scale="   77.106">  7  8 -1 -1</clus>
<clus scale="   40.892">  7  9 -1 -1</clus>
<clus scale="   85.690">  5  6 -1 -1</clus>
<clus scale="   93.933">  2  5  1 -1</clus>
<clus scale="  119.004">  1  5  2 -1</clus>
</clustering>
</event>
<event>
 9    2  0.4178938E-005  0.2114492E+03  0.7546771E-02  0.1174709E+00
          2   -1    0    0  502    0 -0.00000000000E+00  0.00000000000E+00  0.19812918850E+04  0.19812918850E+04  0.00000000000E+00 0. -1.
         21   -1    0    0  501  502  0.00000000000E+00 -0.00000000000E+00 -0.20073806402E+02  0.20073806402E+02  0.00000000000E+00 0. -1.
         24    2    1    2    0    0 -0.41269806378E+02 -0.10583116841E+02  0.13734359321E+04  0.13767068925E+04  0.84737293895E+02 0.  0.
         23    2    1    2    0    0  0.85338079410E+02 -0.30570946629E+02  0.51119540619E+03  0.52718470790E+03  0.91574026663E+02 0.  0.
        -11    1    3    3    0    0 -0.26457502344E+02 -0.94467557437E+01  0.12239549972E+03  0.12557825837E+03  0.00000000000E+00 0.  1.
         12    1    3    3    0    0 -0.14812304033E+02 -0.11363610977E+01  0.12510404323E+04  0.12511286341E+04  0.00000000000E+00 0. -1.
        -11    1    4    4    0    0 -0.69888226155E+01 -0.32417890394E+02  0.19424758345E+03  0.19705808011E+03  0.00000000000E+00 0. -1.
         11    1    4    4    0    0  0.92326902026E+02  0.18469437653E+01  0.31694782274E+03  0.33012662779E+03  0.00000000000E+00 0.  1.
          1    1    1    2  501    0 -0.44068273033E+02  0.41154063470E+02  0.76586740340E+02  0.97474091040E+02  0.00000000000E+00 0. -1.
<scales pt_clust_5="13000.00000" pt_clust_6="13000.00000" pt_clust_7="13000.00000" pt_clust_8="13000.00000" pt_clust_9="13000.00000"></scales>
<clustering>
<clus scale="   84.737">  5  6 -1 -1</clus>
<clus scale="   91.574">  7  8 -1 -1</clus>
<clus scale="   60.297">  7  9 -1 -1</clus>
<clus scale="   94.845">  1  5  2 -1</clus>
<clus scale="  211.449">  2  5  1 -1</clus>
</clustering>
</event>
<event>
 9    2  0.4178938E-005  0.5035387E+03  0.7546771E-02  0.1047740E+00
          4   -1    0    0  502    0 -0.00000000000E+00  0.00000000000E+00  0.17923010967E+03  0.17923010967E+03  0.00000000000E+00 0. -1.
         21   -1    0    0  501  502  0.00000000000E+00 -0.00000000000E+00 -0.65519053370E+03  0.65519053370E+03  0.00000000000E+00 0.  1.
         24    2    1    2    0    0 -0.15964653542E+03  0.15620626906E+01 -0.91964521686E+02  0.20117178797E+03  0.80766074051E+02 0.  0.
         23    2    1    2    0    0 -0.60338352160E+02  0.12391941244E+03 -0.33735543149E+03  0.37573325416E+03  0.91487997045E+02 0.  0.
        -13    1    3    3    0    0 -0.74181432802E+02 -0.29710186197E+01 -0.88500538089E+02  0.11551648006E+03  0.00000000000E+00 0.  1.
         14    1    3    3    0    0 -0.85465102614E+02  0.45330813102E+01 -0.34639835974E+01  0.85655307911E+02  0.00000000000E+00 0. -1.
        -11    1    4    4    0    0 -0.18058625836E+01  0.62103085461E+02 -0.63035089863E+02  0.88506931466E+02  0.00000000000E+00 0. -1.
         11    1    4    4    0    0 -0.58532489576E+02  0.61816326983E+02 -0.27432034162E+03  0.28722632269E+03  0.00000000000E+00 0.  1.
          3    1    1    2  501    0  0.21998488758E+03 -0.12548147513E+03 -0.46640470856E+02  0.25751560125E+03  0.00000000000E+00 0. -1.
<scales pt_clust_5="13000.00000" pt_clust_6="13000.00000" pt_clust_7="13000.00000" pt_clust_8="13000.00000" pt_clust_9="13000.00000"></scales>
<clustering>
<clus scale="   80.766">  5  6 -1 -1</clus>
<clus scale="   91.488">  7  8 -1 -1</clus>
<clus scale="  178.921">  1  5  2 -1</clus>
<clus scale="  150.423">  7  9 -1 -1</clus>
<clus scale="  503.539">  2  5  1 -1</clus>
</clustering>
</event>
<event>
 9    2  0.4178938E-005  0.1478256E+03  0.7546771E-02  0.1217210E+00
          2   -1    0    0  502    0 -0.00000000000E+00  0.00000000000E+00  0.28917281967E+03  0.28917281967E+03  0.00000000000E+00 0. -1.
         21   -1    0    0  501  502  0.00000000000E+00 -0.00000000000E+00 -0.85465964582E+02  0.85465964582E+02  0.00000000000E+00 0.  1.
         24    2    1    2    0    0  0.73109507590E+02  0.24682439002E+00  0.19850171229E+03  0.22672156968E+03  0.81576218090E+02 0.  0.
         23    2    1    2    0    0 -0.39677651456E+02  0.11288051494E+02  0.28403226896E+02  0.10562190192E+03  0.92991971352E+02 0.  0.
        -13    1    3    3    0    0 -0.77628459893E+01  0.18743516595E+02  0.14665464580E+02  0.25033118933E+02  0.00000000000E+00 0.  1.
         14    1    3    3    0    0  0.80872353579E+02 -0.18496692205E+02  0.18383624771E+03  0.20168845075E+03  0.00000000000E+00 0. -1.
        -11    1    4    4    0    0  0.92784883395E+01  0.23556309629E+02 -0.22549940843E+02  0.33904128086E+02  0.00000000000E+00 0.  1.
         11    1    4    4    0    0 -0.48956139795E+02 -0.12268258135E+02  0.50953167739E+02  0.71717773836E+02  0.00000000000E+00 0. -1.
          1    1    1    2  501    0 -0.33431856134E+02 -0.11534875884E+02 -0.23198084092E+02  0.42295312645E+02  0.00000000000E+00 0. -1.
<scales pt_clust_5="13000.00000" pt_clust_6="13000.00000" pt_clust_7="13000.00000" pt_clust_8="13000.00000" pt_clust_9="13000.00000"></scales>
<clustering>
<clus scale="   81.576">  5  6 -1 -1</clus>
<clus scale="   92.992">  7  8 -1 -1</clus>
<clus scale="   35.366">  7  9 -1 -1</clus>
<clus scale="  109.543">  1  5  2 -1</clus>
<clus scale="  147.826">  2  5  1 -1</clus>
</clustering>
</event>
<event>
 9    2  0.4178938E-005  0.1254701E+03  0.7546771E-02  0.1254368E+00
         21   -1    0    0  501  502  0.00000000000E+00  0.00000000000E+00  0.20071522861E+02  0.20071522861E+02  0.00000000000E+00 0. -1.
          2   -1    0    0  502    0 -0.00000000000E+00 -0.00000000000E+00 -0.75201010519E+03  0.75201010519E+03  0.00000000000E+00 0. -1.
         24    2    1    2    0    0 -0.24477206003E+02  0.14373511114E+01 -0.11363853716E+03  0.14117933659E+03  0.80104234342E+02 0.  0.
         23    2    1    2    0    0 -0.80385824828E+00 -0.20119483557E+02 -0.47949065133E+03  0.48857800647E+03  0.91606462002E+02 0.  0.
        -11    1    3    3    0    0 -0.46967040317E+02 -0.11051764280E+00 -0.10825192647E+03  0.11800167234E+03  0.00000000000E+00 0.  1.
         12    1    3    3    0    0  0.22489834314E+02  0.15478687542E+01 -0.53866106845E+01  0.23177664244E+02  0.00000000000E+00 0. -1.
        -11    1    4    4    0    0 -0.34612545715E+01 -0.56503697122E+02 -0.26166148094E+03  0.26771510730E+03  0.00000000000E+00 0. -1.
         11    1    4    4    0    0  0.26573963232E+01  0.36384213565E+02 -0.21782917040E+03  0.22086289916E+03  0.00000000000E+00 0.  1.
          1    1    1    2  501    0  0.25281064251E+02  0.18682132446E+02 -0.13880939384E+03  0.14232428500E+03  0.00000000000E+00 0. -1.
<scales pt_clust_5="13000.00000" pt_clust_6="13000.00000" pt_clust_7="13000.00000" pt_clust_8="13000.00000" pt_clust_9="13000.00000"></scales>
<clustering>
<clus scale="   80.104">  5  6 -1 -1</clus>
<clus scale="   83.773">  2  5  1 -1</clus>
<clus scale="   91.606">  7  8 -1 -1</clus>
<clus scale="   27.426">  7  9 -1 -1</clus>
<clus scale="  125.470">  1  5  2 -1</clus>
</clustering>
</event>
<event>
 9    2  0.4178938E-005  0.2202535E+03  0.7546771E-02  0.1159042E+00
         21   -1    0    0  501  502  0.00000000000E+00  0.00000000000E+00  0.87452087915E+03  0.87452087915E+03  0.00000000000E+00 0. -1.
          4   -1    0    0  502    0 -0.00000000000E+00 -0.00000000000E+00 -0.33628123382E+02  0.33628123382E+02  0.00000000000E+00 0. -1.
         24    2    1    2    0    0 -0.16633334768E+02  0.85899113124E+02  0.24753857808E+03  0.27523450363E+03  0.82603625173E+02 0.  0.
         23    2    1    2    0    0 -0.12606802931E+02  0.28535491193E+02  0.32937330081E+03  0.34371531551E+03  0.93167811438E+02 0.  0.
        -11    1    3    3    0    0  0.26173559608E+02  0.87199077223E+01  0.95832357204E+02  0.99724283404E+02  0.00000000000E+00 0.  1.
         12    1    3    3    0    0 -0.42806894376E+02  0.77179205402E+02  0.15170622087E+03  0.17551022023E+03  0.00000000000E+00 0. -1.
        -13    1    4    4    0    0  0.33352948688E+02  0.34346368060E+02  0.21600839551E+03  0.22125035394E+03  0.00000000000E+00 0. -1.
         13    1    4    4    0    0 -0.45959751618E+02 -0.58108768665E+01  0.11336490530E+03  0.12246496157E+03  0.00000000000E+00 0.  1.
          3    1    1    2  501    0  0.29240137699E+02 -0.11443460432E+03  0.26398087688E+03  0.28919918339E+03  0.00000000000E+00 0. -1.
<scales pt_clust_5="13000.00000" pt_clust_6="13000.00000" pt_clust_7="13000.00000" pt_clust_8="13000.00000" pt_clust_9="13000.00000"></scales>
<clustering>
<clus scale="   82.604">  5  6 -1 -1</clus>
<clus scale="   93.168">  7  8 -1 -1</clus>
<clus scale="  118.111">  7  9 -1 -1</clus>
<clus scale="  120.327">  2  5  1 -1</clus>
<clus scale="  220.253">  1  5  2 -1</clus>
</clustering>
</event>
<event>
 9    2  0.4178938E-005  0.2050893E+03  0.7546771E-02  0.1172557E+00
         21   -1    0    0  501  502  0.00000000000E+00  0.00000000000E+00  0.54548864072E+02  0.54548864072E+02  0.00000000000E+00 0. -1.
         -1   -1    0    0    0  501 -0.00000000000E+00 -0.00000000000E+00 -0.49098582520E+03  0.49098582520E+03  0.00000000000E+00 0.  1.
         24    2    1    2    0    0  0.72820380165E+02  0.13812228661E+02 -0.83870442526E+02  0.13765632734E+03  0.80133812456E+02 0.  0.
         23    2    1    2    0    0 -0.67986732113E+01  0.21706631529E+02 -0.73652535276E+02  0.11906446803E+03  0.90742778138E+02 0.  0.
        -11    1    3    3    0    0  0.59207557629E+01 -0.19638734620E+02  0.53824905818E+01  0.21206283294E+02  0.00000000000E+00 0.  1.
         12    1    3    3    0    0  0.66899624402E+02  0.33450963280E+02 -0.89252933108E+02  0.11645004404E+03  0.00000000000E+00 0. -1.
        -11    1    4    4    0    0 -0.33602427800E+02  0.45692135713E+02 -0.52789564826E+02  0.77483111544E+02  0.00000000000E+00 0. -1.
         11    1    4    4    0    0  0.26803754588E+02 -0.23985504183E+02 -0.20862970449E+02  0.41581356482E+02  0.00000000000E+00 0.  1.
         -2    1    1    2    0  502 -0.66021706954E+02 -0.35518860190E+02 -0.27891398332E+03  0.28881389390E+03  0.00000000000E+00 0.  1.
<scales pt_clust_5="13000.00000" pt_clust_6="13000.00000" pt_clust_7="13000.00000" pt_clust_8="13000.00000" pt_clust_9="13000.00000"></scales>
<clustering>
<clus scale="   80.134">  5  6 -1 -1</clus>
<clus scale="   90.743">  7  8 -1 -1</clus>
<clus scale="   74.970">  7  9 -1 -1</clus>
<clus scale="  109.156">  2  5  1 -1</clus>
<clus scale="  205.089">  1  5  2 -1</clus>
</clustering>
</event>
<event>
 9    2  0.4178938E-005  0.3071838E+03  0.7546771E-02  0.1117204E+00
         -3   -1    0    0    0  501 -0.00000000000E+00  0.00000000000E+00  0.64672774024E+03  0.64672774024E+03  0.00000000000E+00 0.  1.
         21   -1    0    0  501  502  0.00000000000E+00 -0.00000000000E+00 -0.75789248184E+02  0.75789248184E+02  0.00000000000E+00 0.  1.
         24    2    1    2    0    0 -0.77859605400E+02 -0.49944622557E+02  0.89473920298E+02  0.15140399798E+03  0.79755907083E+02 0.  0.
         23    2    1    2    0    0 -0.59760095802E+02  0.45470285617E+02  0.38699200439E+03  0.40412715920E+03  0.88978274999E+02 0.  0.
        -13    1    3    3    0    0 -0.26685398111E+02 -0.45865926330E+02  0.84562754438E+02  0.99833126308E+02  0.00000000000E+00 0.  1.
         14    1    3    3    0    0 -0.51174207289E+02 -0.40786962269E+01  0.49111658601E+01  0.51570871669E+02  0.00000000000E+00 0. -1.
        -13    1    4    4    0    0 -0.71721147614E+02  0.62526418613E+02  0.33016346213E+03  0.34360062248E+03  0.00000000000E+00 0.  1.
         13    1    4    4    0    0  0.11961051811E+02 -0.17056132996E+02  0.56828542254E+02  0.60526536725E+02  0.00000000000E+00 0. -1.
         -4    1    1    2    0  502  0.13761970120E+03  0.44743369401E+01  0.94472567368E+02  0.16698583124E+03  0.00000000000E+00 0.  1.
<scales pt_clust_5="13000.00000" pt_clust_6="13000.00000" pt_clust_7="13000.00000" pt_clust_8="13000.00000" pt_clust_9="13000.00000"></scales>
<clustering>
<clus scale="   79.756">  5  6 -1 -1</clus>
<clus scale="   88.978">  7  8 -1 -1</clus>
<clus scale="  122.138">  1  5  2 -1</clus>
<clus scale="  118.545">  7  9 -1 -1</clus>
<clus scale="  307.184">  2  5  1 -1</clus>
</clustering>
</event>
<event>
 9    2  0.4178938E-005  0.5508434E+03  0.7546771E-02  0.1055101E+00
          2   -1    0    0  502    0 -0.00000000000E+00  0.00000000000E+00  0.61865319465E+03  0.61865319465E+03  0.00000000000E+00 0. -1.
         21   -1    0    0  501  502  0.00000000000E+00 -0.00000000000E+00 -0.18000174608E+03  0.18000174608E+03  0.00000000000E+00 0. -1.
         24    2    1    2    0    0 -0.49447295431E+02  0.45960079739E+02  0.36746299959E+02  0.11677793522E+03  0.87917186250E+02 0.  0.
         23    2    1    2    0    0  0.22879936799E+03 -0.17734459263E+03  0.33018582253E+03  0.44826896222E+03  0.90122859267E+02 0.  0.
        -13    1    3    3    0    0 -0.50712675681E+02 -0.10328534775E+02  0.46330933170E+01  0.51960751139E+02  0.00000000000E+00 0.  1.
         14    1    3    3    0    0  0.12653802498E+01  0.56288614514E+02  0.32113206642E+02  0.64817184079E+02  0.00000000000E+00 0. -1.
        -13    1    4    4    0    0  0.65246686918E+02 -0.14426145496E+02  0.11318736221E+03  0.13144056753E+03  0.00000000000E+00 0.  1.
         13    1    4    4    0    0  0.16355268107E+03 -0.16291844714E+03  0.21699846031E+03  0.31682839469E+03  0.00000000000E+00 0. -1.
          1    1    1    2  501    0 -0.17935207255E+03  0.13138451289E+03  0.71719326085E+02  0.23360804329E+03  0.00000000000E+00 0. -1.
<scales pt_clust_5="13000.00000" pt_clust_6="13000.00000" pt_clust_7="13000.00000" pt_clust_8="13000.00000" pt_clust_9="13000.00000"></scales>
<clustering>
<clus scale="   87.917">  5  6 -1 -1</clus>
<clus scale="   90.123">  7  8 -1 -1</clus>
<clus scale="  110.846">  1  5  2 -1</clus>
<clus scale="  241.226">  7  9 -1 -1</clus>
<clus scale="  550.843">  2  5  1 -1</clus>
</clustering>
</event>
<event>
 9    2  0.4178938E-005  0.2455673E+03  0.7546771E-02  0.1157931E+00
          2   -1    0    0  502    0 -0.00000000000E+00  0.00000000000E+00  0.12817097869E+03  0.12817097869E+03  0.00000000000E+00 0. -1.
         21   -1    0    0  501  502  0.00000000000E+00 -0.00000000000E+00 -0.38546831292E+03  0.38546831292E+03  0.00000000000E+00 0. -1.
         24    2    1    2    0    0 -0.75332013422E+01 -0.35700711003E+02  0.63666728919E+02  0.10950908713E+03  0.81286517354E+02 0.  0.
         23    2    1    2    0    0  0.73894644453E+02  0.13067992076E+02 -0.49766167267E+02  0.12401526410E+03  0.85275573458E+02 0.  0.
        -13    1    3    3    0    0 -0.20080681515E+02 -0.43484097021E+02  0.76292625410E+02  0.90081436244E+02  0.00000000000E+00 0.  1.
         14    1    3    3    0    0  0.12547480172E+02  0.77833860187E+01 -0.12625896491E+02  0.19427650882E+02  0.00000000000E+00 0. -1.
        -13    1    4    4    0    0 -0.93913261155E+01  0.25729437634E+02 -0.27165861771E+01  0.27524185866E+02  0.00000000000E+00 0.  1.
         13    1    4    4    0    0  0.83285970568E+02 -0.12661445558E+02 -0.47049581090E+02  0.96491078229E+02  0.00000000000E+00 0. -1.
          1    1    1    2  501    0 -0.66361443110E+02  0.22632718927E+02 -0.27119789588E+03  0.28011494039E+03  0.00000000000E+00 0. -1.
<scales pt_clust_5="13000.00000" pt_clust_6="13000.00000" pt_clust_7="13000.00000" pt_clust_8="13000.00000" pt_clust_9="13000.00000"></scales>
<clustering>
<clus scale="   81.287">  5  6 -1 -1</clus>
<clus scale="   85.276">  7  8 -1 -1</clus>
<clus scale="   70.115">  7  9 -1 -1</clus>
<clus scale="   89.100">  1  5  2 -1</clus>
<clus scale="  245.567">  2  5  1 -1</clus>
</clustering>
</event>
<event>
 9    2  0.4178938E-005  0.3206001E+03  0.7546771E-02  0.1112410E+00
          2   -1    0    0  502    0 -0.00000000000E+00  0.00000000000E+00  0.25751548926E+03  0.25751548926E+03  0.00000000000E+00 0. -1.
         21   -1    0    0  501  502  0.00000000000E+00 -0.00000000000E+00 -0.18957350968E+03  0.18957350968E+03  0.00000000000E+00 0. -1.
         24    2    1    2    0    0  0.93030132610E+02 -0.66579627487E+00  0.21246907920E+02  0.12310620825E+03  0.77773122314E+02 0.  0.
         23    2    1    2    0    0  0.60235959616E+02 -0.72299488380E+02 -0.35011263514E+02  0.13559395611E+03  0.91128181751E+02 0.  0.
        -13    1    3    3    0    0 -0.27794150249E+01  0.20498855357E+02  0.13456523323E+02  0.24678051762E+02  0.00000000000E+00 0.  1.
         14    1    3    3    0    0  0.95809547635E+02 -0.21164651632E+02  0.77903845968E+01  0.98428156485E+02  0.00000000000E+00 0. -1.
        -13    1    4    4    0    0  0.97867029868E+01 -0.75042214073E+02 -0.38580080564E+02  0.84944311550E+02  0.00000000000E+00 0. -1.
         13    1    4    4    0    0  0.50449256629E+02  0.27427256934E+01  0.35688170503E+01  0.50649644558E+02  0.00000000000E+00 0.  1.
          1    1    1    2  501    0 -0.15326609223E+03  0.72965284654E+02  0.81706335173E+02  0.18838883459E+03  0.00000000000E+00 0. -1.
<scales pt_clust_5="13000.00000" pt_clust_6="13000.00000" pt_clust_7="13000.00000" pt_clust_8="13000.00000" pt_clust_9="13000.00000"></scales>
<clustering>
<clus scale="   77.773">  5  6 -1 -1</clus>
<clus scale="   91.128">  7  8 -1 -1</clus>
<clus scale="  121.259">  1  5  2 -1</clus>
<clus scale="  112.072">  7  9 -1 -1</clus>
<clus scale="  320.600">  2  5  1 -1</clus>
</clustering>
</event>
<event>
 9    2  0.4178938E-005  0.8919817E+03  0.7546771E-02  0.1011557E+00
         21   -1    0    0  501  502  0.00000000000E+00  0.00000000000E+00  0.46152519102E+03  0.46152519102E+03  0.00000000000E+00 0.  1.
         -3   -1    0    0    0  501 -0.00000000000E+00 -0.00000000000E+00 -0.52735106086E+03  0.52735106086E+03  0.00000000000E+00 0.  1.
         24    2    1    2    0    0 -0.34837696096E+02  0.34236928586E+02 -0.14729093073E+02  0.95432254260E+02  0.80650707512E+02 0.  0.
         23    2    1    2    0    0 -0.22341902054E+03 -0.12828054334E+03 -0.37781436168E+03  0.46649539011E+03  0.92207920247E+02 0.  0.
        -11    1    3    3    0    0 -0.19435342490E+01  0.54911494509E+02 -0.38228965179E+01  0.55078708158E+02  0.00000000000E+00 0.  1.
         12    1    3    3    0    0 -0.32894161847E+02 -0.20674565923E+02 -0.10906196555E+02  0.40353546102E+02  0.00000000000E+00 0. -1.
        -13    1    4    4    0    0 -0.15653975122E+03 -0.12900694030E+03 -0.31548849714E+03  0.37507396095E+03  0.00000000000E+00 0.  1.
         13    1    4    4    0    0 -0.66879269323E+02  0.72639695037E+00 -0.62325864540E+02  0.91421429153E+02  0.00000000000E+00 0. -1.
         -4    1    1    2    0  502  0.25825671664E+03  0.94043614758E+02  0.32671758491E+03  0.42694860751E+03  0.00000000000E+00 0.  1.
<scales pt_clust_5="13000.00000" pt_clust_6="13000.00000" pt_clust_7="13000.00000" pt_clust_8="13000.00000" pt_clust_9="13000.00000"></scales>
<clustering>
<clus scale="   80.651">  5  6 -1 -1</clus>
<clus scale="   92.208">  7  8 -1 -1</clus>
<clus scale="   94.289">  2  5  1 -1</clus>
<clus scale="  272.656">  7  9 -1 -1</clus>
<clus scale="  891.982">  1  5  2 -1</clus>
</clustering>
</event>
<event>
 9    2  0.4178938E-005  0.3148122E+03  0.7546771E-02  0.1129839E+00
         21   -1    0    0  501  502  0.00000000000E+00  0.00000000000E+00  0.82242713707E+02  0.82242713707E+02  0.00000000000E+00 0.  1.
          2   -1    0    0  502    0 -0.00000000000E+00 -0.00000000000E+00 -0.48083902757E+03  0.48083902757E+03  0.00000000000E+00 0. -1.
         24    2    1    2    0    0 -0.20009885603E+01  0.16945732299E+02 -0.85106354748E+02  0.11880403847E+03  0.81118099957E+02 0.  0.
         23    2    1    2    0    0 -0.25396604887E+02  0.21133392523E+02  0.26943073947E+02  0.10062773863E+03  0.91150451066E+02 0.  0.
        -11    1    3    3    0    0 -0.89549083878E+01  0.44348891970E+02 -0.77143571662E+02  0.89432350142E+02  0.00000000000E+00 0.  1.
         12    1    3    3    0    0  0.69539198276E+01 -0.27403159671E+02 -0.79627830866E+01  0.29371688331E+02  0.00000000000E+00 0. -1.
        -11    1    4    4    0    0 -0.47471550269E+02 -0.45515651423E+00  0.44533337379E+02  0.65092037842E+02  0.00000000000E+00 0.  1.
         11    1    4    4    0    0  0.22074945382E+02  0.21588549038E+02 -0.17590263432E+02  0.35535700792E+02  0.00000000000E+00 0. -1.
          1    1    1    2  501    0  0.27397593448E+02 -0.38079124822E+02 -0.34043303306E+03  0.34364996417E+03  0.00000000000E+00 0. -1.
<scales pt_clust_5="13000.00000" pt_clust_6="13000.00000" pt_clust_7="13000.00000" pt_clust_8="13000.00000" pt_clust_9="13000.00000"></scales>
<clustering>
<clus scale="   81.118">  5  6 -1 -1</clus>
<clus scale="   82.893">  2  5  1 -1</clus>
<clus scale="   91.150">  7  8 -1 -1</clus>
<clus scale="   34.262">  7  9 -1 -1</clus>
<clus scale="  314.812">  1  5  2 -1</clus>
</clustering>
</event>
<event>
 9    2  0.4178938E-005  0.2629810E+03  0.7546771E-02  0.1141636E+00
         21   -1    0    0  501  502  0.00000000000E+00  0.00000000000E+00  0.19026763827E+03  0.19026763827E+03  0.00000000000E+00 0.  1.
          2   -1    0    0  502    0 -0.00000000000E+00 -0.00000000000E+00 -0.28069553030E+03  0.28069553030E+03  0.00000000000E+00 0. -1.
         24    2    1    2    0    0 -0.51990841592E+02  0.24435743522E+02 -0.16597925600E+03  0.19734483783E+03  0.89976210329E+02 0.  0.
         23    2    1    2    0    0  0.70578964665E+02  0.66793388072E+02  0.11168735896E+03  0.17374800028E+03  0.90948086878E+02 0.  0.
        -11    1    3    3    0    0  0.32059178735E+01  0.28865546839E+02 -0.12533307595E+03  0.12865410071E+03  0.00000000000E+00 0.  1.
         12    1    3    3    0    0 -0.55196759465E+02 -0.44298033175E+01 -0.40646180052E+02  0.68690737118E+02  0.00000000000E+00 0. -1.
        -11    1    4    4    0    0  0.58770571531E+02  0.28282079734E+01  0.21698493865E+02  0.62712068012E+02  0.00000000000E+00 0.  1.
         11    1    4    4    0    0  0.11808393134E+02  0.63965180099E+02  0.89988865096E+02  0.11103593227E+03  0.00000000000E+00 0. -1.
          1    1    1    2  501    0 -0.18588123073E+02 -0.91229131594E+02 -0.36135994995E+02  0.99870330454E+02  0.00000000000E+00 0. -1.
<scales pt_clust_5="13000.00000" pt_clust_6="13000.00000" pt_clust_7="13000.00000" pt_clust_8="13000.00000" pt_clust_9="13000.00000"></scales>
<clustering>
<clus scale="   89.976">  5  6 -1 -1</clus>
<clus scale="   90.948">  7  8 -1 -1</clus>
<clus scale="   93.104">  7  9 -1 -1</clus>
<clus scale="  106.751">  2  5  1 -1</clus>
<clus scale="  262.981">  1  5  2 -1</clus>
</clustering>
</event>
<event>
 9    2  0.4178938E-005  0.5176135E+03  0.7546771E-02  0.1063007E+00
          2   -1    0    0  502    0 -0.00000000000E+00  0.00000000000E+00  0.22692487268E+03  0.22692487268E+03  0.00000000000E+00 0. -1.
         21   -1    0    0  501  502  0.00000000000E+00 -0.00000000000E+00 -0.12041251867E+04  0.12041251867E+04  0.00000000000E+00 0. -1.
         24    2    1    2    0    0  0.49894621004E+02 -0.48279447917E+02  0.15371562601E+03  0.18730790283E+03  0.81457832561E+02 0.  0.
         23    2    1    2    0    0  0.87803288400E+02 -0.44361342589E+01 -0.27483445799E+02  0.13050232785E+03  0.92446855227E+02 0.  0.
        -13    1    3    3    0    0  0.37105914025E+02  0.39355349919E+01  0.18194121494E+02  0.41513411667E+02  0.00000000000E+00 0.  1.
         14    1    3    3    0    0  0.12788706979E+02 -0.52214982909E+02  0.13552150452E+03  0.14579449116E+03  0.00000000000E+00 0. -1.
        -13    1    4    4    0    0  0.74893732909E+02 -0.43332110609E+02 -0.20623110660E+02  0.88949737111E+02  0.00000000000E+00 0. -1.
         13    1    4    4    0    0  0.12909555491E+02  0.38895976350E+02 -0.68603351388E+01  0.41552590743E+02  0.00000000000E+00 0.  1.
          1    1    1    2  501    0 -0.13769790940E+03  0.52715582176E+02 -0.11034324942E+04  0.11132398287E+04  0.00000000000E+00 0. -1.
<scales pt_clust_5="13000.00000" pt_clust_6="13000.00000" pt_clust_7="13000.00000" pt_clust_8="13000.00000" pt_clust_9="13000.00000"></scales>
<clustering>
<clus scale="   81.458">  5  6 -1 -1</clus>
<clus scale="   92.447">  7  8 -1 -1</clus>
<clus scale="  107.032">  1  5  2 -1</clus>
<clus scale="  141.913">  7  9 -1 -1</clus>
<clus scale="  517.613">  2  5  1 -1</clus>
</clustering>
</event>
<event>
 9    2  0.4178938E-005  0.3649504E+03  0.7546771E-02  0.1090644E+00
          2   -1    0    0  502    0 -0.00000000000E+00  0.00000000000E+00  0.27023708314E+03  0.27023708314E+03  0.00000000000E+00 0. -1.
         21   -1    0    0  501  502  0.00000000000E+00 -0.00000000000E+00 -0.37856880748E+03  0.37856880748E+03  0.00000000000E+00 0.  1.
         24    2    1    2    0    0  0.66240996518E+02  0.98237184127E+02 -0.22353079202E+03  0.26610549635E+03  0.82508825233E+02 0.  0.
         23    2    1    2    0    0  0.24585147451E+02  0.61579622883E+02 -0.63049244944E+02  0.12664715531E+03  0.87566062090E+02 0.  0.
        -11    1    3    3    0    0  0.30621164559E+02  0.67509774310E+02 -0.58299942513E+02  0.94308582023E+02  0.00000000000E+00 0.  1.
         12    1    3    3    0    0  0.35619831959E+02  0.30727409817E+02 -0.16523084951E+03  0.17179691433E+03  0.00000000000E+00 0. -1.
        -13    1    4    4    0    0  0.69756175126E+01  0.80905485329E+02 -0.35377105739E+02  0.88577064788E+02  0.00000000000E+00 0.  1.
         13    1    4    4    0    0  0.17609529938E+02 -0.19325862447E+02 -0.27672139205E+02  0.38070090519E+02  0.00000000000E+00 0. -1.
          1    1    1    2  501    0 -0.90826143969E+02 -0.15981680701E+03  0.17824831262E+03  0.25605323896E+03  0.00000000000E+00 0. -1.
<scales pt_clust_5="13000.00000" pt_clust_6="13000.00000" pt_clust_7="13000.00000" pt_clust_8="13000.00000" pt_clust_9="13000.00000"></scales>
<clustering>
<clus scale="   82.509">  5  6 -1 -1</clus>
<clus scale="   87.566">  7  8 -1 -1</clus>
<clus scale="  144.382">  1  5  2 -1</clus>
<clus scale="   81.160">  7  9 -1 -1</clus>
<clus scale="  364.950">  2  5  1 -1</clus>
</clustering>
</event>
<event>
 9    2  0.4178938E-005  0.4097922E+03  0.7546771E-02  0.1070506E+00
         21   -1    0    0  501  502  0.00000000000E+00  0.00000000000E+00  0.10733451357E+03  0.10733451357E+03  0.00000000000E+00 0. -1.
          2   -1    0    0  502    0 -0.00000000000E+00 -0.00000000000E+00 -0.16535390298E+04  0.16535390298E+04  0.00000000000E+00 0. -1.
         24    2    1    2    0    0 -0.14588169910E+03  0.53527579875E+02 -0.12321925662E+04  0.12446050629E+04  0.81219273572E+02 0.  0.
         23    2    1    2    0    0 -0.27886804289E+02 -0.16224504521E+03 -0.22399199455E+03  0.29239670377E+03  0.90676844910E+02 0.  0.
        -11    1    3    3    0    0 -0.33910209938E+02  0.21936934284E+01 -0.97614937929E+02  0.10336048924E+03  0.00000000000E+00 0.  1.
         12    1    3    3    0    0 -0.11197148916E+03  0.51333886447E+02 -0.11345776283E+04  0.11412445736E+04  0.00000000000E+00 0. -1.
        -11    1    4    4    0    0 -0.52308221403E+02 -0.51755336712E+02 -0.10471619428E+03  0.12798533607E+03  0.00000000000E+00 0.  1.
         11    1    4    4    0    0  0.24421417113E+02 -0.11048970850E+03 -0.11927580026E+03  0.16441136770E+03  0.00000000000E+00 0. -1.
          1    1    1    2  501    0  0.17376850339E+03  0.10871746534E+03 -0.90019955527E+02  0.22387177676E+03  0.00000000000E+00 0. -1.
<scales pt_clust_5="13000.00000" pt_clust_6="13000.00000" pt_clust_7="13000.00000" pt_clust_8="13000.00000" pt_clust_9="13000.00000"></scales>
<clustering>
<clus scale="   81.219">  5  6 -1 -1</clus>
<clus scale="   90.677">  7  8 -1 -1</clus>
<clus scale="  175.338">  2  5  1 -1</clus>
<clus scale="  175.212">  7  9 -1 -1</clus>
<clus scale="  409.792">  1  5  2 -1</clus>
</clustering>
</event>
<event>
 9    2  0.4178938E-005  0.1277392E+04  0.7546771E-02  0.9654437E-01
          2   -1    0    0  502    0 -0.00000000000E+00  0.00000000000E+00  0.25344728413E+04  0.25344728413E+04  0.00000000000E+00 0. -1.
         21   -1    0    0  501  502  0.00000000000E+00 -0.00000000000E+00 -0.20063122944E+03  0.20063122944E+03  0.00000000000E+00 0. -1.
         24    2    1    2    0    0  0.11410696048E+03 -0.29457322784E+02  0.32135854783E+03  0.35144756748E+03  0.79724175329E+02 0.  0.
         23    2    1    2    0    0  0.50912872633E+03  0.27406169639E+02  0.39820682414E+03  0.65324767664E+03  0.90557684052E+02 0.  0.
        -13    1    3    3    0    0  0.58690006390E+02 -0.54315440842E+02  0.15629520078E+03  0.17556444330E+03  0.00000000000E+00 0.  1.
         14    1    3    3    0    0  0.55416954088E+02  0.24858118058E+02  0.16506334705E+03  0.17588312418E+03  0.00000000000E+00 0. -1.
        -13    1    4    4    0    0  0.42772431603E+03  0.10036543325E+02  0.36915098941E+03  0.56508519332E+03  0.00000000000E+00 0. -1.
         13    1    4    4    0    0  0.81404410293E+02  0.17369626314E+02  0.29055834731E+02  0.88162483321E+02  0.00000000000E+00 0.  1.
          1    1    1    2  501    0 -0.62323568681E+03  0.20511531443E+01  0.16142762399E+04  0.17304088266E+04  0.00000000000E+00 0. -1.
<scales pt_clust_5="13000.00000" pt_clust_6="13000.00000" pt_clust_7="13000.00000" pt_clust_8="13000.00000" pt_clust_9="13000.00000"></scales>
<clustering>
<clus scale="   79.724">  5  6 -1 -1</clus>
<clus scale="   90.558">  7  8 -1 -1</clus>
<clus scale="  142.282">  1  5  2 -1</clus>
<clus scale="  536.807">  7  9 -1 -1</clus>
<clus scale=" 1277.392">  2  5  1 -1</clus>
</clustering>
</event>
<event>
 9    2  0.4178938E-005  0.1929076E+03  0.7546771E-02  0.1164742E+00
         21   -1    0    0  501  502  0.00000000000E+00  0.00000000000E+00  0.10822923735E+03  0.10822923735E+03  0.00000000000E+00 0. -1.
          2   -1    0    0  502    0 -0.00000000000E+00 -0.00000000000E+00 -0.54041607361E+03  0.54041607361E+03  0.00000000000E+00 0. -1.
         24    2    1    2    0    0  0.99457285612E+02  0.90391109079E+02  0.18897527294E+02  0.15804320189E+03  0.80982917118E+02 0.  0.
         23    2    1    2    0    0 -0.23324104040E+02 -0.45881063892E+02 -0.22356058298E+03  0.24658474045E+03  0.90419102550E+02 0.  0.
        -13    1    3    3    0    0  0.52858639996E+02  0.77663018013E+02 -0.19968287446E+02  0.96043285516E+02  0.00000000000E+00 0.  1.
         14    1    3    3    0    0  0.46598645616E+02  0.12728091066E+02  0.38865814739E+02  0.61999916377E+02  0.00000000000E+00 0. -1.
        -13    1    4    4    0    0 -0.18816778890E+02 -0.67408641731E+02 -0.20848898912E+03  0.21992192872E+03  0.00000000000E+00 0. -1.
         13    1    4    4    0    0 -0.45073251500E+01  0.21527577839E+02 -0.15071593855E+02  0.26662811722E+02  0.00000000000E+00 0.  1.
          1    1    1    2  501    0 -0.76133181572E+02 -0.44510045187E+02 -0.22752378058E+03  0.24401736862E+03  0.00000000000E+00 0. -1.
<scales pt_clust_5="13000.00000" pt_clust_6="13000.00000" pt_clust_7="13000.00000" pt_clust_8="13000.00000" pt_clust_9="13000.00000"></scales>
<clustering>
<clus scale="   80.983">  5  6 -1 -1</clus>
<clus scale="   90.419">  7  8 -1 -1</clus>
<clus scale="   88.190">  7  9 -1 -1</clus>
<clus scale="  156.909">  2  5  1 -1</clus>
<clus scale="  192.908">  1  5  2 -1</clus>
</clustering>
</event>
<event>
 9    2  0.4178938E-005  0.2353220E+03  0.7546771E-02  0.1131694E+00
          2   -1    0    0  502    0 -0.00000000000E+00  0.00000000000E+00  0.45114678803E+03  0.45114678803E+03  0.00000000000E+00 0. -1.
         21   -1    0    0  501  502  0.00000000000E+00 -0.00000000000E+00 -0.11460492038E+03  0.11460492038E+03  0.00000000000E+00 0.  1.
         24    2    1    2    0    0 -0.15766569341E+03 -0.70989174438E+02  0.52261639793E+02  0.19671012819E+03  0.77882358551E+02 0.  0.
         23    2    1    2    0    0  0.53333315873E+02  0.57511515532E+02  0.10066799785E+03  0.15742791501E+03  0.92181807494E+02 0.  0.
        -13    1    3    3    0    0 -0.10865865026E+03 -0.38424681730E+02 -0.39705596648E+01  0.11532095987E+03  0.00000000000E+00 0.  1.
         14    1    3    3    0    0 -0.49007043154E+02 -0.32564492708E+02  0.56232199458E+02  0.81389168320E+02  0.00000000000E+00 0. -1.
        -11    1    4    4    0    0  0.32819380506E+02  0.78945633831E+02  0.93911182847E+02  0.12699935079E+03  0.00000000000E+00 0.  1.
         11    1    4    4    0    0  0.20513935367E+02 -0.21434118299E+02  0.67568150043E+01  0.30428564220E+02  0.00000000000E+00 0. -1.
          1    1    1    2  501    0  0.10433237754E+03  0.13477658906E+02  0.18361223000E+03  0.21161366520E+03  0.00000000000E+00 0. -1.
<scales pt_clust_5="13000.00000" pt_clust_6="13000.00000" pt_clust_7="13000.00000" pt_clust_8="13000.00000" pt_clust_9="13000.00000"></scales>
<clustering>
<clus scale="   77.882">  5  6 -1 -1</clus>
<clus scale="   92.182">  7  8 -1 -1</clus>
<clus scale="  105.199">  7  9 -1 -1</clus>
<clus scale="  189.641">  1  5  2 -1</clus>
<clus scale="  235.322">  2  5  1 -1</clus>
</clustering>
</event>
<event>
 9    2  0.4178938E-005  0.8591052E+03  0.7546771E-02  0.1004283E+00
          2   -1    0    0  502    0 -0.00000000000E+00  0.00000000000E+00  0.93523983253E+03  0.93523983253E+03  0.00000000000E+00 0. -1.
         21   -1    0    0  501  502  0.00000000000E+00 -0.00000000000E+00 -0.27303467692E+03  0.27303467692E+03  0.00000000000E+00 0. -1.
         24    2    1    2    0    0  0.10411899126E+03  0.21639649509E+02  0.17917038326E+03  0.22268616518E+03  0.78600656206E+02 0.  0.
         23    2    1    2    0    0  0.64485545413E+02 -0.10193023809E+03  0.69025084381E+03  0.70663930111E+03  0.91349414266E+02 0.  0.
        -13    1    3    3    0    0  0.33879340335E+02  0.23387172859E+02  0.14489575829E+02  0.43643067761E+02  0.00000000000E+00 0.  1.
         14    1    3    3    0    0  0.70239650927E+02 -0.17475233494E+01  0.16468080743E+03  0.17904309742E+03  0.00000000000E+00 0. -1.
        -13    1    4    4    0    0  0.35551551143E+02 -0.10332207158E+03  0.63421587781E+03  0.64355974309E+03  0.00000000000E+00 0.  1.
         13    1    4    4    0    0  0.28933994270E+02  0.13918334835E+01  0.56034965998E+02  0.63079558014E+02  0.00000000000E+00 0. -1.
          1    1    1    2  501    0 -0.16860453667E+03  0.80290588585E+02 -0.20721607146E+03  0.27894904315E+03  0.00000000000E+00 0. -1.
<scales pt_clust_5="13000.00000" pt_clust_6="13000.00000" pt_clust_7="13000.00000" pt_clust_8="13000.00000" pt_clust_9="13000.00000"></scales>
<clustering>
<clus scale="   78.601">  5  6 -1 -1</clus>
<clus scale="   91.349">  7  8 -1 -1</clus>
<clus scale="  132.239">  1  5  2 -1</clus>
<clus scale="  182.636">  7  9 -1 -1</clus>
<clus scale="  859.105">  2  5  1 -1</clus>
</clustering>
</event>
<event>
 9    2  0.4178938E-005  0.1576496E+03  0.7546771E-02  0.1222846E+00
         21   -1    0    0  501  502  0.00000000000E+00  0.00000000000E+00  0.85210652500E+02  0.85210652500E+02  0.00000000000E+00 0. -1.
          4   -1    0    0  502    0 -0.00000000000E+00 -0.00000000000E+00 -0.23486559979E+03  0.23486559979E+03  0.00000000000E+00 0. -1.
         24    2    1    2    0    0 -0.26194879389E+02 -0.36560274669E+01 -0.14094942774E+03  0.16218649854E+03  0.75750781418E+02 0.  0.
         23    2    1    2    0    0 -0.80381674346E+01 -0.37975771148E+02 -0.22484935027E+02  0.10225720535E+03  0.91892287018E+02 0.  0.
        -13    1    3    3    0    0 -0.20755308357E+02  0.20974715103E+02 -0.13829243103E+02  0.32587872951E+02  0.00000000000E+00 0.  1.
         14    1    3    3    0    0 -0.54395710316E+01 -0.24630742570E+02 -0.12712018463E+03  0.12959862559E+03  0.00000000000E+00 0. -1.
        -13    1    4    4    0    0  0.24674619776E+02 -0.42390070746E+02 -0.41424149685E+02  0.64200585169E+02  0.00000000000E+00 0. -1.
         13    1    4    4    0    0 -0.32712787210E+02  0.44142995972E+01  0.18939214658E+02  0.38056620184E+02  0.00000000000E+00 0.  1.
          3    1    1    2  501    0  0.34233046824E+02  0.41631798615E+02  0.13779415474E+02  0.55632548401E+02  0.00000000000E+00 0. -1.
<scales pt_clust_5="13000.00000" pt_clust_6="13000.00000" pt_clust_7="13000.00000" pt_clust_8="13000.00000" pt_clust_9="13000.00000"></scales>
<clustering>
<clus scale="   75.751">  5  6 -1 -1</clus>
<clus scale="   80.235">  2  5  1 -1</clus>
<clus scale="   91.892">  7  8 -1 -1</clus>
<clus scale="   49.216">  7  9 -1 -1</clus>
<clus scale="  157.650">  1  5  2 -1</clus>
</clustering>
</event>
<event>
 9    2  0.4178938E-005  0.5529843E+03  0.7546771E-02  0.1019985E+00
          2   -1    0    0  502    0 -0.00000000000E+00  0.00000000000E+00  0.10897607003E+04  0.10897607003E+04  0.00000000000E+00 0. -1.
         21   -1    0    0  501  502  0.00000000000E+00 -0.00000000000E+00 -0.23454229377E+03  0.23454229377E+03  0.00000000000E+00 0. -1.
         24    2    1    2    0    0 -0.25501432860E+03 -0.14900974416E+03  0.67764193438E+03  0.74350607879E+03  0.79790264592E+02 0.  0.
         23    2    1    2    0    0 -0.11793491566E+03  0.76338981393E+02  0.17162534900E+02  0.16835927171E+03  0.91181178734E+02 0.  0.
        -11    1    3    3    0    0 -0.10439971527E+02 -0.30289631958E+02  0.48375355210E+02  0.58022666272E+02  0.00000000000E+00 0.  1.
         12    1    3    3    0    0 -0.24457435707E+03 -0.11872011220E+03  0.62926657917E+03  0.68548341252E+03  0.00000000000E+00 0. -1.
        -13    1    4    4    0    0 -0.11650213911E+03  0.40334888054E+02 -0.93243943979E+01  0.12363897420E+03  0.00000000000E+00 0. -1.
         13    1    4    4    0    0 -0.14327765540E+01  0.36004093339E+02  0.26486929298E+02  0.44720297510E+02  0.00000000000E+00 0.  1.
          1    1    1    2  501    0  0.37294924426E+03  0.72670762765E+02  0.16041393721E+03  0.41243764354E+03  0.00000000000E+00 0. -1.
<scales pt_clust_5="13000.00000" pt_clust_6="13000.00000" pt_clust_7="13000.00000" pt_clust_8="13000.00000" pt_clust_9="13000.00000"></scales>
<clustering>
<clus scale="   79.790">  5  6 -1 -1</clus>
<clus scale="   91.181">  7  8 -1 -1</clus>
<clus scale="  305.946">  1  5  2 -1</clus>
<clus scale="  184.678">  7  9 -1 -1</clus>
<clus scale="  552.984">  2  5  1 -1</clus>
</clustering>
</event>
<event>
 9    2  0.4178938E-005  0.2322516E+03  0.7546771E-02  0.1165330E+00
         -3   -1    0    0    0  501 -0.00000000000E+00  0.00000000000E+00  0.13864328956E+03  0.13864328956E+03  0.00000000000E+00 0.  1.
         21   -1    0    0  501  502  0.00000000000E+00 -0.00000000000E+00 -0.18721441625E+03  0.18721441625E+03  0.00000000000E+00 0. -1.
         24    2    1    2    0    0 -0.21249479903E+02  0.30491041344E+02 -0.26417349274E+02  0.92551923830E+02  0.80540289691E+02 0.  0.
         23    2    1    2    0    0  0.45304907297E+02 -0.28998363014E+02 -0.10386617354E+03  0.14811301613E+03  0.90861674309E+02 0.  0.
        -11    1    3    3    0    0 -0.19565762281E+02  0.49746074240E+02 -0.41792880854E+02  0.67853782842E+02  0.00000000000E+00 0.  1.
         12    1    3    3    0    0 -0.16837176224E+01 -0.19255032896E+02  0.15375531580E+02  0.24698140987E+02  0.00000000000E+00 0. -1.
        -11    1    4    4    0    0 -0.24117440102E+01 -0.43466614124E+02 -0.14692932193E+02  0.45946113100E+02  0.00000000000E+00 0.  1.
         11    1    4    4    0    0  0.47716651307E+02  0.14468251110E+02 -0.89173241344E+02  0.10216690303E+03  0.00000000000E+00 0. -1.
         -4    1    1    2    0  502 -0.24055427393E+02 -0.14926783295E+01  0.81712396115E+02  0.85192765858E+02  0.00000000000E+00 0.  1.
<scales pt_clust_5="13000.00000" pt_clust_6="13000.00000" pt_clust_7="13000.00000" pt_clust_8="13000.00000" pt_clust_9="13000.00000"></scales>
<clustering>
<clus scale="   80.540">  5  6 -1 -1</clus>
<clus scale="   88.702">  1  5  2 -1</clus>
<clus scale="   90.862">  7  8 -1 -1</clus>
<clus scale="   46.691">  7  9 -1 -1</clus>
<clus scale="  232.252">  2  5  1 -1</clus>
</clustering>
</event>
<event>
 9    2  0.4178938E-005  0.1904187E+03  0.7546771E-02  0.1185641E+00
          2   -1    0    0  502    0 -0.00000000000E+00  0.00000000000E+00  0.26801423174E+03  0.26801423174E+03  0.00000000000E+00 0. -1.
         21   -1    0    0  501  502  0.00000000000E+00 -0.00000000000E+00 -0.81516432746E+02  0.81516432746E+02  0.00000000000E+00 0. -1.
         24    2    1    2    0    0 -0.24343418484E+02  0.47809121324E+02  0.39571795300E+02  0.10901760244E+03  0.86258892606E+02 0.  0.
         23    2    1    2    0    0  0.71129240634E+02 -0.11381979314E+02  0.52882044266E+02  0.12933700287E+03  0.93502039437E+02 0.  0.
        -11    1    3    3    0    0  0.22264287372E+02  0.38175084782E+02  0.42528611888E+02  0.61332849432E+02  0.00000000000E+00 0.  1.
         12    1    3    3    0    0 -0.46607705856E+02  0.96340365417E+01 -0.29568165889E+01  0.47684753009E+02  0.00000000000E+00 0. -1.
        -11    1    4    4    0    0  0.29874920597E+02 -0.26771582927E+02  0.71139582881E+02  0.81670489074E+02  0.00000000000E+00 0.  1.
         11    1    4    4    0    0  0.41254320037E+02  0.15389603613E+02 -0.18257538614E+02  0.47666513795E+02  0.00000000000E+00 0. -1.
          1    1    1    2  501    0 -0.46785822150E+02 -0.36427142010E+02  0.94043959431E+02  0.11117605918E+03  0.00000000000E+00 0. -1.
<scales pt_clust_5="13000.00000" pt_clust_6="13000.00000" pt_clust_7="13000.00000" pt_clust_8="13000.00000" pt_clust_9="13000.00000"></scales>
<clustering>
<clus scale="   86.259">  5  6 -1 -1</clus>
<clus scale="   93.502">  7  8 -1 -1</clus>
<clus scale="   59.295">  7  9 -1 -1</clus>
<clus scale="  101.582">  1  5  2 -1</clus>
<clus scale="  190.419">  2  5  1 -1</clus>
</clustering>
</event>
<event>
 9    2  0.4178938E-005  0.2961411E+03  0.7546771E-02  0.1102876E+00
          2   -1    0    0  502    0 -0.00000000000E+00  0.00000000000E+00  0.45228730989E+02  0.45228730989E+02  0.00000000000E+00 0. -1.
         21   -1    0    0  501  502  0.00000000000E+00 -0.00000000000E+00 -0.14564562852E+04  0.14564562852E+04  0.00000000000E+00 0. -1.
         24    2    1    2    0    0 -0.81922974903E+02  0.15924518551E+03 -0.78165722959E+03  0.80594200023E+03  0.80523786768E+02 0.  0.
         23    2    1    2    0    0 -0.54984384847E+02 -0.94540274834E+02 -0.25906954316E+03  0.29549162036E+03  0.90758599398E+02 0.  0.
        -13    1    3    3    0    0 -0.80833533273E+01  0.85354459297E+02 -0.45437840919E+03  0.46239643495E+03  0.00000000000E+00 0.  1.
         14    1    3    3    0    0 -0.73839621576E+02  0.73890726211E+02 -0.32727882040E+03  0.34354556527E+03  0.00000000000E+00 0. -1.
        -13    1    4    4    0    0 -0.15607854618E+02 -0.74338130396E+02 -0.23079664776E+03  0.24297500977E+03  0.00000000000E+00 0.  1.
         13    1    4    4    0    0 -0.39376530230E+02 -0.20202144438E+02 -0.28272895398E+02  0.52516610582E+02  0.00000000000E+00 0. -1.
          1    1    1    2  501    0  0.13690735975E+03 -0.64704910674E+02 -0.37050078143E+03  0.40025139558E+03  0.00000000000E+00 0. -1.
<scales pt_clust_5="13000.00000" pt_clust_6="13000.00000" pt_clust_7="13000.00000" pt_clust_8="13000.00000" pt_clust_9="13000.00000"></scales>
<clustering>
<clus scale="   80.524">  5  6 -1 -1</clus>
<clus scale="   90.759">  7  8 -1 -1</clus>
<clus scale="  151.428">  7  9 -1 -1</clus>
<clus scale="  196.353">  1  5  2 -1</clus>
<clus scale="  296.141">  2  5  1 -1</clus>
</clustering>
</event>
<event>
 9    2  0.4178938E-005  0.4354887E+03  0.7546771E-02  0.1089504E+00
         -1   -1    0    0    0  501 -0.00000000000E+00  0.00000000000E+00  0.49971185810E+03  0.49971185810E+03  0.00000000000E+00 0.  1.
         21   -1    0    0  501  502  0.00000000000E+00 -0.00000000000E+00 -0.13725959482E+03  0.13725959482E+03  0.00000000000E+00 0.  1.
         24    2    1    2    0    0  0.46098388021E+01 -0.47747268414E+02  0.73624587933E+02  0.11440866636E+03  0.73264662251E+02 0.  0.
         23    2    1    2    0    0 -0.17434267212E+03 -0.72063166436E+02  0.21185445154E+03  0.30100319596E+03  0.10065857173E+03 0.  0.
        -13    1    3    3    0    0 -0.60602811202E+01 -0.24339722583E+02 -0.99350849159E+01  0.26978788241E+02  0.00000000000E+00 0.  1.
         14    1    3    3    0    0  0.10670119922E+02 -0.23407545832E+02  0.83559672849E+02  0.87429878117E+02  0.00000000000E+00 0. -1.
        -13    1    4    4    0    0 -0.80435211233E+02 -0.20496697565E+02  0.16370524396E+03  0.18354657370E+03  0.00000000000E+00 0.  1.
         13    1    4    4    0    0 -0.93907460885E+02 -0.51566468871E+02  0.48149207574E+02  0.11745662226E+03  0.00000000000E+00 0. -1.
         -2    1    1    2    0  502  0.16973283332E+03  0.11981043485E+03  0.76973223806E+02  0.22155959060E+03  0.00000000000E+00 0.  1.
<scales pt_clust_5="13000.00000" pt_clust_6="13000.00000" pt_clust_7="13000.00000" pt_clust_8="13000.00000" pt_clust_9="13000.00000"></scales>
<clustering>
<clus scale="   73.265">  5  6 -1 -1</clus>
<clus scale="   87.571">  1  5  2 -1</clus>
<clus scale="  100.659">  7  8 -1 -1</clus>
<clus scale="  199.603">  7  9 -1 -1</clus>
<clus scale="  435.489">  2  5  1 -1</clus>
</clustering>
</event>
<event>
 9    2  0.4178938E-005  0.3584868E+03  0.7546771E-02  0.1102480E+00
          2   -1    0    0  502    0 -0.00000000000E+00  0.00000000000E+00  0.84576331246E+03  0.84576331246E+03  0.00000000000E+00 0. -1.
         21   -1    0    0  501  502  0.00000000000E+00 -0.00000000000E+00 -0.83248498006E+02  0.83248498006E+02  0.00000000000E+00 0.  1.
         24    2    1    2    0    0 -0.78869652390E+02 -0.63912770353E+00  0.41473960564E+03  0.42955175499E+03  0.79277608317E+02 0.  0.
         23    2    1    2    0    0  0.92821973835E+02  0.13839721671E+03  0.97813203043E+02  0.21371023012E+03  0.91295845184E+02 0.  0.
        -11    1    3    3    0    0 -0.34808223633E+02 -0.37914179487E+02  0.14968983518E+03  0.15829132697E+03  0.00000000000E+00 0.  1.
         12    1    3    3    0    0 -0.44061428756E+02  0.37275051784E+02  0.26504977046E+03  0.27126042802E+03  0.00000000000E+00 0. -1.
        -13    1    4    4    0    0  0.41262858707E+02  0.10959221261E+03  0.10089042868E+03  0.15457022731E+03  0.00000000000E+00 0.  1.
         13    1    4    4    0    0  0.51559115128E+02  0.28805004104E+02 -0.30772256356E+01  0.59140002805E+02  0.00000000000E+00 0. -1.
          1    1    1    2  501    0 -0.13952321445E+02 -0.13775808901E+03  0.24996200578E+03  0.28574982536E+03  0.00000000000E+00 0. -1.
<scales pt_clust_5="13000.00000" pt_clust_6="13000.00000" pt_clust_7="13000.00000" pt_clust_8="13000.00000" pt_clust_9="13000.00000"></scales>
<clustering>
<clus scale="   79.278">  5  6 -1 -1</clus>
<clus scale="   91.296">  7  8 -1 -1</clus>
<clus scale="  111.829">  1  5  2 -1</clus>
<clus scale="  152.191">  7  9 -1 -1</clus>
<clus scale="  358.487">  2  5  1 -1</clus>
</clustering>
</event>
<event>
 9    2  0.4178938E-005  0.5315598E+03  0.7546771E-02  0.1025211E+00
          4   -1    0    0  502    0 -0.00000000000E+00  0.00000000000E+00  0.63296746178E+03  0.63296746178E+03  0.00000000000E+00 0. -1.
         21   -1    0    0  501  502  0.00000000000E+00 -0.00000000000E+00 -0.27536561813E+03  0.27536561813E+03  0.00000000000E+00 0. -1.
         24    2    1    2    0    0  0.23083263203E+03  0.16446296841E+03  0.19274556378E+03  0.35179606522E+03  0.79232866658E+02 0.  0.
         23    2    1    2    0    0 -0.25547890589E+03  0.81771253343E+02  0.77994138286E+02  0.29427042815E+03  0.92498594836E+02 0.  0.
        -11    1    3    3    0    0  0.22895967727E+02  0.35918118983E+02  0.36801219852E+01  0.42753712205E+02  0.00000000000E+00 0.  1.
         12    1    3    3    0    0  0.20793666430E+03  0.12854484942E+03  0.18906544180E+03  0.30904235301E+03  0.00000000000E+00 0. -1.
        -13    1    4    4    0    0 -0.27802829400E+02  0.36531593906E+02  0.36080220157E+02  0.58389527850E+02  0.00000000000E+00 0.  1.
         13    1    4    4    0    0 -0.22767607649E+03  0.45239659437E+02  0.41913918128E+02  0.23588090030E+03  0.00000000000E+00 0. -1.
          3    1    1    2  501    0  0.24646273862E+02 -0.24623422175E+03  0.86862141580E+02  0.26226658654E+03  0.00000000000E+00 0. -1.
<scales pt_clust_5="13000.00000" pt_clust_6="13000.00000" pt_clust_7="13000.00000" pt_clust_8="13000.00000" pt_clust_9="13000.00000"></scales>
<clustering>
<clus scale="   79.233">  5  6 -1 -1</clus>
<clus scale="   92.499">  7  8 -1 -1</clus>
<clus scale="  247.465">  7  9 -1 -1</clus>
<clus scale="  294.295">  1  5  2 -1</clus>
<clus scale="  531.560">  2  5  1 -1</clus>
</clustering>
</event>
<event>
 9    2  0.4178938E-005  0.3518151E+03  0.7546771E-02  0.1086422E+00
          2   -1    0    0  502    0 -0.00000000000E+00  0.00000000000E+00  0.19884482096E+04  0.19884482096E+04  0.00000000000E+00 0. -1.
         21   -1    0    0  501  502  0.00000000000E+00 -0.00000000000E+00 -0.37801492886E+02  0.37801492886E+02  0.00000000000E+00 0.  1.
         24    2    1    2    0    0 -0.12434039005E+03  0.10310699704E+03  0.91184125874E+03  0.92948599461E+03  0.79988421677E+02 0.  0.
         23    2    1    2    0    0  0.11094290916E+02  0.83223883494E+02  0.50358933862E+03  0.51883622935E+03  0.92409484623E+02 0.  0.
        -11    1    3    3    0    0 -0.71211159699E+02  0.10524899186E+03  0.64193741752E+03  0.65439439756E+03  0.00000000000E+00 0.  1.
         12    1    3    3    0    0 -0.53129230347E+02 -0.21419948273E+01  0.26990384123E+03  0.27509159705E+03  0.00000000000E+00 0. -1.
        -11    1    4    4    0    0  0.43266737819E+02  0.72621303676E+02  0.42389062497E+03  0.43223734948E+03  0.00000000000E+00 0.  1.
         11    1    4    4    0    0 -0.32172446902E+02  0.10602579818E+02  0.79698713646E+02  0.86598879874E+02  0.00000000000E+00 0. -1.
          1    1    1    2  501    0  0.11324609913E+03 -0.18633088053E+03  0.53521611935E+03  0.57792747851E+03  0.00000000000E+00 0. -1.
<scales pt_clust_5="13000.00000" pt_clust_6="13000.00000" pt_clust_7="13000.00000" pt_clust_8="13000.00000" pt_clust_9="13000.00000"></scales>
<clustering>
<clus scale="   79.988">  5  6 -1 -1</clus>
<clus scale="   92.409">  7  8 -1 -1</clus>
<clus scale="  180.249">  1  5  2 -1</clus>
<clus scale="  141.157">  7  9 -1 -1</clus>
<clus scale="  351.815">  2  5  1 -1</clus>
</clustering>
</event>
<event>
 9    2  0.4178938E-005  0.1665661E+03  0.7546771E-02  0.1198987E+00
          2   -1    0    0  502    0 -0.00000000000E+00  0.00000000000E+00  0.25506000918E+03  0.25506000918E+03  0.00000000000E+00 0. -1.
         21   -1    0    0  501  502  0.00000000000E+00 -0.00000000000E+00 -0.91504374930E+02  0.91504374930E+02  0.00000000000E+00 0.  1.
         24    2    1    2    0    0  0.68500229854E+01 -0.63927248776E+02  0.13734731844E+03  0.17794901351E+03  0.93101823696E+02 0.  0.
         23    2    1    2    0    0 -0.80696638421E+01  0.18149112609E+02  0.54284453388E+02  0.11489949980E+03  0.99300470353E+02 0.  0.
        -13    1    3    3    0    0  0.43533744390E+02 -0.26761488186E+02  0.10431155434E+03  0.11615620741E+03  0.00000000000E+00 0.  1.
         14    1    3    3    0    0 -0.36683721405E+02 -0.37165760591E+02  0.33035764101E+02  0.61792806103E+02  0.00000000000E+00 0. -1.
        -11    1    4    4    0    0  0.10138665489E+02 -0.36932453878E+02  0.47050688770E+01  0.38586738143E+02  0.00000000000E+00 0.  1.
         11    1    4    4    0    0 -0.18208329331E+02  0.55081566487E+02  0.49579384511E+02  0.76312761660E+02  0.00000000000E+00 0. -1.
          1    1    1    2  501    0  0.12196408567E+01  0.45778136167E+02 -0.28076137574E+02  0.53715870800E+02  0.00000000000E+00 0. -1.
<scales pt_clust_5="13000.00000" pt_clust_6="13000.00000" pt_clust_7="13000.00000" pt_clust_8="13000.00000" pt_clust_9="13000.00000"></scales>
<clustering>
<clus scale="   93.102">  5  6 -1 -1</clus>
<clus scale="   99.300">  7  8 -1 -1</clus>
<clus scale="   45.794">  7  9 -1 -1</clus>
<clus scale="  113.144">  1  5  2 -1</clus>
<clus scale="  166.566">  2  5  1 -1</clus>
</clustering>
</event>
<event>
 9    2  0.4178938E-005  0.1421222E+03  0.7546771E-02  0.1221632E+00
          2   -1    0    0  502    0 -0.00000000000E+00  0.00000000000E+00  0.51414409330E+03  0.51414409330E+03  0.00000000000E+00 0. -1.
         21   -1    0    0  501  502  0.00000000000E+00 -0.00000000000E+00 -0.31493741018E+02  0.31493741018E+02  0.00000000000E+00 0. -1.
         24    2    1    2    0    0 -0.78319149987E+02 -0.16892965635E+01  0.20790631457E+03  0.23631113752E+03  0.80505745763E+02 0.  0.
         23    2    1    2    0    0  0.54675847069E+02  0.15660878434E+02  0.16707938257E+03  0.19821464147E+03  0.90215368124E+02 0.  0.
        -11    1    3    3    0    0 -0.14372037287E+02 -0.22620597393E+02  0.12361098004E+02  0.29513448223E+02  0.00000000000E+00 0.  1.
         12    1    3    3    0    0 -0.63947112701E+02  0.20931300829E+02  0.19554521657E+03  0.20679768930E+03  0.00000000000E+00 0. -1.
        -13    1    4    4    0    0  0.19043450786E+02  0.31254574837E+02  0.15225192767E+03  0.15658911503E+03  0.00000000000E+00 0.  1.
         13    1    4    4    0    0  0.35632396283E+02 -0.15593696403E+02  0.14827454899E+02  0.41625526437E+02  0.00000000000E+00 0. -1.
          1    1    1    2  501    0  0.23643302919E+02 -0.13971581870E+02  0.10766465515E+03  0.11111205533E+03  0.00000000000E+00 0. -1.
<scales pt_clust_5="13000.00000" pt_clust_6="13000.00000" pt_clust_7="13000.00000" pt_clust_8="13000.00000" pt_clust_9="13000.00000"></scales>
<clustering>
<clus scale="   80.506">  5  6 -1 -1</clus>
<clus scale="   90.215">  7  8 -1 -1</clus>
<clus scale="   27.463">  7  9 -1 -1</clus>
<clus scale="  112.330">  1  5  2 -1</clus>
<clus scale="  142.122">  2  5  1 -1</clus>
</clustering>
</event>
<event>
 9    2  0.4178938E-005  0.2285610E+03  0.7546771E-02  0.1162695E+00
          2   -1    0    0  502    0 -0.00000000000E+00  0.00000000000E+00  0.58449694273E+03  0.58449694273E+03  0.00000000000E+00 0. -1.
         21   -1    0    0  501  502  0.00000000000E+00 -0.00000000000E+00 -0.65515329196E+02  0.65515329196E+02  0.00000000000E+00 0. -1.
         24    2    1    2    0    0  0.46546347651E+02  0.37271598786E+02  0.35549636337E+03  0.36900061176E+03  0.78918011637E+02 0.  0.
         23    2    1    2    0    0  0.20036956559E+02  0.42317230279E+02  0.14430576732E+03  0.17548644671E+03  0.88199268097E+02 0.  0.
        -13    1    3    3    0    0  0.37054202021E+02 -0.16729303076E+02  0.20082005672E+03  0.20489406690E+03  0.00000000000E+00 0.  1.
         14    1    3    3    0    0  0.94921456295E+01  0.54000901862E+02  0.15467630664E+03  0.16410654486E+03  0.00000000000E+00 0. -1.
        -13    1    4    4    0    0 -0.34345144910E+02  0.13400124889E+02  0.68710263672E+02  0.77975974888E+02  0.00000000000E+00 0.  1.
         13    1    4    4    0    0  0.54382101469E+02  0.28917105390E+02  0.75595503644E+02  0.97510471825E+02  0.00000000000E+00 0. -1.
          1    1    1    2  501    0 -0.66583304210E+02 -0.79588829065E+02  0.19179482856E+02  0.10552521345E+03  0.00000000000E+00 0. -1.
<scales pt_clust_5="13000.00000" pt_clust_6="13000.00000" pt_clust_7="13000.00000" pt_clust_8="13000.00000" pt_clust_9="13000.00000"></scales>
<clustering>
<clus scale="   78.918">  5  6 -1 -1</clus>
<clus scale="   88.199">  7  8 -1 -1</clus>
<clus scale="   98.913">  1  5  2 -1</clus>
<clus scale="   87.431">  7  9 -1 -1</clus>
<clus scale="  228.561">  2  5  1 -1</clus>
</clustering>
</event>
<event>
 9    2  0.4178938E-005  0.3936652E+03  0.7546771E-02  0.1065617E+00
         21   -1    0    0  501  502  0.00000000000E+00  0.00000000000E+00  0.14044779383E+03  0.14044779383E+03  0.00000000000E+00 0. -1.
          2   -1    0    0  502    0 -0.00000000000E+00 -0.00000000000E+00 -0.89093292547E+03  0.89093292547E+03  0.00000000000E+00 0. -1.
         24    2    1    2    0    0  0.79111903508E+02  0.19642016687E+03 -0.53882926065E+03  0.58442376899E+03  0.79841057109E+02 0.  0.
         23    2    1    2    0    0  0.71145446517E+02 -0.11161970923E+02  0.14237014390E+02  0.11843683515E+03  0.92942601567E+02 0.  0.
        -13    1    3    3    0    0  0.11884404945E+02  0.64250778217E+02 -0.86473861292E+02  0.10838417905E+03  0.00000000000E+00 0.  1.
         14    1    3    3    0    0  0.67227498563E+02  0.13216938865E+03 -0.45235539936E+03  0.47603958994E+03  0.00000000000E+00 0. -1.
        -13    1    4    4    0    0  0.49733570173E+02 -0.46512164490E+02  0.29727115030E+02  0.74300140079E+02  0.00000000000E+00 0. -1.
         13    1    4    4    0    0  0.21411876344E+02  0.35350193567E+02 -0.15490100640E+02  0.44136695069E+02  0.00000000000E+00 0.  1.
          1    1    1    2  501    0 -0.15025735003E+03 -0.18525819594E+03 -0.22589288537E+03  0.32852011515E+03  0.00000000000E+00 0. -1.
<scales pt_clust_5="13000.00000" pt_clust_6="13000.00000" pt_clust_7="13000.00000" pt_clust_8="13000.00000" pt_clust_9="13000.00000"></scales>
<clustering>
<clus scale="   79.841">  5  6 -1 -1</clus>
<clus scale="   92.943">  7  8 -1 -1</clus>
<clus scale="  226.305">  2  5  1 -1</clus>
<clus scale="   85.999">  7  9 -1 -1</clus>
<clus scale="  393.665">  1  5  2 -1</clus>
</clustering>
</event>
<event>
 9    2  0.4178938E-005  0.1158121E+03  0.7546771E-02  0.1263987E+00
         21   -1    0    0  501  502  0.00000000000E+00  0.00000000000E+00  0.74177830235E+02  0.74177830235E+02  0.00000000000E+00 0. -1.
          2   -1    0    0  502    0 -0.00000000000E+00 -0.00000000000E+00 -0.15866485256E+03  0.15866485256E+03  0.00000000000E+00 0. -1.
         24    2    1    2    0    0  0.91946017759E+01  0.86488975299E+01 -0.76559452669E+02  0.11675959728E+03  0.87247404736E+02 0.  0.
         23    2    1    2    0    0 -0.23916655869E+02  0.92284707353E+01  0.86044490085E+00  0.91312773192E+02  0.87636242973E+02 0.  0.
        -13    1    3    3    0    0  0.24180698080E+02 -0.51288247328E+01  0.10861538555E+02  0.26999704120E+02  0.00000000000E+00 0.  1.
         14    1    3    3    0    0 -0.14986096304E+02  0.13777722263E+02 -0.87420991224E+02  0.89759893158E+02  0.00000000000E+00 0. -1.
        -13    1    4    4    0    0 -0.16752325423E+02  0.29324688475E+02  0.36529984748E+02  0.49749548208E+02  0.00000000000E+00 0. -1.
         13    1    4    4    0    0 -0.71643304467E+01 -0.20096217739E+02 -0.35669539847E+02  0.41563224984E+02  0.00000000000E+00 0.  1.
          1    1    1    2  501    0  0.14722054093E+02 -0.17877368265E+02 -0.87880145560E+01  0.24770312325E+02  0.00000000000E+00 0. -1.
<scales pt_clust_5="13000.00000" pt_clust_6="13000.00000" pt_clust_7="13000.00000" pt_clust_8="13000.00000" pt_clust_9="13000.00000"></scales>
<clustering>
<clus scale="   87.247">  5  6 -1 -1</clus>
<clus scale="   87.636">  7  8 -1 -1</clus>
<clus scale="   23.159">  7  9 -1 -1</clus>
<clus scale="   88.156">  2  5  1 -1</clus>
<clus scale="  115.812">  1  5  2 -1</clus>
</clustering>
</event>
<event>
 9    2  0.4178938E-005  0.2718954E+03  0.7546771E-02  0.1138976E+00
          2   -1    0    0  502    0 -0.00000000000E+00  0.00000000000E+00  0.67758119210E+03  0.67758119210E+03  0.00000000000E+00 0. -1.
         21   -1    0    0  501  502  0.00000000000E+00 -0.00000000000E+00 -0.10591520326E+03  0.10591520326E+03  0.00000000000E+00 0. -1.
         24    2    1    2    0    0 -0.62954593534E+02  0.12070893487E+02  0.48839470721E+03  0.49913532880E+03  0.80608306650E+02 0.  0.
         23    2    1    2    0    0 -0.53993389248E+02  0.36508031280E+02 -0.28426134504E+02  0.11550297413E+03  0.91020709069E+02 0.  0.
        -13    1    3    3    0    0 -0.45684874916E+02 -0.19978176828E+02  0.13577447830E+03  0.14464074220E+03  0.00000000000E+00 0.  1.
         14    1    3    3    0    0 -0.17269718618E+02  0.32049070315E+02  0.35262022891E+03  0.35449458660E+03  0.00000000000E+00 0. -1.
        -13    1    4    4    0    0 -0.33954977910E+02 -0.55493616085E+01 -0.52726591731E+02  0.62958950235E+02  0.00000000000E+00 0. -1.
         13    1    4    4    0    0 -0.20038411338E+02  0.42057392888E+02  0.24300457227E+02  0.52544023894E+02  0.00000000000E+00 0.  1.
          1    1    1    2  501    0  0.11694798278E+03 -0.48578924767E+02  0.11169741613E+03  0.16885809243E+03  0.00000000000E+00 0. -1.
<scales pt_clust_5="13000.00000" pt_clust_6="13000.00000" pt_clust_7="13000.00000" pt_clust_8="13000.00000" pt_clust_9="13000.00000"></scales>
<clustering>
<clus scale="   80.608">  5  6 -1 -1</clus>
<clus scale="   91.021">  7  8 -1 -1</clus>
<clus scale="  102.989">  1  5  2 -1</clus>
<clus scale="   79.358">  7  9 -1 -1</clus>
<clus scale="  271.895">  2  5  1 -1</clus>
</clustering>
</event>
<event>
 9    2  0.4178938E-005  0.3094298E+03  0.7546771E-02  0.1118309E+00
         21   -1    0    0  501  502  0.00000000000E+00  0.00000000000E+00  0.84055490856E+02  0.84055490856E+02  0.00000000000E+00 0. -1.
          2   -1    0    0  502    0 -0.00000000000E+00 -0.00000000000E+00 -0.67106349839E+03  0.67106349839E+03  0.00000000000E+00 0. -1.
         24    2    1    2    0    0 -0.52892432240E+02  0.71798148278E+02 -0.33960602320E+03  0.35894408889E+03  0.74538744761E+02 0.  0.
         23    2    1    2    0    0  0.15547540905E+03 -0.34454532140E+02 -0.21178053580E+03  0.28134154112E+03  0.94563998503E+02 0.  0.
        -13    1    3    3    0    0 -0.80236301522E+01  0.24574181238E+02 -0.19776073884E+02  0.32547843593E+02  0.00000000000E+00 0.  1.
         14    1    3    3    0    0 -0.44868802088E+02  0.47223967041E+02 -0.31982994931E+03  0.32639624529E+03  0.00000000000E+00 0. -1.
        -11    1    4    4    0    0  0.57775052662E+02  0.16910622302E+02 -0.13221249272E+03  0.14527239617E+03  0.00000000000E+00 0.  1.
         11    1    4    4    0    0  0.97700356390E+02 -0.51365154442E+02 -0.79568043081E+02  0.13606914496E+03  0.00000000000E+00 0. -1.
          1    1    1    2  501    0 -0.10258297681E+03 -0.37343616139E+02 -0.35621448538E+02  0.11483335924E+03  0.00000000000E+00 0. -1.
<scales pt_clust_5="13000.00000" pt_clust_6="13000.00000" pt_clust_7="13000.00000" pt_clust_8="13000.00000" pt_clust_9="13000.00000"></scales>
<clustering>
<clus scale="   74.539">  5  6 -1 -1</clus>
<clus scale="   94.564">  7  8 -1 -1</clus>
<clus scale="  109.169">  7  9 -1 -1</clus>
<clus scale="  116.227">  2  5  1 -1</clus>
<clus scale="  309.430">  1  5  2 -1</clus>
</clustering>
</event>
<event>
 9    2  0.4178938E-005  0.3669280E+03  0.7546771E-02  0.1108642E+00
          2   -1    0    0  502    0 -0.00000000000E+00  0.00000000000E+00  0.15772337200E+04  0.15772337200E+04  0.00000000000E+00 0. -1.
         21   -1    0    0  501  502  0.00000000000E+00 -0.00000000000E+00 -0.37292587074E+02  0.37292587074E+02  0.00000000000E+00 0.  1.
         24    2    1    2    0    0  0.16865307817E+02  0.31830912669E+02  0.58101996999E+03  0.58780046186E+03  0.81409654335E+02 0.  0.
         23    2    1    2    0    0  0.15668729413E+03  0.17472547101E+01  0.38145154987E+03  0.42280602191E+03  0.93304266931E+02 0.  0.
        -13    1    3    3    0    0 -0.19794625608E+02 -0.12758071550E+02  0.77955105429E+02  0.81434599864E+02  0.00000000000E+00 0.  1.
         14    1    3    3    0    0  0.36659933424E+02  0.44588984218E+02  0.50306486456E+03  0.50636586199E+03  0.00000000000E+00 0. -1.
        -11    1    4    4    0    0  0.13099198948E+02 -0.22232687682E+02  0.12752387947E+03  0.13010849799E+03  0.00000000000E+00 0. -1.
         11    1    4    4    0    0  0.14358809518E+03  0.23979942392E+02  0.25392767040E+03  0.29269752392E+03  0.00000000000E+00 0.  1.
          1    1    1    2  501    0 -0.17355260195E+03 -0.33578167379E+02  0.57746961305E+03  0.60391982329E+03  0.00000000000E+00 0. -1.
<scales pt_clust_5="13000.00000" pt_clust_6="13000.00000" pt_clust_7="13000.00000" pt_clust_8="13000.00000" pt_clust_9="13000.00000"></scales>
<clustering>
<clus scale="   81.410">  5  6 -1 -1</clus>
<clus scale="   89.023">  1  5  2 -1</clus>
<clus scale="   93.304">  7  8 -1 -1</clus>
<clus scale="  164.172">  7  9 -1 -1</clus>
<clus scale="  366.928">  2  5  1 -1</clus>
</clustering>
</event>
<event>
 9    2  0.4178938E-005  0.4943772E+03  0.7546771E-02  0.1063805E+00
          2   -1    0    0  502    0 -0.00000000000E+00  0.00000000000E+00  0.48874261560E+03  0.48874261560E+03  0.00000000000E+00 0. -1.
         21   -1    0    0  501  502  0.00000000000E+00 -0.00000000000E+00 -0.23930190261E+03  0.23930190261E+03  0.00000000000E+00 0. -1.
         24    2    1    2    0    0 -0.46477723073E+02  0.68717066408E+02 -0.70371032768E+02  0.13924205709E+03  0.86914062445E+02 0.  0.
         23    2    1    2    0    0  0.13739625663E+02  0.73144997954E+02 -0.88955559618E+02  0.15488157171E+03  0.10264619637E+03 0.  0.
        -13    1    3    3    0    0 -0.40311542009E+02  0.56587024679E+01 -0.63614341935E+02  0.75523677298E+02  0.00000000000E+00 0.  1.
         14    1    3    3    0    0 -0.61661810641E+01  0.63058363940E+02 -0.67566908329E+01  0.63718379787E+02  0.00000000000E+00 0. -1.
        -13    1    4    4    0    0  0.36310455169E+02  0.30679775171E+02 -0.95179059425E+02  0.10638961938E+03  0.00000000000E+00 0.  1.
         13    1    4    4    0    0 -0.22570829507E+02  0.42465222783E+02  0.62234998072E+01  0.48491952327E+02  0.00000000000E+00 0. -1.
          1    1    1    2  501    0  0.32738097411E+02 -0.14186206436E+03  0.40876730538E+03  0.43392088942E+03  0.00000000000E+00 0. -1.
<scales pt_clust_5="13000.00000" pt_clust_6="13000.00000" pt_clust_7="13000.00000" pt_clust_8="13000.00000" pt_clust_9="13000.00000"></scales>
<clustering>
<clus scale="   86.914">  5  6 -1 -1</clus>
<clus scale="  102.646">  7  8 -1 -1</clus>
<clus scale="  120.151">  1  5  2 -1</clus>
<clus scale="   78.816">  7  9 -1 -1</clus>
<clus scale="  494.377">  2  5  1 -1</clus>
</clustering>
</event>
<event>
 9    2  0.4178938E-005  0.2125805E+03  0.7546771E-02  0.1171863E+00
          2   -1    0    0  502    0 -0.00000000000E+00  0.00000000000E+00  0.28178912870E+03  0.28178912870E+03  0.00000000000E+00 0. -1.
         21   -1    0    0  501  502  0.00000000000E+00 -0.00000000000E+00 -0.12327874261E+03  0.12327874261E+03  0.00000000000E+00 0.  1.
         24    2    1    2    0    0  0.19133921346E+02 -0.53221588975E+02 -0.46351493865E+02  0.10984105690E+03  0.81963115601E+02 0.  0.
         23    2    1    2    0    0  0.50805408788E+02  0.64865406739E+02  0.75947907419E+02  0.14810135533E+03  0.96836027678E+02 0.  0.
        -11    1    3    3    0    0  0.44575017797E+02 -0.58043776545E+02 -0.38979091242E+02  0.82917921834E+02  0.00000000000E+00 0.  1.
         12    1    3    3    0    0 -0.25441096450E+02  0.48221875696E+01 -0.73724026229E+01  0.26923135070E+02  0.00000000000E+00 0. -1.
        -11    1    4    4    0    0 -0.11885021062E+02  0.62065399886E+02  0.48250848447E+02  0.79507936488E+02  0.00000000000E+00 0.  1.
         11    1    4    4    0    0  0.62690429850E+02  0.28000068526E+01  0.27697058972E+02  0.68593418845E+02  0.00000000000E+00 0. -1.
          1    1    1    2  501    0 -0.69939330135E+02 -0.11643817764E+02  0.12891397254E+03  0.14712545907E+03  0.00000000000E+00 0. -1.
<scales pt_clust_5="13000.00000" pt_clust_6="13000.00000" pt_clust_7="13000.00000" pt_clust_8="13000.00000" pt_clust_9="13000.00000"></scales>
<clustering>
<clus scale="   81.963">  5  6 -1 -1</clus>
<clus scale="   96.836">  7  8 -1 -1</clus>
<clus scale="   70.902">  7  9 -1 -1</clus>
<clus scale="   99.582">  1  5  2 -1</clus>
<clus scale="  212.581">  2  5  1 -1</clus>
</clustering>
</event>
<event>
 9    2  0.4178938E-005  0.9205305E+03  0.7546771E-02  0.1001982E+00
         -1   -1    0    0    0  501 -0.00000000000E+00  0.00000000000E+00  0.92574903059E+03  0.92574903059E+03  0.00000000000E+00 0.  1.
         21   -1    0    0  501  502  0.00000000000E+00 -0.00000000000E+00 -0.38536233436E+03  0.38536233436E+03  0.00000000000E+00 0.  1.
         24    2    1    2    0    0 -0.79667992473E+02  0.20496361872E+02  0.35337167282E+03  0.37177595614E+03  0.81109386244E+02 0.  0.
         23    2    1    2    0    0 -0.57738128209E+02 -0.28484246576E+03  0.44897904828E+03  0.54261831191E+03  0.91561590595E+02 0.  0.
        -13    1    3    3    0    0 -0.34285643400E+02 -0.26612853452E+02  0.83694921880E+02  0.94279315127E+02  0.00000000000E+00 0.  1.
         14    1    3    3    0    0 -0.45382349073E+02  0.47109215324E+02  0.26967675094E+03  0.27749664101E+03  0.00000000000E+00 0. -1.
        -13    1    4    4    0    0 -0.81023267549E+02 -0.23513277401E+03  0.38470142205E+03  0.45809101217E+03  0.00000000000E+00 0.  1.
         13    1    4    4    0    0  0.23285139340E+02 -0.49709691750E+02  0.64277626228E+02  0.84527299741E+02  0.00000000000E+00 0. -1.
         -2    1    1    2    0  502  0.13740612068E+03  0.26434610389E+03 -0.26196402488E+03  0.39671709690E+03  0.00000000000E+00 0.  1.
<scales pt_clust_5="13000.00000" pt_clust_6="13000.00000" pt_clust_7="13000.00000" pt_clust_8="13000.00000" pt_clust_9="13000.00000"></scales>
<clustering>
<clus scale="   81.109">  5  6 -1 -1</clus>
<clus scale="   91.562">  7  8 -1 -1</clus>
<clus scale="  115.524">  1  5  2 -1</clus>
<clus scale="  295.860">  7  9 -1 -1</clus>
<clus scale="  920.530">  2  5  1 -1</clus>
</clustering>
</event>
<event>
 9    2  0.4178938E-005  0.4202320E+03  0.7546771E-02  0.1076237E+00
         21   -1    0    0  501  502  0.00000000000E+00  0.00000000000E+00  0.39637466675E+03  0.39637466675E+03  0.00000000000E+00 0.  1.
          2   -1    0    0  502    0 -0.00000000000E+00 -0.00000000000E+00 -0.20246990064E+03  0.20246990064E+03  0.00000000000E+00 0. -1.
         24    2    1    2    0    0  0.81318490391E+02  0.82590109862E+02  0.78889284060E+01  0.13928301368E+03  0.76835535932E+02 0.  0.
         23    2    1    2    0    0 -0.13053061267E+03 -0.21931296526E+03  0.15015217575E+03  0.30989133484E+03  0.91381321646E+02 0.  0.
        -11    1    3    3    0    0  0.30357304197E+02  0.34797072639E+02 -0.34429511691E+02  0.57600290430E+02  0.00000000000E+00 0.  1.
         12    1    3    3    0    0  0.50961186195E+02  0.47793037223E+02  0.42318440097E+02  0.81682723251E+02  0.00000000000E+00 0. -1.
        -11    1    4    4    0    0 -0.10367773150E+03 -0.14363302988E+03  0.55218765365E+02  0.18554953874E+03  0.00000000000E+00 0.  1.
         11    1    4    4    0    0 -0.26852881178E+02 -0.75679935389E+02  0.94933410388E+02  0.12434179609E+03  0.00000000000E+00 0. -1.
          1    1    1    2  501    0  0.49212122284E+02  0.13672285540E+03  0.35863661949E+02  0.14967021887E+03  0.00000000000E+00 0. -1.
<scales pt_clust_5="13000.00000" pt_clust_6="13000.00000" pt_clust_7="13000.00000" pt_clust_8="13000.00000" pt_clust_9="13000.00000"></scales>
<clustering>
<clus scale="   76.836">  5  6 -1 -1</clus>
<clus scale="   91.381">  7  8 -1 -1</clus>
<clus scale="  139.059">  2  5  1 -1</clus>
<clus scale="  190.174">  7  9 -1 -1</clus>
<clus scale="  420.232">  1  5  2 -1</clus>
</clustering>
</event>
<event>
 9    2  0.4178938E-005  0.2051194E+03  0.7546771E-02  0.1179367E+00
          2   -1    0    0  502    0 -0.00000000000E+00  0.00000000000E+00  0.38732743704E+03  0.38732743704E+03  0.00000000000E+00 0. -1.
         21   -1    0    0  501  502  0.00000000000E+00 -0.00000000000E+00 -0.61994155674E+02  0.61994155674E+02  0.00000000000E+00 0.  1.
         24    2    1    2    0    0  0.10564950621E+02  0.47032742313E+02  0.50200256869E+02  0.10614214762E+03  0.80139832045E+02 0.  0.
         23    2    1    2    0    0  0.14164905525E+01 -0.59273320418E+01  0.32040363374E+02  0.96344983202E+02  0.90656666564E+02 0.  0.
        -13    1    3    3    0    0  0.16244797277E+02  0.62593310329E+02  0.13761559693E+02  0.66115024478E+02  0.00000000000E+00 0.  1.
         14    1    3    3    0    0 -0.56798466556E+01 -0.15560568016E+02  0.36438697175E+02  0.40027123140E+02  0.00000000000E+00 0. -1.
        -11    1    4    4    0    0 -0.39012096370E+01 -0.25799415171E+02 -0.24737642210E+02  0.35955252773E+02  0.00000000000E+00 0.  1.
         11    1    4    4    0    0  0.53177001894E+01  0.19872083129E+02  0.56778005584E+02  0.60389730429E+02  0.00000000000E+00 0. -1.
          1    1    1    2  501    0 -0.11981441173E+02 -0.41105410272E+02  0.24309266112E+03  0.24683446189E+03  0.00000000000E+00 0. -1.
<scales pt_clust_5="13000.00000" pt_clust_6="13000.00000" pt_clust_7="13000.00000" pt_clust_8="13000.00000" pt_clust_9="13000.00000"></scales>
<clustering>
<clus scale="   80.140">  5  6 -1 -1</clus>
<clus scale="   90.657">  7  8 -1 -1</clus>
<clus scale="   42.816">  7  9 -1 -1</clus>
<clus scale="   93.521">  1  5  2 -1</clus>
<clus scale="  205.119">  2  5  1 -1</clus>
</clustering>
</event>
<event>
 9    2  0.4178938E-005  0.2234991E+03  0.7546771E-02  0.1175272E+00
         -3   -1    0    0    0  501 -0.00000000000E+00  0.00000000000E+00  0.60489473887E+02  0.60489473887E+02  0.00000000000E+00 0.  1.
         21   -1    0    0  501  502  0.00000000000E+00 -0.00000000000E+00 -0.41575486259E+03  0.41575486259E+03  0.00000000000E+00 0.  1.
         24    2    1    2    0    0  0.36497527811E+01 -0.19202156108E+02 -0.37417037875E+02  0.87683621914E+02  0.76852711950E+02 0.  0.
         23    2    1    2    0    0 -0.49823307977E+02  0.41331269820E+02 -0.31876599823E+03  0.33735000328E+03  0.89457404423E+02 0.  0.
        -13    1    3    3    0    0 -0.31035456451E+02 -0.29168164048E+02 -0.14777867192E+02  0.45081778024E+02  0.00000000000E+00 0.  1.
         14    1    3    3    0    0  0.34685209232E+02  0.99660079395E+01 -0.22639170683E+02  0.42601843891E+02  0.00000000000E+00 0. -1.
        -11    1    4    4    0    0  0.32255596262E+01  0.43767431247E+02 -0.22804161714E+03  0.23222612131E+03  0.00000000000E+00 0.  1.
         11    1    4    4    0    0 -0.53048867603E+02 -0.24361614271E+01 -0.90724381091E+02  0.10512388197E+03  0.00000000000E+00 0. -1.
         -4    1    1    2    0  502  0.46173555196E+02 -0.22129113711E+02  0.91764739855E+00  0.51210711280E+02  0.00000000000E+00 0.  1.
<scales pt_clust_5="13000.00000" pt_clust_6="13000.00000" pt_clust_7="13000.00000" pt_clust_8="13000.00000" pt_clust_9="13000.00000"></scales>
<clustering>
<clus scale="   76.853">  5  6 -1 -1</clus>
<clus scale="   79.299">  1  5  2 -1</clus>
<clus scale="   89.457">  7  8 -1 -1</clus>
<clus scale="   60.863">  7  9 -1 -1</clus>
<clus scale="  223.499">  2  5  1 -1</clus>
</clustering>
</event>
<event>
 9    2  0.4178938E-005  0.4282651E+03  0.7546771E-02  0.1091157E+00
         21   -1    0    0  501  502  0.00000000000E+00  0.00000000000E+00  0.10781620974E+04  0.10781620974E+04  0.00000000000E+00 0.  1.
         -1   -1    0    0    0  501 -0.00000000000E+00 -0.00000000000E+00 -0.63987997010E+02  0.63987997010E+02  0.00000000000E+00 0.  1.
         24    2    1    2    0    0 -0.16090797602E+02 -0.33235588110E+02  0.26414378069E+03  0.27846237271E+03  0.80036479535E+02 0.  0.
         23    2    1    2    0    0 -0.16805499184E+03  0.63067459846E+02  0.56854852664E+03  0.60342774869E+03  0.93046418407E+02 0.  0.
        -13    1    3    3    0    0 -0.39384328354E+02 -0.46815148051E+02  0.18436958556E+03  0.19425480042E+03  0.00000000000E+00 0.  1.
         14    1    3    3    0    0  0.23293530752E+02  0.13579559940E+02  0.79774195123E+02  0.84207572287E+02  0.00000000000E+00 0. -1.
        -13    1    4    4    0    0 -0.72095049147E+02  0.70844984418E+02  0.35640105443E+03  0.37045704141E+03  0.00000000000E+00 0.  1.
         13    1    4    4    0    0 -0.95959942691E+02 -0.77775245721E+01  0.21214747221E+03  0.23297070729E+03  0.00000000000E+00 0. -1.
         -2    1    1    2    0  502  0.18414578944E+03 -0.29831871736E+02  0.18148179310E+03  0.26025997304E+03  0.00000000000E+00 0.  1.
<scales pt_clust_5="13000.00000" pt_clust_6="13000.00000" pt_clust_7="13000.00000" pt_clust_8="13000.00000" pt_clust_9="13000.00000"></scales>
<clustering>
<clus scale="   80.036">  5  6 -1 -1</clus>
<clus scale="   88.144">  2  5  1 -1</clus>
<clus scale="   93.046">  7  8 -1 -1</clus>
<clus scale="  180.891">  7  9 -1 -1</clus>
<clus scale="  428.265">  1  5  2 -1</clus>
</clustering>
</event>
<event>
 9    2  0.4178938E-005  0.2256838E+03  0.7546771E-02  0.1163920E+00
         21   -1    0    0  501  502  0.00000000000E+00  0.00000000000E+00  0.22894100127E+03  0.22894100127E+03  0.00000000000E+00 0. -1.
          2   -1    0    0  502    0 -0.00000000000E+00 -0.00000000000E+00 -0.23870652750E+03  0.23870652750E+03  0.00000000000E+00 0. -1.
         24    2    1    2    0    0  0.46715451009E+02 -0.26806047789E+02 -0.16560265912E+03  0.19338782917E+03  0.84105375575E+02 0.  0.
         23    2    1    2    0    0  0.36344866704E+02 -0.17952005720E+02  0.11272167429E+03  0.17052329084E+03  0.12136223885E+03 0.  0.
        -11    1    3    3    0    0  0.45532448581E+02  0.75659690326E+01 -0.33899004718E+02  0.57267707148E+02  0.00000000000E+00 0.  1.
         12    1    3    3    0    0  0.11830024286E+01 -0.34372016822E+02 -0.13170365440E+03  0.13612012202E+03  0.00000000000E+00 0. -1.
        -11    1    4    4    0    0 -0.18179483744E+02  0.25108517725E+02 -0.72961855210E+01  0.31845967008E+02  0.00000000000E+00 0.  1.
         11    1    4    4    0    0  0.54524350448E+02 -0.43060523445E+02  0.12001785981E+03  0.13867732383E+03  0.00000000000E+00 0. -1.
          1    1    1    2  501    0 -0.83060317713E+02  0.44758053510E+02  0.43115458606E+02  0.10373640876E+03  0.00000000000E+00 0. -1.
<scales pt_clust_5="13000.00000" pt_clust_6="13000.00000" pt_clust_7="13000.00000" pt_clust_8="13000.00000" pt_clust_9="13000.00000"></scales>
<clustering>
<clus scale="   84.105">  5  6 -1 -1</clus>
<clus scale="   99.873">  2  5  1 -1</clus>
<clus scale="  121.362">  7  8 -1 -1</clus>
<clus scale="   66.795">  7  9 -1 -1</clus>
<clus scale="  225.684">  1  5  2 -1</clus>
</clustering>
</event>
<event>
 9    2  0.4178938E-005  0.5807309E+03  0.7546771E-02  0.1031105E+00
          2   -1    0    0  502    0 -0.00000000000E+00  0.00000000000E+00  0.78055927887E+03  0.78055927887E+03  0.00000000000E+00 0. -1.
         21   -1    0    0  501  502  0.00000000000E+00 -0.00000000000E+00 -0.27564189778E+03  0.27564189778E+03  0.00000000000E+00 0. -1.
         24    2    1    2    0    0 -0.16164295916E+03  0.33095062891E+02  0.43102917481E+03  0.47078858820E+03  0.92908642271E+02 0.  0.
         23    2    1    2    0    0 -0.18714743761E+03  0.57992415065E+02  0.81537280473E+01  0.21898020568E+03  0.97460574553E+02 0.  0.
        -11    1    3    3    0    0 -0.42222142247E+02  0.39485699042E+01  0.31638100357E+02  0.52908126922E+02  0.00000000000E+00 0.  1.
         12    1    3    3    0    0 -0.11942081691E+03  0.29146492987E+02  0.39939107445E+03  0.41788046127E+03  0.00000000000E+00 0. -1.
        -13    1    4    4    0    0 -0.26353603538E+02  0.51212922983E+02 -0.28627906054E+01  0.57666900991E+02  0.00000000000E+00 0.  1.
         13    1    4    4    0    0 -0.16079383407E+03  0.67794920823E+01  0.11016518653E+02  0.16131330469E+03  0.00000000000E+00 0. -1.
          1    1    1    2  501    0  0.34879039677E+03 -0.91087477956E+02  0.65734478238E+02  0.36643238278E+03  0.00000000000E+00 0. -1.
<scales pt_clust_5="13000.00000" pt_clust_6="13000.00000" pt_clust_7="13000.00000" pt_clust_8="13000.00000" pt_clust_9="13000.00000"></scales>
<clustering>
<clus scale="   92.909">  5  6 -1 -1</clus>
<clus scale="   97.461">  7  8 -1 -1</clus>
<clus scale="  189.356">  1  5  2 -1</clus>
<clus scale="  252.555">  7  9 -1 -1</clus>
<clus scale="  580.731">  2  5  1 -1</clus>
</clustering>
</event>
<event>
 9    2  0.4178938E-005  0.3204743E+03  0.7546771E-02  0.1088370E+00
         21   -1    0    0  501  502  0.00000000000E+00  0.00000000000E+00  0.76928245669E+02  0.76928245669E+02  0.00000000000E+00 0. -1.
          2   -1    0    0  502    0 -0.00000000000E+00 -0.00000000000E+00 -0.97251159400E+03  0.97251159400E+03  0.00000000000E+00 0. -1.
         24    2    1    2    0    0  0.14518260091E+02  0.21093849722E+03 -0.38182041649E+03  0.44391848230E+03  0.81061451961E+02 0.  0.
         23    2    1    2    0    0  0.20748241304E+02  0.11780145949E+02 -0.11796511993E+03  0.14999613518E+03  0.89519884339E+02 0.  0.
        -11    1    3    3    0    0  0.36953909882E+02  0.41723686505E+02 -0.91984428994E+02  0.10755274357E+03  0.00000000000E+00 0.  1.
         12    1    3    3    0    0 -0.22435649792E+02  0.16921481072E+03 -0.28983598750E+03  0.33636573874E+03  0.00000000000E+00 0. -1.
        -13    1    4    4    0    0  0.10526512067E+02  0.45257818795E+02 -0.10083476286E+03  0.11102579439E+03  0.00000000000E+00 0.  1.
         13    1    4    4    0    0  0.10221729237E+02 -0.33477672846E+02 -0.17130357068E+02  0.38970340787E+02  0.00000000000E+00 0. -1.
          1    1    1    2  501    0 -0.35266501394E+02 -0.22271864317E+03 -0.39579781191E+03  0.45552522219E+03  0.00000000000E+00 0. -1.
<scales pt_clust_5="13000.00000" pt_clust_6="13000.00000" pt_clust_7="13000.00000" pt_clust_8="13000.00000" pt_clust_9="13000.00000"></scales>
<clustering>
<clus scale="   81.061">  5  6 -1 -1</clus>
<clus scale="   89.520">  7  8 -1 -1</clus>
<clus scale="  225.494">  7  9 -1 -1</clus>
<clus scale="  226.444">  2  5  1 -1</clus>
<clus scale="  320.474">  1  5  2 -1</clus>
</clustering>
</event>
<event>
 9    2  0.4178938E-005  0.2035696E+03  0.7546771E-02  0.1170444E+00
          2   -1    0    0  502    0 -0.00000000000E+00  0.00000000000E+00  0.36667157543E+03  0.36667157543E+03  0.00000000000E+00 0. -1.
         21   -1    0    0  501  502  0.00000000000E+00 -0.00000000000E+00 -0.76668020381E+02  0.76668020381E+02  0.00000000000E+00 0.  1.
         24    2    1    2    0    0 -0.16363399118E+02 -0.84198262053E+02  0.46681141639E+02  0.12609143720E+03  0.79767245078E+02 0.  0.
         23    2    1    2    0    0 -0.33723601774E+01 -0.21994608040E+02  0.15327202951E+03  0.17662277863E+03  0.84900855735E+02 0.  0.
        -11    1    3    3    0    0 -0.17864184377E+02 -0.46942632571E+02 -0.16381441581E+02  0.52830781410E+02  0.00000000000E+00 0.  1.
         12    1    3    3    0    0  0.15007852586E+01 -0.37255629482E+02  0.63062583221E+02  0.73260655791E+02  0.00000000000E+00 0. -1.
        -11    1    4    4    0    0  0.69302242938E+01 -0.53528960213E+02  0.84507320836E+02  0.10027394909E+03  0.00000000000E+00 0.  1.
         11    1    4    4    0    0 -0.10302584471E+02  0.31534352173E+02  0.68764708674E+02  0.76348829544E+02  0.00000000000E+00 0. -1.
          1    1    1    2  501    0  0.19735759296E+02  0.10619287009E+03  0.90050383895E+02  0.14062537998E+03  0.00000000000E+00 0. -1.
<scales pt_clust_5="13000.00000" pt_clust_6="13000.00000" pt_clust_7="13000.00000" pt_clust_8="13000.00000" pt_clust_9="13000.00000"></scales>
<clustering>
<clus scale="   79.767">  5  6 -1 -1</clus>
<clus scale="   84.901">  7  8 -1 -1</clus>
<clus scale="  108.011">  7  9 -1 -1</clus>
<clus scale="  117.132">  1  5  2 -1</clus>
<clus scale="  203.570">  2  5  1 -1</clus>
</clustering>
</event>
<event>
 9    2  0.4178938E-005  0.3289840E+03  0.7546771E-02  0.1106261E+00
          2   -1    0    0  502    0 -0.00000000000E+00  0.00000000000E+00  0.53574886049E+03  0.53574886049E+03  0.00000000000E+00 0. -1.
         21   -1    0    0  501  502  0.00000000000E+00 -0.00000000000E+00 -0.99130471769E+02  0.99130471769E+02  0.00000000000E+00 0. -1.
         24    2    1    2    0    0  0.95078229757E+02  0.41718783828E+02  0.10961930160E+03  0.17102711836E+03  0.80334035330E+02 0.  0.
         23    2    1    2    0    0  0.80777328500E+02  0.47725322216E+02  0.12907400370E+03  0.18438886367E+03  0.92393026975E+02 0.  0.
        -11    1    3    3    0    0 -0.80632244500E+01  0.25637202793E+02  0.23493179050E+02  0.35696095269E+02  0.00000000000E+00 0.  1.
         12    1    3    3    0    0  0.10314145421E+03  0.16081581035E+02  0.86126122552E+02  0.13533102309E+03  0.00000000000E+00 0. -1.
        -13    1    4    4    0    0  0.33378657849E+02 -0.86958375008E+01 -0.14251555967E+01  0.34522216877E+02  0.00000000000E+00 0.  1.
         13    1    4    4    0    0  0.47398670651E+02  0.56421159717E+02  0.13049915930E+03  0.14986664679E+03  0.00000000000E+00 0. -1.
          1    1    1    2  501    0 -0.17585555826E+03 -0.89444106044E+02  0.19792508341E+03  0.27946335023E+03  0.00000000000E+00 0. -1.
<scales pt_clust_5="13000.00000" pt_clust_6="13000.00000" pt_clust_7="13000.00000" pt_clust_8="13000.00000" pt_clust_9="13000.00000"></scales>
<clustering>
<clus scale="   80.334">  5  6 -1 -1</clus>
<clus scale="   92.393">  7  8 -1 -1</clus>
<clus scale="  131.278">  1  5  2 -1</clus>
<clus scale="  134.770">  7  9 -1 -1</clus>
<clus scale="  328.984">  2  5  1 -1</clus>
</clustering>
</event>
<event>
 9    2  0.4178938E-005  0.2369991E+03  0.7546771E-02  0.1133735E+00
          2   -1    0    0  502    0 -0.00000000000E+00  0.00000000000E+00  0.12292309500E+04  0.12292309500E+04  0.00000000000E+00 0. -1.
         21   -1    0    0  501  502  0.00000000000E+00 -0.00000000000E+00 -0.58638739303E+02  0.58638739303E+02  0.00000000000E+00 0. -1.
         24    2    1    2    0    0  0.99342535275E+02 -0.12214304946E+03  0.94262257309E+03  0.95902514048E+03  0.80025251740E+02 0.  0.
         23    2    1    2    0    0 -0.72490689841E+02  0.64359223578E+01  0.14596249298E+03  0.18450351988E+03  0.86256468048E+02 0.  0.
        -13    1    3    3    0    0  0.46262300739E+02 -0.33886711499E+01  0.23083449839E+03  0.23544903740E+03  0.00000000000E+00 0.  1.
         14    1    3    3    0    0  0.53080234536E+02 -0.11875437831E+03  0.71178807470E+03  0.72357610308E+03  0.00000000000E+00 0. -1.
        -11    1    4    4    0    0 -0.36679066892E+02 -0.14932127261E+02  0.80341554012E+01  0.40408786490E+02  0.00000000000E+00 0.  1.
         11    1    4    4    0    0 -0.35811622949E+02  0.21368049619E+02  0.13792833758E+03  0.14409473339E+03  0.00000000000E+00 0. -1.
          1    1    1    2  501    0 -0.26851845434E+02  0.11570712711E+03  0.82007144605E+02  0.14434102893E+03  0.00000000000E+00 0. -1.
<scales pt_clust_5="13000.00000" pt_clust_6="13000.00000" pt_clust_7="13000.00000" pt_clust_8="13000.00000" pt_clust_9="13000.00000"></scales>
<clustering>
<clus scale="   80.025">  5  6 -1 -1</clus>
<clus scale="   86.256">  7  8 -1 -1</clus>
<clus scale="  118.782">  7  9 -1 -1</clus>
<clus scale="  176.612">  1  5  2 -1</clus>
<clus scale="  236.999">  2  5  1 -1</clus>
</clustering>
</event>
<event>
 9    2  0.4178938E-005  0.1662246E+03  0.7546771E-02  0.1205718E+00
         21   -1    0    0  501  502  0.00000000000E+00  0.00000000000E+00  0.54879939348E+02  0.54879939348E+02  0.00000000000E+00 0.  1.
          4   -1    0    0  502    0 -0.00000000000E+00 -0.00000000000E+00 -0.52753432284E+03  0.52753432284E+03  0.00000000000E+00 0. -1.
         24    2    1    2    0    0 -0.61907459004E+02 -0.11180080005E+02 -0.37910925639E+03  0.39167545138E+03  0.75685555192E+02 0.  0.
         23    2    1    2    0    0  0.72069277845E+02  0.30024188880E+02 -0.30584925769E+02  0.12423805928E+03  0.91674560065E+02 0.  0.
        -13    1    3    3    0    0 -0.18294864928E+01 -0.34068779042E+02 -0.12901699430E+03  0.13345191473E+03  0.00000000000E+00 0.  1.
         14    1    3    3    0    0 -0.60077972511E+02  0.22888699037E+02 -0.25009226209E+03  0.25822353665E+03  0.00000000000E+00 0. -1.
        -11    1    4    4    0    0 -0.20155192824E+01 -0.21437863317E+02 -0.26219171968E+02  0.33927706676E+02  0.00000000000E+00 0. -1.
         11    1    4    4    0    0  0.74084797127E+02  0.51462052198E+02 -0.43657538010E+01  0.90310352607E+02  0.00000000000E+00 0.  1.
          3    1    1    2  501    0 -0.10161818841E+02 -0.18844108876E+02 -0.62960201337E+02  0.66500751529E+02  0.00000000000E+00 0. -1.
<scales pt_clust_5="13000.00000" pt_clust_6="13000.00000" pt_clust_7="13000.00000" pt_clust_8="13000.00000" pt_clust_9="13000.00000"></scales>
<clustering>
<clus scale="   75.686">  5  6 -1 -1</clus>
<clus scale="   91.675">  7  8 -1 -1</clus>
<clus scale="   21.409">  7  9 -1 -1</clus>
<clus scale="   98.417">  2  5  1 -1</clus>
<clus scale="  166.225">  1  5  2 -1</clus>
</clustering>
</event>
<event>
 9    2  0.4178938E-005  0.2088460E+03  0.7546771E-02  0.1178146E+00
         21   -1    0    0  501  502  0.00000000000E+00  0.00000000000E+00  0.25932126320E+03  0.25932126320E+03  0.00000000000E+00 0.  1.
         -3   -1    0    0    0  501 -0.00000000000E+00 -0.00000000000E+00 -0.95533171382E+02  0.95533171382E+02  0.00000000000E+00 0.  1.
         24    2    1    2    0    0  0.43092301819E+02  0.13979770748E+02  0.27249962512E+01  0.91116004577E+02  0.79008355376E+02 0.  0.
         23    2    1    2    0    0  0.45169476031E+02  0.18406875620E+02  0.41910244638E+02  0.11196083556E+03  0.91649688805E+02 0.  0.
        -13    1    3    3    0    0  0.62974387624E+02  0.10632861624E+02 -0.13451400462E+02  0.65266924375E+02  0.00000000000E+00 0.  1.
         14    1    3    3    0    0 -0.19882085806E+02  0.33469091241E+01  0.16176396713E+02  0.25849080202E+02  0.00000000000E+00 0. -1.
        -13    1    4    4    0    0  0.22864707969E+02  0.54747766793E+02  0.34648884314E+02  0.68707044934E+02  0.00000000000E+00 0.  1.
         13    1    4    4    0    0  0.22304768062E+02 -0.36340891173E+02  0.72613603239E+01  0.43253790623E+02  0.00000000000E+00 0. -1.
         -4    1    1    2    0  502 -0.88261777850E+02 -0.32386646368E+02  0.11915285093E+03  0.15177759445E+03  0.00000000000E+00 0.  1.
<scales pt_clust_5="13000.00000" pt_clust_6="13000.00000" pt_clust_7="13000.00000" pt_clust_8="13000.00000" pt_clust_9="13000.00000"></scales>
<clustering>
<clus scale="   79.008">  5  6 -1 -1</clus>
<clus scale="   91.075">  2  5  1 -1</clus>
<clus scale="   91.650">  7  8 -1 -1</clus>
<clus scale="   79.634">  7  9 -1 -1</clus>
<clus scale="  208.846">  1  5  2 -1</clus>
</clustering>
</event>
<event>
 9    2  0.4178938E-005  0.2677403E+03  0.7546771E-02  0.1130879E+00
         21   -1    0    0  501  502  0.00000000000E+00  0.00000000000E+00  0.30772836330E+02  0.30772836330E+02  0.00000000000E+00 0. -1.
          2   -1    0    0  502    0 -0.00000000000E+00 -0.00000000000E+00 -0.14890130642E+04  0.14890130642E+04  0.00000000000E+00 0. -1.
         24    2    1    2    0    0  0.54687512396E+02 -0.87424514674E+02 -0.25190675671E+03  0.28409771304E+03  0.81367848077E+02 0.  0.
         23    2    1    2    0    0  0.53391258297E+02 -0.40972996319E+02 -0.41852451606E+03  0.43020082493E+03  0.73352343791E+02 0.  0.
        -13    1    3    3    0    0  0.40722048037E+02 -0.36718360602E+02 -0.45974611340E+02  0.71555489583E+02  0.00000000000E+00 0.  1.
         14    1    3    3    0    0  0.13965464359E+02 -0.50706154071E+02 -0.20593214537E+03  0.21254222346E+03  0.00000000000E+00 0. -1.
        -11    1    4    4    0    0  0.87191851260E+01 -0.47934029703E+02 -0.28741175859E+03  0.29151194550E+03  0.00000000000E+00 0.  1.
         11    1    4    4    0    0  0.44672073171E+02  0.69610333838E+01 -0.13111275747E+03  0.13868887943E+03  0.00000000000E+00 0. -1.
          1    1    1    2  501    0 -0.10807877069E+03  0.12839751099E+03 -0.78780895510E+03  0.80548736256E+03  0.00000000000E+00 0. -1.
<scales pt_clust_5="13000.00000" pt_clust_6="13000.00000" pt_clust_7="13000.00000" pt_clust_8="13000.00000" pt_clust_9="13000.00000"></scales>
<clustering>
<clus scale="   73.352">  7  8 -1 -1</clus>
<clus scale="   81.368">  5  6 -1 -1</clus>
<clus scale="  131.356">  2  5  1 -1</clus>
<clus scale="  101.653">  7  9 -1 -1</clus>
<clus scale="  267.740">  1  5  2 -1</clus>
</clustering>
</event>
<event>
 9    2  0.4178938E-005  0.2429328E+03  0.7546771E-02  0.1160074E+00
          2   -1    0    0  502    0 -0.00000000000E+00  0.00000000000E+00  0.18005625921E+03  0.18005625921E+03  0.00000000000E+00 0. -1.
         21   -1    0    0  501  502  0.00000000000E+00 -0.00000000000E+00 -0.44219059912E+03  0.44219059912E+03  0.00000000000E+00 0. -1.
         24    2    1    2    0    0  0.20425245776E+02  0.26367493690E+02  0.13251379084E+03  0.15882103907E+03  0.80943080627E+02 0.  0.
         23    2    1    2    0    0  0.11653007452E+02  0.49117962264E+02 -0.62628124272E+02  0.12142530304E+03  0.90958537093E+02 0.  0.
        -13    1    3    3    0    0  0.17670531133E+02  0.17422393301E+02 -0.11387419994E+01  0.24841179364E+02  0.00000000000E+00 0.  1.
         14    1    3    3    0    0  0.27547146438E+01  0.89451003885E+01  0.13365253284E+03  0.13397985971E+03  0.00000000000E+00 0. -1.
        -13    1    4    4    0    0  0.32944332316E+02 -0.12367654108E+02 -0.38162262550E+02  0.51909981533E+02  0.00000000000E+00 0. -1.
         13    1    4    4    0    0 -0.21291324864E+02  0.61485616372E+02 -0.24465861722E+02  0.69515321512E+02  0.00000000000E+00 0.  1.
          1    1    1    2  501    0 -0.32078253228E+02 -0.75485455954E+02 -0.33202000648E+03  0.34200051622E+03  0.00000000000E+00 0. -1.
<scales pt_clust_5="13000.00000" pt_clust_6="13000.00000" pt_clust_7="13000.00000" pt_clust_8="13000.00000" pt_clust_9="13000.00000"></scales>
<clustering>
<clus scale="   80.943">  5  6 -1 -1</clus>
<clus scale="   87.546">  1  5  2 -1</clus>
<clus scale="   90.959">  7  8 -1 -1</clus>
<clus scale="   77.348">  7  9 -1 -1</clus>
<clus scale="  242.933">  2  5  1 -1</clus>
</clustering>
</event>
<event>
 9    2  0.4178938E-005  0.2029965E+03  0.7546771E-02  0.1199656E+00
          2   -1    0    0  502    0 -0.00000000000E+00  0.00000000000E+00  0.18863379919E+03  0.18863379919E+03  0.00000000000E+00 0. -1.
         21   -1    0    0  501  502  0.00000000000E+00 -0.00000000000E+00 -0.95521790148E+02  0.95521790148E+02  0.00000000000E+00 0. -1.
         24    2    1    2    0    0 -0.92292111143E+01  0.15603915196E+02  0.42816727164E+02  0.75021162193E+02  0.58874800590E+02 0.  0.
         23    2    1    2    0    0 -0.61087169562E+01 -0.44818082534E+02  0.10413180247E+03  0.14599101450E+03  0.91782171930E+02 0.  0.
        -11    1    3    3    0    0 -0.20663192365E+02 -0.41858483330E+01  0.47249557341E+02  0.51739825222E+02  0.00000000000E+00 0.  1.
         12    1    3    3    0    0  0.11433981251E+02  0.19789763529E+02 -0.44328301774E+01  0.23281336972E+02  0.00000000000E+00 0. -1.
        -13    1    4    4    0    0  0.31489837087E+02 -0.13077330796E+01  0.75370422371E+02  0.81694678982E+02  0.00000000000E+00 0. -1.
         13    1    4    4    0    0 -0.37598554043E+02 -0.43510349455E+02  0.28761380098E+02  0.64296335517E+02  0.00000000000E+00 0.  1.
          1    1    1    2  501    0  0.15337928071E+02  0.29214167338E+02 -0.53836520592E+02  0.63143412643E+02  0.00000000000E+00 0. -1.
<scales pt_clust_5="13000.00000" pt_clust_6="13000.00000" pt_clust_7="13000.00000" pt_clust_8="13000.00000" pt_clust_9="13000.00000"></scales>
<clustering>
<clus scale="   58.875">  5  6 -1 -1</clus>
<clus scale="   61.603">  1  5  2 -1</clus>
<clus scale="   91.782">  7  8 -1 -1</clus>
<clus scale="   33.342">  7  9 -1 -1</clus>
<clus scale="  202.997">  2  5  1 -1</clus>
</clustering>
</event>
<event>
 9    2  0.4178938E-005  0.6972863E+03  0.7546771E-02  0.1033940E+00
          2   -1    0    0  502    0 -0.00000000000E+00  0.00000000000E+00  0.76698593905E+03  0.76698593905E+03  0.00000000000E+00 0. -1.
         21   -1    0    0  501  502  0.00000000000E+00 -0.00000000000E+00 -0.20828897046E+03  0.20828897046E+03  0.00000000000E+00 0. -1.
         24    2    1    2    0    0 -0.76707665615E+01  0.61127633204E+02  0.51373722154E+02  0.11296111776E+03  0.79533179215E+02 0.  0.
         23    2    1    2    0    0 -0.26954164623E+03  0.16933286080E+03  0.29611976135E+03  0.44450322078E+03  0.92573664844E+02 0.  0.
        -13    1    3    3    0    0 -0.20114884546E+02 -0.89652135229E+01  0.32594682872E+02  0.39336967160E+02  0.00000000000E+00 0.  1.
         14    1    3    3    0    0  0.12444117984E+02  0.70092846727E+02  0.18779039281E+02  0.73624150596E+02  0.00000000000E+00 0. -1.
        -11    1    4    4    0    0 -0.93360728040E+02  0.10527750039E+03  0.15850091339E+03  0.21194838328E+03  0.00000000000E+00 0.  1.
         11    1    4    4    0    0 -0.17618091819E+03  0.64055360409E+02  0.13761884795E+03  0.23255483750E+03  0.00000000000E+00 0. -1.
          1    1    1    2  501    0  0.27721241279E+03 -0.23046049400E+03  0.21120348509E+03  0.41781057097E+03  0.00000000000E+00 0. -1.
<scales pt_clust_5="13000.00000" pt_clust_6="13000.00000" pt_clust_7="13000.00000" pt_clust_8="13000.00000" pt_clust_9="13000.00000"></scales>
<clustering>
<clus scale="   79.533">  5  6 -1 -1</clus>
<clus scale="   92.574">  7  8 -1 -1</clus>
<clus scale="  100.603">  1  5  2 -1</clus>
<clus scale="  340.392">  7  9 -1 -1</clus>
<clus scale="  697.286">  2  5  1 -1</clus>
</clustering>
</event>
<event>
 9    2  0.4178938E-005  0.2963098E+03  0.7546771E-02  0.1132063E+00
         21   -1    0    0  501  502  0.00000000000E+00  0.00000000000E+00  0.69804253873E+02  0.69804253873E+02  0.00000000000E+00 0.  1.
          2   -1    0    0  502    0 -0.00000000000E+00 -0.00000000000E+00 -0.81105358825E+03  0.81105358825E+03  0.00000000000E+00 0. -1.
         24    2    1    2    0    0 -0.33037521647E+02  0.37613771617E+02 -0.46936791497E+03  0.47871479638E+03  0.79720405303E+02 0.  0.
         23    2    1    2    0    0  0.10061034081E+03  0.18249031466E+02 -0.24099195395E+02  0.13930703376E+03  0.91488855102E+02 0.  0.
        -11    1    3    3    0    0 -0.23412555847E+02 -0.16356527772E+02 -0.70006737688E+02  0.75608379786E+02  0.00000000000E+00 0.  1.
         12    1    3    3    0    0 -0.96249657999E+01  0.53970299389E+02 -0.39936117728E+03  0.40310641660E+03  0.00000000000E+00 0. -1.
        -11    1    4    4    0    0  0.10523547768E+02 -0.23382448522E+02 -0.30515997900E+02  0.39858626222E+02  0.00000000000E+00 0. -1.
         11    1    4    4    0    0  0.90086793044E+02  0.41631479988E+02  0.64168025047E+01  0.99448407536E+02  0.00000000000E+00 0.  1.
          1    1    1    2  501    0 -0.67572819165E+02 -0.55862803083E+02 -0.24778222401E+03  0.26283601198E+03  0.00000000000E+00 0. -1.
<scales pt_clust_5="13000.00000" pt_clust_6="13000.00000" pt_clust_7="13000.00000" pt_clust_8="13000.00000" pt_clust_9="13000.00000"></scales>
<clustering>
<clus scale="   79.720">  5  6 -1 -1</clus>
<clus scale="   91.489">  7  8 -1 -1</clus>
<clus scale="   87.674">  7  9 -1 -1</clus>
<clus scale="   94.136">  2  5  1 -1</clus>
<clus scale="  296.310">  1  5  2 -1</clus>
</clustering>
</event>
<event>
 9    2  0.5652587E-005  0.6168372E+03  0.7546771E-02  0.1038210E+00
         -3   -1    0    0    0  501 -0.00000000000E+00  0.00000000000E+00  0.85350463861E+03  0.85350463861E+03  0.00000000000E+00 0.  1.
         21   -1    0    0  501  502  0.00000000000E+00 -0.00000000000E+00 -0.19571213702E+03  0.19571213702E+03  0.00000000000E+00 0.  1.
         24    2    1    2    0    0  0.66583898868E+02  0.43747634808E+02 -0.23294793277E+02  0.13032174168E+03  0.10046809355E+03 0.  0.
         23    2    1    2    0    0 -0.19033555288E+03 -0.18116513006E+02  0.74713452768E+03  0.77629887960E+03  0.88736223111E+02 0.  0.
        -13    1    3    3    0    0 -0.32236321605E+01 -0.24894194702E+02 -0.20451279084E+02  0.32378504449E+02  0.00000000000E+00 0.  1.
         14    1    3    3    0    0  0.69807531028E+02  0.68641829510E+02 -0.28435141926E+01  0.97943237234E+02  0.00000000000E+00 0. -1.
        -13    1    4    4    0    0 -0.96155668261E+02  0.30149728145E+02  0.28784553754E+03  0.30497536315E+03  0.00000000000E+00 0. -1.
         13    1    4    4    0    0 -0.94179884618E+02 -0.48266241151E+02  0.45928899014E+03  0.47132351645E+03  0.00000000000E+00 0.  1.
         -4    1    1    2    0  502  0.12375165401E+03 -0.25631121802E+02 -0.66047232806E+02  0.14259615435E+03  0.00000000000E+00 0.  1.
<scales pt_clust_5="13000.00000" pt_clust_6="13000.00000" pt_clust_7="13000.00000" pt_clust_8="13000.00000" pt_clust_9="13000.00000"></scales>
<clustering>
<clus scale="   88.736">  7  8 -1 -1</clus>
<clus scale="  100.468">  5  6 -1 -1</clus>
<clus scale="  126.378">  7  9 -1 -1</clus>
<clus scale="  128.223">  1  5  2 -1</clus>
<clus scale="  616.837">  2  5  1 -1</clus>
</clustering>
</event>
<event>
 9    2  0.4178938E-005  0.4175505E+03  0.7546771E-02  0.1073179E+00
          2   -1    0    0  502    0 -0.00000000000E+00  0.00000000000E+00  0.17834395334E+03  0.17834395334E+03  0.00000000000E+00 0. -1.
         21   -1    0    0  501  502  0.00000000000E+00 -0.00000000000E+00 -0.20047974426E+04  0.20047974426E+04  0.00000000000E+00 0. -1.
         24    2    1    2    0    0 -0.86493018256E+02 -0.98353461449E+02  0.11819355407E+03  0.19417167545E+03  0.81107815522E+02 0.  0.
         23    2    1    2    0    0  0.42502333432E+02 -0.11957893164E+03 -0.41533490992E+03  0.44358131958E+03  0.90309082826E+02 0.  0.
        -11    1    3    3    0    0 -0.82394819458E+02 -0.35185309803E+02  0.57384668512E+02  0.10639507733E+03  0.00000000000E+00 0.  1.
         12    1    3    3    0    0 -0.40981987986E+01 -0.63168151646E+02  0.60808885554E+02  0.87776598123E+02  0.00000000000E+00 0. -1.
        -13    1    4    4    0    0  0.52267961526E+02 -0.21379408991E+02 -0.13280658264E+03  0.14431426583E+03  0.00000000000E+00 0.  1.
         13    1    4    4    0    0 -0.97656280939E+01 -0.98199522650E+02 -0.28252832728E+03  0.29926705375E+03  0.00000000000E+00 0. -1.
          1    1    1    2  501    0  0.43990684825E+02  0.21793239309E+03 -0.15293121334E+04  0.15453884010E+04  0.00000000000E+00 0. -1.
<scales pt_clust_5="13000.00000" pt_clust_6="13000.00000" pt_clust_7="13000.00000" pt_clust_8="13000.00000" pt_clust_9="13000.00000"></scales>
<clustering>
<clus scale="   81.108">  5  6 -1 -1</clus>
<clus scale="   90.309">  7  8 -1 -1</clus>
<clus scale="  154.055">  1  5  2 -1</clus>
<clus scale="  182.695">  7  9 -1 -1</clus>
<clus scale="  417.551">  2  5  1 -1</clus>
</clustering>
</event>
<event>
 9    2  0.4178938E-005  0.6738536E+03  0.7546771E-02  0.1040926E+00
          2   -1    0    0  502    0 -0.00000000000E+00  0.00000000000E+00  0.94722201353E+03  0.94722201353E+03  0.00000000000E+00 0. -1.
         21   -1    0    0  501  502  0.00000000000E+00 -0.00000000000E+00 -0.15458331909E+03  0.15458331909E+03  0.00000000000E+00 0. -1.
         24    2    1    2    0    0  0.39613167001E+02 -0.11440655835E+02  0.80721816530E+02  0.12154808685E+03  0.80980455348E+02 0.  0.
         23    2    1    2    0    0  0.13382217878E+03 -0.28587527855E+03  0.35117747488E+03  0.48164968374E+03  0.95014464986E+02 0.  0.
        -13    1    3    3    0    0  0.35683283014E+02  0.26622491676E+02  0.67895390409E+02  0.81190133566E+02  0.00000000000E+00 0.  1.
         14    1    3    3    0    0  0.39298839870E+01 -0.38063147511E+02  0.12826426120E+02  0.40357953288E+02  0.00000000000E+00 0. -1.
        -11    1    4    4    0    0  0.31695830340E+02 -0.10895243754E+03  0.19056357342E+03  0.22178758942E+03  0.00000000000E+00 0.  1.
         11    1    4    4    0    0  0.10212634844E+03 -0.17692284102E+03  0.16061390146E+03  0.25986209431E+03  0.00000000000E+00 0. -1.
          1    1    1    2  501    0 -0.17343534578E+03  0.29731593439E+03  0.36073940303E+03  0.49860756202E+03  0.00000000000E+00 0. -1.
<scales pt_clust_5="13000.00000" pt_clust_6="13000.00000" pt_clust_7="13000.00000" pt_clust_8="13000.00000" pt_clust_9="13000.00000"></scales>
<clustering>
<clus scale="   80.980">  5  6 -1 -1</clus>
<clus scale="   90.873">  1  5  2 -1</clus>
<clus scale="   95.014">  7  8 -1 -1</clus>
<clus scale="  329.367">  7  9 -1 -1</clus>
<clus scale="  673.854">  2  5  1 -1</clus>
</clustering>
</event>
<event>
 9    2  0.4178938E-005  0.3813836E+03  0.7546771E-02  0.1095699E+00
         21   -1    0    0  501  502  0.00000000000E+00  0.00000000000E+00  0.11394457915E+03  0.11394457915E+03  0.00000000000E+00 0. -1.
          2   -1    0    0  502    0 -0.00000000000E+00 -0.00000000000E+00 -0.54608144873E+03  0.54608144873E+03  0.00000000000E+00 0. -1.
         24    2    1    2    0    0  0.65225061801E+01  0.75757234470E+02 -0.55051821104E+02  0.12369908576E+03  0.80554696636E+02 0.  0.
         23    2    1    2    0    0  0.14337358540E+03  0.59030485007E+02 -0.17134722925E+03  0.24829114946E+03  0.90818713827E+02 0.  0.
        -11    1    3    3    0    0  0.24447948171E+02  0.70714089728E+01  0.10066990290E+02  0.27368801364E+02  0.00000000000E+00 0.  1.
         12    1    3    3    0    0 -0.17925441991E+02  0.68685825497E+02 -0.65118811394E+02  0.96330284398E+02  0.00000000000E+00 0. -1.
        -11    1    4    4    0    0  0.13537891963E+03  0.18580118607E+02 -0.11581626233E+03  0.17912587560E+03  0.00000000000E+00 0. -1.
         11    1    4    4    0    0  0.79946657682E+01  0.40450366400E+02 -0.55530966913E+02  0.69165273866E+02  0.00000000000E+00 0.  1.
          1    1    1    2  501    0 -0.14989609158E+03 -0.13478771948E+03 -0.20573781922E+03  0.28803579266E+03  0.00000000000E+00 0. -1.
<scales pt_clust_5="13000.00000" pt_clust_6="13000.00000" pt_clust_7="13000.00000" pt_clust_8="13000.00000" pt_clust_9="13000.00000"></scales>
<clustering>
<clus scale="   80.555">  5  6 -1 -1</clus>
<clus scale="   90.819">  7  8 -1 -1</clus>
<clus scale="  110.774">  2  5  1 -1</clus>
<clus scale="  173.866">  7  9 -1 -1</clus>
<clus scale="  381.384">  1  5  2 -1</clus>
</clustering>
</event>
<event>
 9    2  0.4178938E-005  0.3473996E+03  0.7546771E-02  0.1112276E+00
          4   -1    0    0  502    0 -0.00000000000E+00  0.00000000000E+00  0.11796246238E+03  0.11796246238E+03  0.00000000000E+00 0. -1.
         21   -1    0    0  501  502  0.00000000000E+00 -0.00000000000E+00 -0.50831843815E+03  0.50831843815E+03  0.00000000000E+00 0. -1.
         24    2    1    2    0    0 -0.94465774850E+01 -0.54960633001E+02  0.10073104039E+02  0.96158368680E+02  0.77685619237E+02 0.  0.
         23    2    1    2    0    0 -0.88469807332E+02 -0.77557051481E+02 -0.30760253134E+03  0.34100531102E+03  0.88449430814E+02 0.  0.
        -11    1    3    3    0    0 -0.37565668609E+02 -0.49150272693E+02  0.21157243255E+02  0.65380101759E+02  0.00000000000E+00 0.  1.
         12    1    3    3    0    0  0.28119091124E+02 -0.58103603078E+01 -0.11084139216E+02  0.30778266921E+02  0.00000000000E+00 0. -1.
        -11    1    4    4    0    0 -0.76386381843E+02 -0.94066951761E+02 -0.28890850327E+03  0.31329154794E+03  0.00000000000E+00 0. -1.
         11    1    4    4    0    0 -0.12083425488E+02  0.16509900279E+02 -0.18694028068E+02  0.27713763082E+02  0.00000000000E+00 0.  1.
          3    1    1    2  501    0  0.97916384817E+02  0.13251768448E+03 -0.92826548472E+02  0.18911722084E+03  0.00000000000E+00 0. -1.
<scales pt_clust_5="13000.00000" pt_clust_6="13000.00000" pt_clust_7="13000.00000" pt_clust_8="13000.00000" pt_clust_9="13000.00000"></scales>
<clustering>
<clus scale="   77.686">  5  6 -1 -1</clus>
<clus scale="   88.449">  7  8 -1 -1</clus>
<clus scale="   95.629">  1  5  2 -1</clus>
<clus scale="  129.130">  7  9 -1 -1</clus>
<clus scale="  347.400">  2  5  1 -1</clus>
</clustering>
</event>
<event>
 9    2  0.4446190E-005  0.3748775E+03  0.7546771E-02  0.1062197E+00
         21   -1    0    0  501  502  0.00000000000E+00  0.00000000000E+00  0.25664106396E+03  0.25664106396E+03  0.00000000000E+00 0. -1.
          2   -1    0    0  502    0 -0.00000000000E+00 -0.00000000000E+00 -0.63770669959E+03  0.63770669959E+03  0.00000000000E+00 0. -1.
         24    2    1    2    0    0  0.26994989839E+03 -0.61221563423E+02  0.80988315904E+02  0.29934606844E+03  0.80174396845E+02 0.  0.
         23    2    1    2    0    0 -0.48906289098E+02 -0.19606773288E+02 -0.43016954752E+02  0.11439218429E+03  0.91972075971E+02 0.  0.
        -13    1    3    3    0    0  0.21266228919E+03 -0.52001541868E+02  0.96547398996E+02  0.23927141462E+03  0.00000000000E+00 0.  1.
         14    1    3    3    0    0  0.57287609202E+02 -0.92200215546E+01 -0.15559083092E+02  0.60074653825E+02  0.00000000000E+00 0. -1.
        -13    1    4    4    0    0  0.21621248317E+02  0.14817536365E+02 -0.18813801414E+02  0.32264483358E+02  0.00000000000E+00 0.  1.
         13    1    4    4    0    0 -0.70527537415E+02 -0.34424309653E+02 -0.24203153338E+02  0.82127700932E+02  0.00000000000E+00 0. -1.
          1    1    1    2  501    0 -0.22104360929E+03  0.80828336711E+02 -0.41903699678E+03  0.48060951082E+03  0.00000000000E+00 0. -1.
<scales pt_clust_5="13000.00000" pt_clust_6="13000.00000" pt_clust_7="13000.00000" pt_clust_8="13000.00000" pt_clust_9="13000.00000"></scales>
<clustering>
<clus scale="   80.174">  5  6 -1 -1</clus>
<clus scale="   91.972">  7  8 -1 -1</clus>
<clus scale="  235.358">  7  9 -1 -1</clus>
<clus scale="  288.182">  2  5  1 -1</clus>
<clus scale="  374.878">  1  5  2 -1</clus>
</clustering>
</event>
<event>
 9    2  0.4178938E-005  0.1604630E+03  0.7546771E-02  0.1216781E+00
         21   -1    0    0  501  502  0.00000000000E+00  0.00000000000E+00  0.31473178177E+03  0.31473178177E+03  0.00000000000E+00 0. -1.
          2   -1    0    0  502    0 -0.00000000000E+00 -0.00000000000E+00 -0.48175357991E+03  0.48175357991E+03  0.00000000000E+00 0. -1.
         24    2    1    2    0    0 -0.39877418952E+02  0.45149320790E+01 -0.45698385577E+03  0.46508474009E+03  0.76543960381E+02 0.  0.
         23    2    1    2    0    0  0.19549536697E+02 -0.33340232490E+02  0.27551978268E+03  0.29328631920E+03  0.92800640605E+02 0.  0.
        -11    1    3    3    0    0  0.16692040658E+02 -0.13779555262E+02 -0.62411958991E+02  0.66058708659E+02  0.00000000000E+00 0.  1.
         12    1    3    3    0    0 -0.56569459610E+02  0.18294487341E+02 -0.39457189678E+03  0.39902603143E+03  0.00000000000E+00 0. -1.
        -13    1    4    4    0    0 -0.12447693776E+02  0.28299536022E+02  0.92705132451E+02  0.97724359308E+02  0.00000000000E+00 0.  1.
         13    1    4    4    0    0  0.31997230473E+02 -0.61639768511E+02  0.18281465022E+03  0.19556195989E+03  0.00000000000E+00 0. -1.
          1    1    1    2  501    0  0.20327882254E+02  0.28825300411E+02  0.14442274953E+02  0.38114302388E+02  0.00000000000E+00 0. -1.
<scales pt_clust_5="13000.00000" pt_clust_6="13000.00000" pt_clust_7="13000.00000" pt_clust_8="13000.00000" pt_clust_9="13000.00000"></scales>
<clustering>
<clus scale="   76.544">  5  6 -1 -1</clus>
<clus scale="   86.427">  2  5  1 -1</clus>
<clus scale="   92.801">  7  8 -1 -1</clus>
<clus scale="   31.500">  7  9 -1 -1</clus>
<clus scale="  160.463">  1  5  2 -1</clus>
</clustering>
</event>
<event>
 9    2  0.4178938E-005  0.5807923E+03  0.7546771E-02  0.1060257E+00
         -1   -1    0    0    0  501 -0.00000000000E+00  0.00000000000E+00  0.12780802926E+04  0.12780802926E+04  0.00000000000E+00 0.  1.
         21   -1    0    0  501  502  0.00000000000E+00 -0.00000000000E+00 -0.14164355215E+03  0.14164355215E+03  0.00000000000E+00 0.  1.
         24    2    1    2    0    0 -0.12418791152E+02  0.14006768392E+01  0.66957270446E+03  0.67455158537E+03  0.80845819339E+02 0.  0.
         23    2    1    2    0    0  0.22823359792E+03  0.13932003484E+03  0.38224380916E+03  0.47399163268E+03  0.84006493069E+02 0.  0.
        -13    1    3    3    0    0 -0.65091955667E+01 -0.33176604827E+02  0.14852590995E+03  0.15232531851E+03  0.00000000000E+00 0.  1.
         14    1    3    3    0    0 -0.59095955856E+01  0.34577281666E+02  0.52104679451E+03  0.52222626686E+03  0.00000000000E+00 0. -1.
        -11    1    4    4    0    0  0.18930765377E+03  0.11267939654E+03  0.24809124419E+03  0.33178803418E+03  0.00000000000E+00 0.  1.
         11    1    4    4    0    0  0.38925944149E+02  0.26640638293E+02  0.13415256497E+03  0.14220359849E+03  0.00000000000E+00 0. -1.
         -2    1    1    2    0  502 -0.21581480677E+03 -0.14072071168E+03  0.84620226828E+02  0.27118062671E+03  0.00000000000E+00 0.  1.
<scales pt_clust_5="13000.00000" pt_clust_6="13000.00000" pt_clust_7="13000.00000" pt_clust_8="13000.00000" pt_clust_9="13000.00000"></scales>
<clustering>
<clus scale="   80.846">  5  6 -1 -1</clus>
<clus scale="   81.806">  1  5  2 -1</clus>
<clus scale="   84.006">  7  8 -1 -1</clus>
<clus scale="  260.480">  7  9 -1 -1</clus>
<clus scale="  580.792">  2  5  1 -1</clus>
</clustering>
</event>
<event>
 9    2  0.4178938E-005  0.2735333E+03  0.7546771E-02  0.1136127E+00
          2   -1    0    0  502    0 -0.00000000000E+00  0.00000000000E+00  0.78366059727E+03  0.78366059727E+03  0.00000000000E+00 0. -1.
         21   -1    0    0  501  502  0.00000000000E+00 -0.00000000000E+00 -0.63843692082E+02  0.63843692082E+02  0.00000000000E+00 0. -1.
         24    2    1    2    0    0 -0.71511126034E+02  0.20377413546E+02  0.45155615540E+03  0.46437993039E+03  0.78845913892E+02 0.  0.
         23    2    1    2    0    0 -0.67920872027E+02 -0.28853658518E+02  0.19018898152E+03  0.22309833042E+03  0.90306355679E+02 0.  0.
        -13    1    3    3    0    0  0.56045039677E+01  0.24124942672E+02  0.54174962783E+02  0.59568027634E+02  0.00000000000E+00 0.  1.
         14    1    3    3    0    0 -0.77115630002E+02 -0.37475291262E+01  0.39738119262E+03  0.40481190275E+03  0.00000000000E+00 0. -1.
        -11    1    4    4    0    0 -0.90452450953E+02 -0.23634454009E+02  0.15336712807E+03  0.17961544831E+03  0.00000000000E+00 0. -1.
         11    1    4    4    0    0  0.22531578926E+02 -0.52192045086E+01  0.36821853455E+02  0.43482882109E+02  0.00000000000E+00 0.  1.
          1    1    1    2  501    0  0.13943199806E+03  0.84762449718E+01  0.78071768263E+02  0.16002602854E+03  0.00000000000E+00 0. -1.
<scales pt_clust_5="13000.00000" pt_clust_6="13000.00000" pt_clust_7="13000.00000" pt_clust_8="13000.00000" pt_clust_9="13000.00000"></scales>
<clustering>
<clus scale="   78.846">  5  6 -1 -1</clus>
<clus scale="   90.306">  7  8 -1 -1</clus>
<clus scale="  108.378">  1  5  2 -1</clus>
<clus scale="  114.407">  7  9 -1 -1</clus>
<clus scale="  273.533">  2  5  1 -1</clus>
</clustering>
</event>
<event>
 9    2  0.4178938E-005  0.7985413E+03  0.7546771E-02  0.1017564E+00
          2   -1    0    0  502    0 -0.00000000000E+00  0.00000000000E+00  0.19174958372E+04  0.19174958372E+04  0.00000000000E+00 0. -1.
         21   -1    0    0  501  502  0.00000000000E+00 -0.00000000000E+00 -0.11049115916E+03  0.11049115916E+03  0.00000000000E+00 0. -1.
         24    2    1    2    0    0 -0.64810156723E+02 -0.33419620300E+02  0.34766942958E+03  0.36445835300E+03  0.81477796807E+02 0.  0.
         23    2    1    2    0    0 -0.10729635514E+03  0.37172299317E+03  0.55271875078E+03  0.68066380149E+03  0.90081639213E+02 0.  0.
        -13    1    3    3    0    0 -0.17907385712E+02 -0.48338391464E+02  0.10652144181E+03  0.11833888675E+03  0.00000000000E+00 0.  1.
         14    1    3    3    0    0 -0.46902771011E+02  0.14918771163E+02  0.24114798777E+03  0.24611946625E+03  0.00000000000E+00 0. -1.
        -13    1    4    4    0    0 -0.60963981106E+02  0.12548410159E+03  0.26233471746E+03  0.29712349407E+03  0.00000000000E+00 0. -1.
         13    1    4    4    0    0 -0.46332374031E+02  0.24623889158E+03  0.29038403331E+03  0.38354030742E+03  0.00000000000E+00 0.  1.
          1    1    1    2  501    0  0.17210651186E+03 -0.33830337287E+03  0.90661649769E+03  0.98286484188E+03  0.00000000000E+00 0. -1.
<scales pt_clust_5="13000.00000" pt_clust_6="13000.00000" pt_clust_7="13000.00000" pt_clust_8="13000.00000" pt_clust_9="13000.00000"></scales>
<clustering>
<clus scale="   81.478">  5  6 -1 -1</clus>
<clus scale="   90.082">  7  8 -1 -1</clus>
<clus scale="  109.343">  1  5  2 -1</clus>
<clus scale="  382.361">  7  9 -1 -1</clus>
<clus scale="  798.541">  2  5  1 -1</clus>
</clustering>
</event>
<event>
 9    2  0.4178938E-005  0.4635058E+03  0.7546771E-02  0.1037888E+00
          2   -1    0    0  502    0 -0.00000000000E+00  0.00000000000E+00  0.47079526362E+03  0.47079526362E+03  0.00000000000E+00 0. -1.
         21   -1    0    0  501  502  0.00000000000E+00 -0.00000000000E+00 -0.33763078307E+03  0.33763078307E+03  0.00000000000E+00 0. -1.
         24    2    1    2    0    0 -0.21740105012E+03  0.19785943059E+03  0.15934995334E+03  0.34418115167E+03  0.81588520443E+02 0.  0.
         23    2    1    2    0    0 -0.86677895972E+01  0.61785755658E+02  0.30185283840E+02  0.11538904336E+03  0.92254375444E+02 0.  0.
        -11    1    3    3    0    0 -0.15958384045E+02  0.55696944698E+02  0.22185853813E+02  0.62040565596E+02  0.00000000000E+00 0.  1.
         12    1    3    3    0    0 -0.20144266608E+03  0.14216248589E+03  0.13716409953E+03  0.28214058607E+03  0.00000000000E+00 0. -1.
        -13    1    4    4    0    0 -0.66247434255E+00  0.80121767744E+02  0.11558986832E+01  0.80132843706E+02  0.00000000000E+00 0.  1.
         13    1    4    4    0    0 -0.80053152546E+01 -0.18336012086E+02  0.29029385156E+02  0.35256199655E+02  0.00000000000E+00 0. -1.
          1    1    1    2  501    0  0.22606883972E+03 -0.25964518625E+03 -0.56370756623E+02  0.34885585166E+03  0.00000000000E+00 0. -1.
<scales pt_clust_5="13000.00000" pt_clust_6="13000.00000" pt_clust_7="13000.00000" pt_clust_8="13000.00000" pt_clust_9="13000.00000"></scales>
<clustering>
<clus scale="   81.589">  5  6 -1 -1</clus>
<clus scale="   92.254">  7  8 -1 -1</clus>
<clus scale="  305.071">  1  5  2 -1</clus>
<clus scale="  151.039">  7  9 -1 -1</clus>
<clus scale="  463.506">  2  5  1 -1</clus>
</clustering>
</event>
<event>
 9    2  0.4178938E-005  0.3905256E+03  0.7546771E-02  0.1070471E+00
         21   -1    0    0  501  502  0.00000000000E+00  0.00000000000E+00  0.46303851751E+03  0.46303851751E+03  0.00000000000E+00 0.  1.
          2   -1    0    0  502    0 -0.00000000000E+00 -0.00000000000E+00 -0.19155870640E+03  0.19155870640E+03  0.00000000000E+00 0. -1.
         24    2    1    2    0    0 -0.18584866688E+03  0.43458840964E+01  0.65621775820E+02  0.21313630781E+03  0.81007743792E+02 0.  0.
         23    2    1    2    0    0  0.12134894982E+03 -0.15331972962E+03  0.13090636485E+03  0.26265606983E+03  0.11670144620E+03 0.  0.
        -13    1    3    3    0    0 -0.13907152048E+03 -0.27975845417E+02  0.27006148017E+02  0.14440522070E+03  0.00000000000E+00 0.  1.
         14    1    3    3    0    0 -0.46777146403E+02  0.32321729514E+02  0.38615627803E+02  0.68731087108E+02  0.00000000000E+00 0. -1.
        -11    1    4    4    0    0  0.10584908961E+03 -0.10519050418E+03  0.14712146122E+03  0.20955618886E+03  0.00000000000E+00 0.  1.
         11    1    4    4    0    0  0.15499860207E+02 -0.48129225442E+02 -0.16215096365E+02  0.53099880962E+02  0.00000000000E+00 0. -1.
          1    1    1    2  501    0  0.64499717061E+02  0.14897384552E+03  0.74951670432E+02  0.17880484627E+03  0.00000000000E+00 0. -1.
<scales pt_clust_5="13000.00000" pt_clust_6="13000.00000" pt_clust_7="13000.00000" pt_clust_8="13000.00000" pt_clust_9="13000.00000"></scales>
<clustering>
<clus scale="   81.008">  5  6 -1 -1</clus>
<clus scale="  116.701">  7  8 -1 -1</clus>
<clus scale="  162.337">  7  9 -1 -1</clus>
<clus scale="  202.783">  2  5  1 -1</clus>
<clus scale="  390.526">  1  5  2 -1</clus>
</clustering>
</event>
<event>
 9    2  0.4178938E-005  0.3502352E+03  0.7546771E-02  0.1110273E+00
          2   -1    0    0  502    0 -0.00000000000E+00  0.00000000000E+00  0.91100071032E+02  0.91100071032E+02  0.00000000000E+00 0. -1.
         21   -1    0    0  501  502  0.00000000000E+00 -0.00000000000E+00 -0.60634765004E+03  0.60634765004E+03  0.00000000000E+00 0. -1.
         24    2    1    2    0    0  0.56207518322E+02  0.10337630458E+01 -0.37595072545E+02  0.10515000711E+03  0.80515717313E+02 0.  0.
         23    2    1    2    0    0  0.45020517446E+02  0.14101191202E+03 -0.19504964032E+03  0.26020063631E+03  0.88027283397E+02 0.  0.
        -13    1    3    3    0    0  0.48886194494E+01  0.23197590600E+02  0.15279693651E+02  0.28204535944E+02  0.00000000000E+00 0.  1.
         14    1    3    3    0    0  0.51318898872E+02 -0.22163827554E+02 -0.52874766195E+02  0.76945471170E+02  0.00000000000E+00 0. -1.
        -11    1    4    4    0    0  0.54496477611E+02  0.11055762783E+03 -0.19200132022E+03  0.22816082510E+03  0.00000000000E+00 0.  1.
         11    1    4    4    0    0 -0.94759601656E+01  0.30454284194E+02 -0.30483200986E+01  0.32039811208E+02  0.00000000000E+00 0. -1.
          1    1    1    2  501    0 -0.10122803577E+03 -0.14204567507E+03 -0.28260286614E+03  0.33209707765E+03  0.00000000000E+00 0. -1.
<scales pt_clust_5="13000.00000" pt_clust_6="13000.00000" pt_clust_7="13000.00000" pt_clust_8="13000.00000" pt_clust_9="13000.00000"></scales>
<clustering>
<clus scale="   80.516">  5  6 -1 -1</clus>
<clus scale="   88.027">  7  8 -1 -1</clus>
<clus scale="   98.199">  1  5  2 -1</clus>
<clus scale="  161.163">  7  9 -1 -1</clus>
<clus scale="  350.235">  2  5  1 -1</clus>
</clustering>
</event>
<event>
 9    2  0.4178938E-005  0.2610817E+03  0.7546771E-02  0.1146316E+00
         21   -1    0    0  501  502  0.00000000000E+00  0.00000000000E+00  0.67363224251E+02  0.67363224251E+02  0.00000000000E+00 0. -1.
          2   -1    0    0  502    0 -0.00000000000E+00 -0.00000000000E+00 -0.96964403403E+03  0.96964403403E+03  0.00000000000E+00 0. -1.
         24    2    1    2    0    0  0.30019221993E+02  0.48423022924E+02 -0.69992391048E+03  0.70668622571E+03  0.79158059051E+02 0.  0.
         23    2    1    2    0    0 -0.24020454360E+02  0.38222596598E+02  0.48929495632E+01  0.10560799679E+03  0.95347568988E+02 0.  0.
        -13    1    3    3    0    0  0.27892465552E+02  0.35250480898E+01 -0.74163208209E+02  0.79313284199E+02  0.00000000000E+00 0.  1.
         14    1    3    3    0    0  0.21267564415E+01  0.44897974834E+02 -0.62576070227E+03  0.62737294151E+03  0.00000000000E+00 0. -1.
        -11    1    4    4    0    0 -0.33528623319E+02  0.18557402672E+02 -0.40177869109E+02  0.55523030733E+02  0.00000000000E+00 0.  1.
         11    1    4    4    0    0  0.95081689593E+01  0.19665193926E+02  0.45070818672E+02  0.50084966056E+02  0.00000000000E+00 0. -1.
          1    1    1    2  501    0 -0.59987676331E+01 -0.86645619521E+02 -0.20724984886E+03  0.22471303578E+03  0.00000000000E+00 0. -1.
<scales pt_clust_5="13000.00000" pt_clust_6="13000.00000" pt_clust_7="13000.00000" pt_clust_8="13000.00000" pt_clust_9="13000.00000"></scales>
<clustering>
<clus scale="   79.158">  5  6 -1 -1</clus>
<clus scale="   95.348">  7  8 -1 -1</clus>
<clus scale="   86.853">  7  9 -1 -1</clus>
<clus scale="   97.529">  2  5  1 -1</clus>
<clus scale="  261.082">  1  5  2 -1</clus>
</clustering>
</event>
<event>
 9    2  0.4178938E-005  0.1901067E+03  0.7546771E-02  0.1195880E+00
          4   -1    0    0  502    0 -0.00000000000E+00  0.00000000000E+00  0.31152635329E+03  0.31152635329E+03  0.00000000000E+00 0. -1.
         21   -1    0    0  501  502  0.00000000000E+00 -0.00000000000E+00 -0.76237469231E+02  0.76237469231E+02  0.00000000000E+00 0.  1.
         24    2    1    2    0    0  0.52891904005E+01  0.10637203571E+02  0.16693809713E+03  0.18574307659E+03  0.80566969619E+02 0.  0.
         23    2    1    2    0    0  0.58371909076E+02 -0.23523033251E+01  0.23834710064E+01  0.10997150949E+03  0.93140962343E+02 0.  0.
        -13    1    3    3    0    0 -0.27489238281E+02 -0.23964255635E+01  0.18620594785E+02  0.33288550988E+02  0.00000000000E+00 0.  1.
         14    1    3    3    0    0  0.32778428682E+02  0.13033629134E+02  0.14831750234E+03  0.15245452560E+03  0.00000000000E+00 0. -1.
        -13    1    4    4    0    0  0.49028297947E+02 -0.34046065788E+02 -0.27223593636E+02  0.65605126672E+02  0.00000000000E+00 0.  1.
         13    1    4    4    0    0  0.93436111293E+01  0.31693762462E+02  0.29607064642E+02  0.44366382822E+02  0.00000000000E+00 0. -1.
          3    1    1    2  501    0 -0.63661099476E+02 -0.82849002455E+01  0.65967315929E+02  0.92049236442E+02  0.00000000000E+00 0. -1.
<scales pt_clust_5="13000.00000" pt_clust_6="13000.00000" pt_clust_7="13000.00000" pt_clust_8="13000.00000" pt_clust_9="13000.00000"></scales>
<clustering>
<clus scale="   80.567">  5  6 -1 -1</clus>
<clus scale="   81.438">  1  5  2 -1</clus>
<clus scale="   93.141">  7  8 -1 -1</clus>
<clus scale="   60.605">  7  9 -1 -1</clus>
<clus scale="  190.107">  2  5  1 -1</clus>
</clustering>
</event>
<event>
 9    2  0.4178938E-005  0.2066672E+03  0.7546771E-02  0.1183466E+00
          2   -1    0    0  502    0 -0.00000000000E+00  0.00000000000E+00  0.20565188376E+03  0.20565188376E+03  0.00000000000E+00 0. -1.
         21   -1    0    0  501  502  0.00000000000E+00 -0.00000000000E+00 -0.36808833057E+03  0.36808833057E+03  0.00000000000E+00 0.  1.
         24    2    1    2    0    0  0.13726686008E+02 -0.10817163503E+02  0.16595147866E+03  0.18573253259E+03  0.81555180455E+02 0.  0.
         23    2    1    2    0    0  0.45539749929E+02 -0.36248868518E+02 -0.27179038533E+03  0.29350369585E+03  0.94268534651E+02 0.  0.
        -11    1    3    3    0    0 -0.37227908959E+00 -0.35773593664E+02  0.29695338593E+02  0.46494104244E+02  0.00000000000E+00 0.  1.
         12    1    3    3    0    0  0.14098965098E+02  0.24956430161E+02  0.13625614007E+03  0.13923842835E+03  0.00000000000E+00 0. -1.
        -13    1    4    4    0    0  0.74165292988E+02 -0.19791215578E+02 -0.17089449641E+03  0.18734223176E+03  0.00000000000E+00 0.  1.
         13    1    4    4    0    0 -0.28625543059E+02 -0.16457652940E+02 -0.10089588893E+03  0.10616146409E+03  0.00000000000E+00 0. -1.
          1    1    1    2  501    0 -0.59266435937E+02  0.47066032021E+02 -0.56597540138E+02  0.94503985887E+02  0.00000000000E+00 0. -1.
<scales pt_clust_5="13000.00000" pt_clust_6="13000.00000" pt_clust_7="13000.00000" pt_clust_8="13000.00000" pt_clust_9="13000.00000"></scales>
<clustering>
<clus scale="   81.555">  5  6 -1 -1</clus>
<clus scale="   83.407">  1  5  2 -1</clus>
<clus scale="   94.269">  7  8 -1 -1</clus>
<clus scale="   64.570">  7  9 -1 -1</clus>
<clus scale="  206.667">  2  5  1 -1</clus>
</clustering>
</event>
<event>
 9    2  0.4178938E-005  0.1727223E+03  0.7546771E-02  0.1193087E+00
         21   -1    0    0  501  502  0.00000000000E+00  0.00000000000E+00  0.10121306975E+03  0.10121306975E+03  0.00000000000E+00 0.  1.
         -1   -1    0    0    0  501 -0.00000000000E+00 -0.00000000000E+00 -0.20882229768E+03  0.20882229768E+03  0.00000000000E+00 0.  1.
         24    2    1    2    0    0  0.84773169889E+02  0.12480376433E+02 -0.63557657882E+02  0.13178408239E+03  0.77364193053E+02 0.  0.
         23    2    1    2    0    0 -0.97127529127E+01 -0.30389325640E+02 -0.31265275913E+02  0.10003181192E+03  0.89504174407E+02 0.  0.
        -13    1    3    3    0    0  0.41000151190E+02 -0.42029870673E+01 -0.73155235243E+02  0.83966457240E+02  0.00000000000E+00 0.  1.
         14    1    3    3    0    0  0.43773018699E+02  0.16683363500E+02  0.95975773613E+01  0.47817625149E+02  0.00000000000E+00 0. -1.
        -13    1    4    4    0    0  0.74186788035E+01  0.23593873825E+02 -0.35467897109E+02  0.43239789576E+02  0.00000000000E+00 0. -1.
         13    1    4    4    0    0 -0.17131431716E+02 -0.53983199464E+02  0.42026211960E+01  0.56792022345E+02  0.00000000000E+00 0.  1.
         -2    1    1    2    0  502 -0.75060416976E+02  0.17908949207E+02 -0.12786294136E+02  0.78219473126E+02  0.00000000000E+00 0.  1.
<scales pt_clust_5="13000.00000" pt_clust_6="13000.00000" pt_clust_7="13000.00000" pt_clust_8="13000.00000" pt_clust_9="13000.00000"></scales>
<clustering>
<clus scale="   77.364">  5  6 -1 -1</clus>
<clus scale="   89.504">  7  8 -1 -1</clus>
<clus scale="   77.167">  7  9 -1 -1</clus>
<clus scale="  115.445">  2  5  1 -1</clus>
<clus scale="  172.722">  1  5  2 -1</clus>
</clustering>
</event>
<event>
 9    2  0.4178938E-005  0.4957961E+03  0.7546771E-02  0.1068645E+00
         -1   -1    0    0    0  501 -0.00000000000E+00  0.00000000000E+00  0.15700357710E+04  0.15700357710E+04  0.00000000000E+00 0.  1.
         21   -1    0    0  501  502  0.00000000000E+00 -0.00000000000E+00 -0.62889806567E+02  0.62889806567E+02  0.00000000000E+00 0.  1.
         24    2    1    2    0    0  0.65096802712E+02  0.21999111877E+01  0.11528051874E+03  0.15539278088E+03  0.81331943383E+02 0.  0.
         23    2    1    2    0    0  0.18110690789E+03  0.54900245945E+02  0.37868248860E+03  0.43330274560E+03  0.92396391056E+02 0.  0.
        -11    1    3    3    0    0  0.51828200923E+02  0.29560402280E+02  0.34141966357E+02  0.68743389941E+02  0.00000000000E+00 0.  1.
         12    1    3    3    0    0  0.13268601789E+02 -0.27360491092E+02  0.81138552386E+02  0.86649390936E+02  0.00000000000E+00 0. -1.
        -11    1    4    4    0    0  0.70219772004E+02 -0.10856488488E+02  0.74612932582E+02  0.10303285608E+03  0.00000000000E+00 0. -1.
         11    1    4    4    0    0  0.11088713589E+03  0.65756734433E+02  0.30406955602E+03  0.33026988953E+03  0.00000000000E+00 0.  1.
         -2    1    1    2    0  502 -0.24620371061E+03 -0.57100157133E+02  0.10131829571E+04  0.10442300511E+04  0.00000000000E+00 0.  1.
<scales pt_clust_5="13000.00000" pt_clust_6="13000.00000" pt_clust_7="13000.00000" pt_clust_8="13000.00000" pt_clust_9="13000.00000"></scales>
<clustering>
<clus scale="   81.332">  5  6 -1 -1</clus>
<clus scale="   92.396">  7  8 -1 -1</clus>
<clus scale="  104.199">  1  5  2 -1</clus>
<clus scale="  207.109">  7  9 -1 -1</clus>
<clus scale="  495.796">  2  5  1 -1</clus>
</clustering>
</event>
<event>
 9    2  0.4178938E-005  0.2373660E+03  0.7546771E-02  0.1158183E+00
         21   -1    0    0  501  502  0.00000000000E+00  0.00000000000E+00  0.57782761731E+02  0.57782761731E+02  0.00000000000E+00 0.  1.
          2   -1    0    0  502    0 -0.00000000000E+00 -0.00000000000E+00 -0.67852723440E+03  0.67852723440E+03  0.00000000000E+00 0. -1.
         24    2    1    2    0    0 -0.54366766243E+02  0.14727518734E+02 -0.40108113353E+03  0.41289913189E+03  0.80293040571E+02 0.  0.
         23    2    1    2    0    0 -0.61053928493E+02 -0.40640285065E+02 -0.81712631141E+02  0.14168633076E+03  0.89548016618E+02 0.  0.
        -13    1    3    3    0    0 -0.23446394807E+02 -0.14451974163E+02 -0.35883623788E+02  0.45235245581E+02  0.00000000000E+00 0.  1.
         14    1    3    3    0    0 -0.30920371436E+02  0.29179492897E+02 -0.36519750974E+03  0.36766388631E+03  0.00000000000E+00 0. -1.
        -11    1    4    4    0    0  0.12187093696E+02 -0.19866117847E+02 -0.57104928281E+02  0.61677878733E+02  0.00000000000E+00 0. -1.
         11    1    4    4    0    0 -0.73241022189E+02 -0.20774167219E+02 -0.24607702859E+02  0.80008452022E+02  0.00000000000E+00 0.  1.
          1    1    1    2  501    0  0.11542069474E+03  0.25912766332E+02 -0.13795070800E+03  0.18172453348E+03  0.00000000000E+00 0. -1.
<scales pt_clust_5="13000.00000" pt_clust_6="13000.00000" pt_clust_7="13000.00000" pt_clust_8="13000.00000" pt_clust_9="13000.00000"></scales>
<clustering>
<clus scale="   80.293">  5  6 -1 -1</clus>
<clus scale="   89.548">  7  8 -1 -1</clus>
<clus scale="   98.080">  2  5  1 -1</clus>
<clus scale="   90.302">  7  9 -1 -1</clus>
<clus scale="  237.366">  1  5  2 -1</clus>
</clustering>
</event>
<event>
 9    2  0.4178938E-005  0.2796110E+03  0.7546771E-02  0.1127140E+00
          2   -1    0    0  502    0 -0.00000000000E+00  0.00000000000E+00  0.53449209596E+03  0.53449209596E+03  0.00000000000E+00 0. -1.
         21   -1    0    0  501  502  0.00000000000E+00 -0.00000000000E+00 -0.77181441863E+02  0.77181441863E+02  0.00000000000E+00 0. -1.
         24    2    1    2    0    0  0.98473109174E+02 -0.70592220158E-01  0.13439923299E+03  0.18452708274E+03  0.79310353801E+02 0.  0.
         23    2    1    2    0    0 -0.73336927282E+02  0.11172186186E+03  0.22279545265E+03  0.27509041019E+03  0.90425885311E+02 0.  0.
        -11    1    3    3    0    0  0.53807548970E+02 -0.37966744449E+01  0.13525790246E+02  0.55611276417E+02  0.00000000000E+00 0.  1.
         12    1    3    3    0    0  0.44665560204E+02  0.37260822247E+01  0.12087344275E+03  0.12891580632E+03  0.00000000000E+00 0. -1.
        -13    1    4    4    0    0 -0.59007213306E+02  0.21071906620E+02  0.13137206153E+03  0.14554894373E+03  0.00000000000E+00 0.  1.
         13    1    4    4    0    0 -0.14329713976E+02  0.90649955238E+02  0.91423391125E+02  0.12954146646E+03  0.00000000000E+00 0. -1.
          1    1    1    2  501    0 -0.25136181892E+02 -0.11165126964E+03  0.10011596845E+03  0.15205604490E+03  0.00000000000E+00 0. -1.
<scales pt_clust_5="13000.00000" pt_clust_6="13000.00000" pt_clust_7="13000.00000" pt_clust_8="13000.00000" pt_clust_9="13000.00000"></scales>
<clustering>
<clus scale="   79.310">  5  6 -1 -1</clus>
<clus scale="   90.426">  7  8 -1 -1</clus>
<clus scale="  114.446">  7  9 -1 -1</clus>
<clus scale="  126.440">  1  5  2 -1</clus>
<clus scale="  279.611">  2  5  1 -1</clus>
</clustering>
</event>
<event>
 9    2  0.4178938E-005  0.2300131E+03  0.7546771E-02  0.1167368E+00
         21   -1    0    0  501  502  0.00000000000E+00  0.00000000000E+00  0.12737939331E+04  0.12737939331E+04  0.00000000000E+00 0.  1.
         -1   -1    0    0    0  501 -0.00000000000E+00 -0.00000000000E+00 -0.59442594271E+02  0.59442594271E+02  0.00000000000E+00 0.  1.
         24    2    1    2    0    0  0.37158619717E+02  0.21001105922E+01 -0.97850070442E+01  0.87678092920E+02  0.78781521510E+02 0.  0.
         23    2    1    2    0    0  0.67179531716E+02 -0.29687875269E+02  0.44625852489E+03  0.46022956131E+03  0.85264990769E+02 0.  0.
        -11    1    3    3    0    0  0.27937972679E+02 -0.13373576774E+02 -0.41152625238E+02  0.51506518394E+02  0.00000000000E+00 0.  1.
         12    1    3    3    0    0  0.92206470383E+01  0.15473687366E+02  0.31367618194E+02  0.36171574526E+02  0.00000000000E+00 0. -1.
        -13    1    4    4    0    0  0.11498620842E+02  0.24407178609E+02  0.54024485402E+02  0.60386866716E+02  0.00000000000E+00 0. -1.
         13    1    4    4    0    0  0.55680910875E+02 -0.54095053878E+02  0.39223403949E+03  0.39984269460E+03  0.00000000000E+00 0.  1.
         -2    1    1    2    0  502 -0.10433815143E+03  0.27587764677E+02  0.77787782102E+03  0.78532887318E+03  0.00000000000E+00 0.  1.
<scales pt_clust_5="13000.00000" pt_clust_6="13000.00000" pt_clust_7="13000.00000" pt_clust_8="13000.00000" pt_clust_9="13000.00000"></scales>
<clustering>
<clus scale="   78.782">  5  6 -1 -1</clus>
<clus scale="   85.265">  7  8 -1 -1</clus>
<clus scale="   87.130">  2  5  1 -1</clus>
<clus scale="   95.699">  7  9 -1 -1</clus>
<clus scale="  230.013">  1  5  2 -1</clus>
</clustering>
</event>
<event>
 9    2  0.4178938E-005  0.2891074E+03  0.7546771E-02  0.1112891E+00
         21   -1    0    0  501  502  0.00000000000E+00  0.00000000000E+00  0.35946721431E+03  0.35946721431E+03  0.00000000000E+00 0.  1.
          2   -1    0    0  502    0 -0.00000000000E+00 -0.00000000000E+00 -0.44059492070E+03  0.44059492070E+03  0.00000000000E+00 0. -1.
         24    2    1    2    0    0  0.32706736155E+02  0.13936338246E+03  0.28805396501E+03  0.33115041377E+03  0.78699598620E+02 0.  0.
         23    2    1    2    0    0 -0.23550273494E+01  0.70620295712E+01 -0.26165068679E+02  0.94716561933E+02  0.90725949264E+02 0.  0.
        -11    1    3    3    0    0  0.33213546897E+02  0.11724733098E+03  0.15959202578E+03  0.20079763696E+03  0.00000000000E+00 0.  1.
         12    1    3    3    0    0 -0.50681074199E+00  0.22116051484E+02  0.12846193923E+03  0.13035277680E+03  0.00000000000E+00 0. -1.
        -11    1    4    4    0    0 -0.30866852963E+02  0.37674304639E+02 -0.91563051495E+01  0.49557580307E+02  0.00000000000E+00 0. -1.
         11    1    4    4    0    0  0.28511825613E+02 -0.30612275068E+02 -0.17008763530E+02  0.45158981626E+02  0.00000000000E+00 0.  1.
          1    1    1    2  501    0 -0.30351708806E+02 -0.14642541203E+03 -0.34301660271E+03  0.37419515931E+03  0.00000000000E+00 0. -1.
<scales pt_clust_5="13000.00000" pt_clust_6="13000.00000" pt_clust_7="13000.00000" pt_clust_8="13000.00000" pt_clust_9="13000.00000"></scales>
<clustering>
<clus scale="   78.700">  5  6 -1 -1</clus>
<clus scale="   90.726">  7  8 -1 -1</clus>
<clus scale="  149.538">  7  9 -1 -1</clus>
<clus scale="  163.357">  2  5  1 -1</clus>
<clus scale="  289.107">  1  5  2 -1</clus>
</clustering>
</event>
<event>
 9    2  0.4178938E-005  0.1669679E+03  0.7546771E-02  0.1192526E+00
         21   -1    0    0  501  502  0.00000000000E+00  0.00000000000E+00  0.16542075810E+03  0.16542075810E+03  0.00000000000E+00 0.  1.
         -1   -1    0    0    0  501 -0.00000000000E+00 -0.00000000000E+00 -0.32075094955E+03  0.32075094955E+03  0.00000000000E+00 0.  1.
         24    2    1    2    0    0 -0.37398590129E+02 -0.91955991065E+02 -0.25908414772E+03  0.28959308328E+03  0.82975896780E+02 0.  0.
         23    2    1    2    0    0  0.22873136405E+02  0.39559289316E+02  0.32912434103E+02  0.10727619203E+03  0.91306272064E+02 0.  0.
        -13    1    3    3    0    0 -0.13813518828E+02 -0.45265397310E+02 -0.21800186703E+03  0.22307976942E+03  0.00000000000E+00 0.  1.
         14    1    3    3    0    0 -0.23585071301E+02 -0.46690593755E+02 -0.41082280686E+02  0.66513313854E+02  0.00000000000E+00 0. -1.
        -13    1    4    4    0    0 -0.31681147417E+02  0.32181499546E+02  0.46600396882E+01  0.45398898496E+02  0.00000000000E+00 0. -1.
         13    1    4    4    0    0  0.54554283823E+02  0.73777897698E+01  0.28252394415E+02  0.61877293537E+02  0.00000000000E+00 0.  1.
         -2    1    1    2    0  502  0.14525453724E+02  0.52396701749E+02  0.70841522163E+02  0.89302432343E+02  0.00000000000E+00 0.  1.
<scales pt_clust_5="13000.00000" pt_clust_6="13000.00000" pt_clust_7="13000.00000" pt_clust_8="13000.00000" pt_clust_9="13000.00000"></scales>
<clustering>
<clus scale="   82.976">  5  6 -1 -1</clus>
<clus scale="   91.306">  7  8 -1 -1</clus>
<clus scale="   54.373">  7  9 -1 -1</clus>
<clus scale="  129.381">  2  5  1 -1</clus>
<clus scale="  166.968">  1  5  2 -1</clus>
</clustering>
</event>
<event>
 9    2  0.4178938E-005  0.1816434E+03  0.7546771E-02  0.1196825E+00
         21   -1    0    0  501  502  0.00000000000E+00  0.00000000000E+00  0.91079439023E+02  0.91079439023E+02  0.00000000000E+00 0.  1.
          2   -1    0    0  502    0 -0.00000000000E+00 -0.00000000000E+00 -0.30867973994E+03  0.30867973994E+03  0.00000000000E+00 0. -1.
         24    2    1    2    0    0 -0.10043904004E+01 -0.32937286692E+02 -0.19669619116E+03  0.21691691305E+03  0.85309330641E+02 0.  0.
         23    2    1    2    0    0 -0.35885228872E+02  0.19843631655E+02  0.41254249843E+02  0.10938513910E+03  0.92637336731E+02 0.  0.
        -11    1    3    3    0    0  0.10901676154E+02  0.18024721873E+02 -0.10560604345E+02  0.23564029912E+02  0.00000000000E+00 0.  1.
         12    1    3    3    0    0 -0.11906066555E+02 -0.50962008565E+02 -0.18613558682E+03  0.19335288314E+03  0.00000000000E+00 0. -1.
        -13    1    4    4    0    0 -0.45970568130E+02  0.40047379603E+02 -0.15524045748E+01  0.60987668485E+02  0.00000000000E+00 0.  1.
         13    1    4    4    0    0  0.10085339258E+02 -0.20203747948E+02  0.42806654418E+02  0.48397470611E+02  0.00000000000E+00 0. -1.
          1    1    1    2  501    0  0.36889619272E+02  0.13093655037E+02 -0.62158359600E+02  0.73457126819E+02  0.00000000000E+00 0. -1.
<scales pt_clust_5="13000.00000" pt_clust_6="13000.00000" pt_clust_7="13000.00000" pt_clust_8="13000.00000" pt_clust_9="13000.00000"></scales>
<clustering>
<clus scale="   85.309">  5  6 -1 -1</clus>
<clus scale="   91.452">  2  5  1 -1</clus>
<clus scale="   92.637">  7  8 -1 -1</clus>
<clus scale="   37.282">  7  9 -1 -1</clus>
<clus scale="  181.643">  1  5  2 -1</clus>
</clustering>
</event>
<event>
 9    2  0.4178938E-005  0.5231671E+03  0.7546771E-02  0.1072676E+00
         -1   -1    0    0    0  501 -0.00000000000E+00  0.00000000000E+00  0.74339322955E+03  0.74339322955E+03  0.00000000000E+00 0.  1.
         21   -1    0    0  501  502  0.00000000000E+00 -0.00000000000E+00 -0.13855440321E+03  0.13855440321E+03  0.00000000000E+00 0.  1.
         24    2    1    2    0    0 -0.27522140346E+01 -0.18837634870E+01  0.21591653784E+03  0.23005476108E+03  0.79335480942E+02 0.  0.
         23    2    1    2    0    0 -0.23685729409E+03  0.87770164281E+02  0.19277567793E+03  0.33054775648E+03  0.91073474794E+02 0.  0.
        -11    1    3    3    0    0  0.17562096897E+02  0.31240619405E+02  0.14309442429E+03  0.14751412750E+03  0.00000000000E+00 0.  1.
         12    1    3    3    0    0 -0.20314310932E+02 -0.33124382892E+02  0.72822113552E+02  0.82540633586E+02  0.00000000000E+00 0. -1.
        -11    1    4    4    0    0 -0.61907759665E+02 -0.17093847348E+02  0.53157642371E+02  0.83369690333E+02  0.00000000000E+00 0. -1.
         11    1    4    4    0    0 -0.17494953443E+03  0.10486401163E+03  0.13961803556E+03  0.24717806615E+03  0.00000000000E+00 0.  1.
         -2    1    1    2    0  502  0.23960950813E+03 -0.85886400794E+02  0.19614661057E+03  0.32134511520E+03  0.00000000000E+00 0.  1.
<scales pt_clust_5="13000.00000" pt_clust_6="13000.00000" pt_clust_7="13000.00000" pt_clust_8="13000.00000" pt_clust_9="13000.00000"></scales>
<clustering>
<clus scale="   79.335">  5  6 -1 -1</clus>
<clus scale="   79.406">  1  5  2 -1</clus>
<clus scale="   91.073">  7  8 -1 -1</clus>
<clus scale="  253.569">  7  9 -1 -1</clus>
<clus scale="  523.167">  2  5  1 -1</clus>
</clustering>
</event>
<event>
 9    2  0.4178938E-005  0.4782572E+03  0.7546771E-02  0.1070709E+00
         21   -1    0    0  501  502  0.00000000000E+00  0.00000000000E+00  0.17595041889E+03  0.17595041889E+03  0.00000000000E+00 0. -1.
          2   -1    0    0  502    0 -0.00000000000E+00 -0.00000000000E+00 -0.57210022280E+03  0.57210022280E+03  0.00000000000E+00 0. -1.
         24    2    1    2    0    0 -0.74597891858E+02  0.14369874001E+02 -0.20599292802E+03  0.23337642638E+03  0.79120991196E+02 0.  0.
         23    2    1    2    0    0  0.11305442019E+03  0.18518967718E+03 -0.69721851860E-01  0.23640088714E+03  0.93855506619E+02 0.  0.
        -13    1    3    3    0    0 -0.28805086570E+02  0.45943518373E+01 -0.84624716610E+01  0.30371936187E+02  0.00000000000E+00 0.  1.
         14    1    3    3    0    0 -0.45792805288E+02  0.97755221637E+01 -0.19753045636E+03  0.20300449020E+03  0.00000000000E+00 0. -1.
        -11    1    4    4    0    0  0.18042574892E-01  0.83710145535E+02 -0.92409220928E+01  0.84218664393E+02  0.00000000000E+00 0. -1.
         11    1    4    4    0    0  0.11303637762E+03  0.10147953164E+03  0.91712002409E+01  0.15218222275E+03  0.00000000000E+00 0.  1.
          1    1    1    2  501    0 -0.38456528335E+02 -0.19955955118E+03 -0.19008715403E+03  0.27827332816E+03  0.00000000000E+00 0. -1.
<scales pt_clust_5="13000.00000" pt_clust_6="13000.00000" pt_clust_7="13000.00000" pt_clust_8="13000.00000" pt_clust_9="13000.00000"></scales>
<clustering>
<clus scale="   79.121">  5  6 -1 -1</clus>
<clus scale="   93.856">  7  8 -1 -1</clus>
<clus scale="  109.688">  2  5  1 -1</clus>
<clus scale="  209.411">  7  9 -1 -1</clus>
<clus scale="  478.257">  1  5  2 -1</clus>
</clustering>
</event>
<event>
 9    2  0.4178938E-005  0.2666863E+03  0.7546771E-02  0.1148154E+00
         21   -1    0    0  501  502  0.00000000000E+00  0.00000000000E+00  0.67426134771E+03  0.67426134771E+03  0.00000000000E+00 0.  1.
          2   -1    0    0  502    0 -0.00000000000E+00 -0.00000000000E+00 -0.60976714101E+02  0.60976714101E+02  0.00000000000E+00 0. -1.
         24    2    1    2    0    0  0.13027803282E+02  0.24551794037E+02  0.34884016909E+03  0.35966856748E+03  0.83063232647E+02 0.  0.
         23    2    1    2    0    0  0.10117534980E+03 -0.50195246607E+02  0.18075543526E+03  0.23168134175E+03  0.90816862712E+02 0.  0.
        -11    1    3    3    0    0 -0.87543473795E+01  0.50154291271E+02  0.25387227833E+03  0.25892706547E+03  0.00000000000E+00 0.  1.
         12    1    3    3    0    0  0.21782150661E+02 -0.25602497234E+02  0.94967890759E+02  0.10074150201E+03  0.00000000000E+00 0. -1.
        -13    1    4    4    0    0  0.11400866634E+03 -0.26970146749E+02  0.13462399541E+03  0.17846283914E+03  0.00000000000E+00 0.  1.
         13    1    4    4    0    0 -0.12833316546E+02 -0.23225099857E+02  0.46131439854E+02  0.53218502609E+02  0.00000000000E+00 0. -1.
          1    1    1    2  501    0 -0.11420315308E+03  0.25643452570E+02  0.83689029264E+02  0.14388815258E+03  0.00000000000E+00 0. -1.
<scales pt_clust_5="13000.00000" pt_clust_6="13000.00000" pt_clust_7="13000.00000" pt_clust_8="13000.00000" pt_clust_9="13000.00000"></scales>
<clustering>
<clus scale="   83.063">  5  6 -1 -1</clus>
<clus scale="   87.590">  2  5  1 -1</clus>
<clus scale="   90.817">  7  8 -1 -1</clus>
<clus scale="  114.004">  7  9 -1 -1</clus>
<clus scale="  266.686">  1  5  2 -1</clus>
</clustering>
</event>
<event>
 9    2  0.4178938E-005  0.4342403E+03  0.7546771E-02  0.1071349E+00
         21   -1    0    0  501  502  0.00000000000E+00  0.00000000000E+00  0.26601197626E+03  0.26601197626E+03  0.00000000000E+00 0. -1.
          2   -1    0    0  502    0 -0.00000000000E+00 -0.00000000000E+00 -0.53277945047E+03  0.53277945047E+03  0.00000000000E+00 0. -1.
         24    2    1    2    0    0 -0.39012499197E+01  0.11356644394E+03 -0.32992915871E+03  0.35998164032E+03  0.88436274570E+02 0.  0.
         23    2    1    2    0    0 -0.37752569161E+02  0.13823932786E+03 -0.59875397578E+01  0.17438058498E+03  0.99183514457E+02 0.  0.
        -13    1    3    3    0    0  0.29525818092E+02  0.30967326665E+02 -0.47980348875E+02  0.64287348156E+02  0.00000000000E+00 0.  1.
         14    1    3    3    0    0 -0.33427068012E+02  0.82599117273E+02 -0.28194880983E+03  0.29569429216E+03  0.00000000000E+00 0. -1.
        -11    1    4    4    0    0  0.33763122345E+02  0.42888666905E+02  0.42672792418E+01  0.54750304579E+02  0.00000000000E+00 0.  1.
         11    1    4    4    0    0 -0.71515691505E+02  0.95350660959E+02 -0.10254819000E+02  0.11963028040E+03  0.00000000000E+00 0. -1.
          1    1    1    2  501    0  0.41653819080E+02 -0.25180577180E+03  0.69149224255E+02  0.26442920144E+03  0.00000000000E+00 0. -1.
<scales pt_clust_5="13000.00000" pt_clust_6="13000.00000" pt_clust_7="13000.00000" pt_clust_8="13000.00000" pt_clust_9="13000.00000"></scales>
<clustering>
<clus scale="   88.436">  5  6 -1 -1</clus>
<clus scale="   99.184">  7  8 -1 -1</clus>
<clus scale="  143.991">  2  5  1 -1</clus>
<clus scale="  196.799">  7  9 -1 -1</clus>
<clus scale="  434.240">  1  5  2 -1</clus>
</clustering>
</event>
<event>
 9    2  0.4178938E-005  0.1915573E+03  0.7546771E-02  0.1190537E+00
         21   -1    0    0  501  502  0.00000000000E+00  0.00000000000E+00  0.34599415657E+03  0.34599415657E+03  0.00000000000E+00 0. -1.
          2   -1    0    0  502    0 -0.00000000000E+00 -0.00000000000E+00 -0.75083858963E+02  0.75083858963E+02  0.00000000000E+00 0. -1.
         24    2    1    2    0    0 -0.36155109149E+02  0.28320660664E+01  0.28779178786E+00  0.89519987509E+02  0.81844565022E+02 0.  0.
         23    2    1    2    0    0 -0.45706237433E+02  0.20981009575E+02  0.17261221646E+03  0.20165668294E+03  0.91330047619E+02 0.  0.
        -11    1    3    3    0    0  0.19956802390E+02  0.91643770419E+01  0.20007276092E+02  0.29707757654E+02  0.00000000000E+00 0.  1.
         12    1    3    3    0    0 -0.56111911540E+02 -0.63323109754E+01 -0.19719484305E+02  0.59812229854E+02  0.00000000000E+00 0. -1.
        -13    1    4    4    0    0 -0.55904505936E+02 -0.21971909516E+02  0.96483347890E+02  0.11365348658E+03  0.00000000000E+00 0.  1.
         13    1    4    4    0    0  0.10198268503E+02  0.42952919091E+02  0.76128868574E+02  0.88003196358E+02  0.00000000000E+00 0. -1.
          1    1    1    2  501    0  0.81861346582E+02 -0.23813075642E+02  0.98010289354E+02  0.12990134509E+03  0.00000000000E+00 0. -1.
<scales pt_clust_5="13000.00000" pt_clust_6="13000.00000" pt_clust_7="13000.00000" pt_clust_8="13000.00000" pt_clust_9="13000.00000"></scales>
<clustering>
<clus scale="   81.845">  5  6 -1 -1</clus>
<clus scale="   89.520">  2  5  1 -1</clus>
<clus scale="   91.330">  7  8 -1 -1</clus>
<clus scale="   66.783">  7  9 -1 -1</clus>
<clus scale="  191.557">  1  5  2 -1</clus>
</clustering>
</event>
<event>
 9    2  0.4178938E-005  0.2164333E+03  0.7546771E-02  0.1171202E+00
          4   -1    0    0  502    0 -0.00000000000E+00  0.00000000000E+00  0.52030857870E+03  0.52030857870E+03  0.00000000000E+00 0. -1.
         21   -1    0    0  501  502  0.00000000000E+00 -0.00000000000E+00 -0.69156718690E+02  0.69156718690E+02  0.00000000000E+00 0. -1.
         24    2    1    2    0    0  0.44400419794E+02 -0.11671615744E+02  0.32528052183E+03  0.33909161750E+03  0.84071893533E+02 0.  0.
         23    2    1    2    0    0 -0.76428901104E+02  0.46539685367E+02  0.15006242425E+03  0.19720588382E+03  0.91455509406E+02 0.  0.
        -11    1    3    3    0    0 -0.52142651395E+01  0.29801574722E+02  0.83467528557E+02  0.88781477461E+02  0.00000000000E+00 0.  1.
         12    1    3    3    0    0  0.49614684933E+02 -0.41473190466E+02  0.24181299327E+03  0.25031014003E+03  0.00000000000E+00 0. -1.
        -13    1    4    4    0    0 -0.57420016108E+02  0.65893151261E+02  0.67887842600E+02  0.11066943935E+03  0.00000000000E+00 0. -1.
         13    1    4    4    0    0 -0.19008884996E+02 -0.19353465895E+02  0.82174581653E+02  0.86536444466E+02  0.00000000000E+00 0.  1.
          3    1    1    2  501    0  0.32028481310E+02 -0.34868069622E+02 -0.24191086075E+02  0.53167796077E+02  0.00000000000E+00 0. -1.
<scales pt_clust_5="13000.00000" pt_clust_6="13000.00000" pt_clust_7="13000.00000" pt_clust_8="13000.00000" pt_clust_9="13000.00000"></scales>
<clustering>
<clus scale="   84.072">  5  6 -1 -1</clus>
<clus scale="   91.456">  7  8 -1 -1</clus>
<clus scale="   47.346">  7  9 -1 -1</clus>
<clus scale="   95.790">  1  5  2 -1</clus>
<clus scale="  216.433">  2  5  1 -1</clus>
</clustering>
</event>
<event>
 9    2  0.4178938E-005  0.5618351E+03  0.7546771E-02  0.1059690E+00
          2   -1    0    0  502    0 -0.00000000000E+00  0.00000000000E+00  0.12531606053E+04  0.12531606053E+04  0.00000000000E+00 0. -1.
         21   -1    0    0  501  502  0.00000000000E+00 -0.00000000000E+00 -0.88459734064E+02  0.88459734064E+02  0.00000000000E+00 0.  1.
         24    2    1    2    0    0 -0.27656395835E+02 -0.33624832309E+02  0.26956549635E+03  0.28477310893E+03  0.80837251129E+02 0.  0.
         23    2    1    2    0    0 -0.55323641694E+02  0.13723579574E+03  0.23324452761E+02  0.17498828349E+03  0.90457173835E+02 0.  0.
        -11    1    3    3    0    0  0.26450363627E+02 -0.27474468847E+01  0.11689233425E+03  0.11987905575E+03  0.00000000000E+00 0.  1.
         12    1    3    3    0    0 -0.54106759462E+02 -0.30877385424E+02  0.15267316210E+03  0.16489405318E+03  0.00000000000E+00 0. -1.
        -11    1    4    4    0    0  0.58738313805E+01  0.85757010765E+02 -0.13387441437E+02  0.86994197385E+02  0.00000000000E+00 0.  1.
         11    1    4    4    0    0 -0.61197473074E+02  0.51478784975E+02  0.36711894197E+02  0.87994086101E+02  0.00000000000E+00 0. -1.
          1    1    1    2  501    0  0.82980037529E+02 -0.10361096343E+03  0.87181092210E+03  0.88185894692E+03  0.00000000000E+00 0. -1.
<scales pt_clust_5="13000.00000" pt_clust_6="13000.00000" pt_clust_7="13000.00000" pt_clust_8="13000.00000" pt_clust_9="13000.00000"></scales>
<clustering>
<clus scale="   80.837">  5  6 -1 -1</clus>
<clus scale="   90.457">  7  8 -1 -1</clus>
<clus scale="   91.816">  1  5  2 -1</clus>
<clus scale="  145.901">  7  9 -1 -1</clus>
<clus scale="  561.835">  2  5  1 -1</clus>
</clustering>
</event>
<event>
 9    2  0.4178938E-005  0.4749102E+03  0.7546771E-02  0.1059102E+00
          4   -1    0    0  502    0 -0.00000000000E+00  0.00000000000E+00  0.12339630507E+03  0.12339630507E+03  0.00000000000E+00 0. -1.
         21   -1    0    0  501  502  0.00000000000E+00 -0.00000000000E+00 -0.95169644695E+03  0.95169644695E+03  0.00000000000E+00 0. -1.
         24    2    1    2    0    0 -0.84871712221E+02  0.99587476701E+02 -0.48353861867E+02  0.16193566047E+03  0.82244690542E+02 0.  0.
         23    2    1    2    0    0 -0.14489811970E+03 -0.10307543546E+03 -0.55456360240E+03  0.59128181620E+03  0.10224180447E+03 0.  0.
        -13    1    3    3    0    0 -0.69643934391E+02  0.18562542605E+02 -0.24125180476E+02  0.76005722932E+02  0.00000000000E+00 0.  1.
         14    1    3    3    0    0 -0.15227777830E+02  0.81024934095E+02 -0.24228681391E+02  0.85929937535E+02  0.00000000000E+00 0. -1.
        -11    1    4    4    0    0 -0.51487603520E+02 -0.65250979135E+01 -0.62653677437E+02  0.81357442901E+02  0.00000000000E+00 0.  1.
         11    1    4    4    0    0 -0.93410516177E+02 -0.96550337550E+02 -0.49190992496E+03  0.50992437330E+03  0.00000000000E+00 0. -1.
          3    1    1    2  501    0  0.22976983192E+03  0.34879587626E+01 -0.22538267761E+03  0.32187527535E+03  0.00000000000E+00 0. -1.
<scales pt_clust_5="13000.00000" pt_clust_6="13000.00000" pt_clust_7="13000.00000" pt_clust_8="13000.00000" pt_clust_9="13000.00000"></scales>
<clustering>
<clus scale="   82.245">  5  6 -1 -1</clus>
<clus scale="  102.242">  7  8 -1 -1</clus>
<clus scale="  154.548">  1  5  2 -1</clus>
<clus scale="  184.503">  7  9 -1 -1</clus>
<clus scale="  474.910">  2  5  1 -1</clus>
</clustering>
</event>
<event>
 9    2  0.4178938E-005  0.4676771E+03  0.7546771E-02  0.1076005E+00
          2   -1    0    0  502    0 -0.00000000000E+00  0.00000000000E+00  0.58312847020E+03  0.58312847020E+03  0.00000000000E+00 0. -1.
         21   -1    0    0  501  502  0.00000000000E+00 -0.00000000000E+00 -0.17503499289E+03  0.17503499289E+03  0.00000000000E+00 0. -1.
         24    2    1    2    0    0 -0.63123912634E+02  0.14097220008E+01  0.24103662783E+03  0.26154500576E+03  0.79501688141E+02 0.  0.
         23    2    1    2    0    0 -0.43312100980E+02 -0.20693585228E+03  0.44095049722E+02  0.23453217493E+03  0.91447157494E+02 0.  0.
        -13    1    3    3    0    0 -0.87359714124E+01  0.31598072544E+02  0.43658279102E+02  0.54596709783E+02  0.00000000000E+00 0.  1.
         14    1    3    3    0    0 -0.54387941222E+02 -0.30188350543E+02  0.19737834873E+03  0.20694829598E+03  0.00000000000E+00 0. -1.
        -13    1    4    4    0    0 -0.69484691494E+02 -0.15401077542E+03  0.47133936723E+02  0.17541108656E+03  0.00000000000E+00 0. -1.
         13    1    4    4    0    0  0.26172590514E+02 -0.52925076867E+02 -0.30388870007E+01  0.59121088367E+02  0.00000000000E+00 0.  1.
          1    1    1    2  501    0  0.10643601361E+03  0.20552613028E+03  0.12296179975E+03  0.26208628240E+03  0.00000000000E+00 0. -1.
<scales pt_clust_5="13000.00000" pt_clust_6="13000.00000" pt_clust_7="13000.00000" pt_clust_8="13000.00000" pt_clust_9="13000.00000"></scales>
<clustering>
<clus scale="   79.502">  5  6 -1 -1</clus>
<clus scale="   91.447">  7  8 -1 -1</clus>
<clus scale="  101.524">  1  5  2 -1</clus>
<clus scale="  217.834">  7  9 -1 -1</clus>
<clus scale="  467.677">  2  5  1 -1</clus>
</clustering>
</event>
<event>
 9    2  0.4178938E-005  0.1864812E+03  0.7546771E-02  0.1180774E+00
          2   -1    0    0  502    0 -0.00000000000E+00  0.00000000000E+00  0.12618226509E+03  0.12618226509E+03  0.00000000000E+00 0. -1.
         21   -1    0    0  501  502  0.00000000000E+00 -0.00000000000E+00 -0.21768400456E+03  0.21768400456E+03  0.00000000000E+00 0.  1.
         24    2    1    2    0    0 -0.20261625088E+02  0.55346532545E+02 -0.10078034142E+03  0.15715433866E+03  0.10519998491E+03 0.  0.
         23    2    1    2    0    0 -0.44260706664E+02 -0.10224579638E+02 -0.17319039035E+02  0.10360623664E+03  0.91491808231E+02 0.  0.
        -11    1    3    3    0    0  0.38938382732E+02  0.16551526711E+02 -0.65734317962E+02  0.78173852689E+02  0.00000000000E+00 0.  1.
         12    1    3    3    0    0 -0.59200007820E+02  0.38795005834E+02 -0.35046023459E+02  0.78980485968E+02  0.00000000000E+00 0. -1.
        -11    1    4    4    0    0 -0.41439992070E+02 -0.41756727935E+02  0.12469983032E+02  0.60136492643E+02  0.00000000000E+00 0.  1.
         11    1    4    4    0    0 -0.28207145939E+01  0.31532148296E+02 -0.29789022067E+02  0.43469743992E+02  0.00000000000E+00 0. -1.
          1    1    1    2  501    0  0.64522331752E+02 -0.45121952907E+02  0.26597640985E+02  0.83105694358E+02  0.00000000000E+00 0. -1.
<scales pt_clust_5="13000.00000" pt_clust_6="13000.00000" pt_clust_7="13000.00000" pt_clust_8="13000.00000" pt_clust_9="13000.00000"></scales>
<clustering>
<clus scale="   91.492">  7  8 -1 -1</clus>
<clus scale="   78.735">  7  9 -1 -1</clus>
<clus scale="  105.200">  5  6 -1 -1</clus>
<clus scale="  120.585">  1  5  2 -1</clus>
<clus scale="  186.481">  2  5  1 -1</clus>
</clustering>
</event>
<event>
 9    2  0.4178938E-005  0.3214504E+03  0.7546771E-02  0.1123402E+00
         21   -1    0    0  501  502  0.00000000000E+00  0.00000000000E+00  0.79853986638E+02  0.79853986638E+02  0.00000000000E+00 0.  1.
          2   -1    0    0  502    0 -0.00000000000E+00 -0.00000000000E+00 -0.53996356005E+03  0.53996356005E+03  0.00000000000E+00 0. -1.
         24    2    1    2    0    0 -0.42634877420E+02 -0.29003424357E+01 -0.13193646611E+03  0.16043976440E+03  0.80669338371E+02 0.  0.
         23    2    1    2    0    0 -0.59916391213E+02 -0.42217747787E+02 -0.47221043697E+01  0.11707242728E+03  0.91166566220E+02 0.  0.
        -13    1    3    3    0    0 -0.46332121945E+02 -0.16513362222E+02 -0.13691391532E+03  0.14548119076E+03  0.00000000000E+00 0.  1.
         14    1    3    3    0    0  0.36972445251E+01  0.13613019786E+02  0.49774492128E+01  0.14958573643E+02  0.00000000000E+00 0. -1.
        -13    1    4    4    0    0 -0.31427904830E+02  0.26417232580E+02  0.75763978519E+01  0.41749074044E+02  0.00000000000E+00 0.  1.
         13    1    4    4    0    0 -0.28488486384E+02 -0.68634980367E+02 -0.12298502222E+02  0.75323353240E+02  0.00000000000E+00 0. -1.
          1    1    1    2  501    0  0.10255126863E+03  0.45118090223E+02 -0.32345100293E+03  0.34230535500E+03  0.00000000000E+00 0. -1.
<scales pt_clust_5="13000.00000" pt_clust_6="13000.00000" pt_clust_7="13000.00000" pt_clust_8="13000.00000" pt_clust_9="13000.00000"></scales>
<clustering>
<clus scale="   80.669">  5  6 -1 -1</clus>
<clus scale="   91.167">  7  8 -1 -1</clus>
<clus scale="   91.289">  2  5  1 -1</clus>
<clus scale="   79.019">  7  9 -1 -1</clus>
<clus scale="  321.450">  1  5  2 -1</clus>
</clustering>
</event>
<event>
 9    2  0.4178938E-005  0.4685911E+03  0.7546771E-02  0.1065589E+00
         21   -1    0    0  501  502  0.00000000000E+00  0.00000000000E+00  0.72055843726E+03  0.72055843726E+03  0.00000000000E+00 0.  1.
         -3   -1    0    0    0  501 -0.00000000000E+00 -0.00000000000E+00 -0.12704851294E+03  0.12704851294E+03  0.00000000000E+00 0.  1.
         24    2    1    2    0    0 -0.10625718029E+03  0.16624857483E+02  0.10294711453E+03  0.16920482215E+03  0.80406400240E+02 0.  0.
         23    2    1    2    0    0 -0.29470898317E+02 -0.13450426771E+02 -0.55686141702E+02  0.11553437685E+03  0.95905151212E+02 0.  0.
        -11    1    3    3    0    0 -0.47321811396E+02 -0.17428644622E+02  0.84964399009E+02  0.98803140568E+02  0.00000000000E+00 0.  1.
         12    1    3    3    0    0 -0.58935368896E+02  0.34053502104E+02  0.17982715523E+02  0.70401681586E+02  0.00000000000E+00 0. -1.
        -13    1    4    4    0    0 -0.63418971429E+02  0.14385169329E+01 -0.41700969088E+02  0.75914465624E+02  0.00000000000E+00 0.  1.
         13    1    4    4    0    0  0.33948073112E+02 -0.14888943704E+02 -0.13985172614E+02  0.39619911228E+02  0.00000000000E+00 0. -1.
         -4    1    1    2    0  502  0.13572807861E+03 -0.31744307116E+01  0.54624895149E+03  0.56286775119E+03  0.00000000000E+00 0.  1.
<scales pt_clust_5="13000.00000" pt_clust_6="13000.00000" pt_clust_7="13000.00000" pt_clust_8="13000.00000" pt_clust_9="13000.00000"></scales>
<clustering>
<clus scale="   80.406">  5  6 -1 -1</clus>
<clus scale="   95.905">  7  8 -1 -1</clus>
<clus scale="  134.284">  2  5  1 -1</clus>
<clus scale="  126.339">  7  9 -1 -1</clus>
<clus scale="  468.591">  1  5  2 -1</clus>
</clustering>
</event>
<event>
 9    2  0.4178938E-005  0.1528246E+03  0.7546771E-02  0.1220591E+00
          2   -1    0    0  502    0 -0.00000000000E+00  0.00000000000E+00  0.54010976012E+03  0.54010976012E+03  0.00000000000E+00 0. -1.
         21   -1    0    0  501  502  0.00000000000E+00 -0.00000000000E+00 -0.76670986490E+02  0.76670986490E+02  0.00000000000E+00 0.  1.
         24    2    1    2    0    0 -0.53210335728E+01 -0.45347319190E+02  0.45440261768E+03  0.46368926066E+03  0.80257702054E+02 0.  0.
         23    2    1    2    0    0  0.22260771222E+02 -0.43014963824E+01  0.17486768091E+02  0.99956069838E+02  0.95767343248E+02 0.  0.
        -11    1    3    3    0    0  0.23744040832E+01  0.22269015417E+02  0.76609305883E+02  0.79815616206E+02  0.00000000000E+00 0.  1.
         12    1    3    3    0    0 -0.76954376560E+01 -0.67616334607E+02  0.37779331180E+03  0.38387364446E+03  0.00000000000E+00 0. -1.
        -13    1    4    4    0    0 -0.11179754204E+02 -0.21849660297E+02 -0.30335020332E+02  0.39020610165E+02  0.00000000000E+00 0.  1.
         13    1    4    4    0    0  0.33440525427E+02  0.17548163915E+02  0.47821788423E+02  0.60935459673E+02  0.00000000000E+00 0. -1.
          1    1    1    2  501    0 -0.16939737650E+02  0.49648815572E+02 -0.84506121467E+01  0.53135416109E+02  0.00000000000E+00 0. -1.
<scales pt_clust_5="13000.00000" pt_clust_6="13000.00000" pt_clust_7="13000.00000" pt_clust_8="13000.00000" pt_clust_9="13000.00000"></scales>
<clustering>
<clus scale="   80.258">  5  6 -1 -1</clus>
<clus scale="   92.336">  1  5  2 -1</clus>
<clus scale="   95.767">  7  8 -1 -1</clus>
<clus scale="   41.460">  7  9 -1 -1</clus>
<clus scale="  152.825">  2  5  1 -1</clus>
</clustering>
</event>
<event>
 9    2  0.4178938E-005  0.1954630E+03  0.7546771E-02  0.1165797E+00
         -3   -1    0    0    0  501 -0.00000000000E+00  0.00000000000E+00  0.51052070780E+03  0.51052070780E+03  0.00000000000E+00 0.  1.
         21   -1    0    0  501  502  0.00000000000E+00 -0.00000000000E+00 -0.78849083391E+02  0.78849083391E+02  0.00000000000E+00 0. -1.
         24    2    1    2    0    0 -0.81221492185E+02 -0.89078448173E+02  0.41455104751E+02  0.15293571827E+03  0.84492055779E+02 0.  0.
         23    2    1    2    0    0  0.64025704676E+02  0.31501189994E+02  0.15418022991E+03  0.19286895670E+03  0.91297729055E+02 0.  0.
        -11    1    3    3    0    0  0.13172760288E+02 -0.21096315407E+02 -0.85735877326E+01  0.26307461754E+02  0.00000000000E+00 0.  1.
         12    1    3    3    0    0 -0.94394252473E+02 -0.67982132766E+02  0.50028692484E+02  0.12662825651E+03  0.00000000000E+00 0. -1.
        -11    1    4    4    0    0  0.84865224617E+02  0.36159787884E+02  0.13836407857E+03  0.16629568499E+03  0.00000000000E+00 0.  1.
         11    1    4    4    0    0 -0.20839519941E+02 -0.46585978909E+01  0.15816151348E+02  0.26573271706E+02  0.00000000000E+00 0. -1.
         -4    1    1    2    0  502  0.17195787510E+02  0.57577258180E+02  0.23603628975E+03  0.24356511623E+03  0.00000000000E+00 0.  1.
<scales pt_clust_5="13000.00000" pt_clust_6="13000.00000" pt_clust_7="13000.00000" pt_clust_8="13000.00000" pt_clust_9="13000.00000"></scales>
<clustering>
<clus scale="   84.492">  5  6 -1 -1</clus>
<clus scale="   91.298">  7  8 -1 -1</clus>
<clus scale="   60.090">  7  9 -1 -1</clus>
<clus scale="  147.210">  1  5  2 -1</clus>
<clus scale="  195.463">  2  5  1 -1</clus>
</clustering>
</event>
<event>
 9    2  0.4178938E-005  0.8683259E+03  0.7546771E-02  0.1010899E+00
          2   -1    0    0  502    0 -0.00000000000E+00  0.00000000000E+00  0.18922140979E+04  0.18922140979E+04  0.00000000000E+00 0. -1.
         21   -1    0    0  501  502  0.00000000000E+00 -0.00000000000E+00 -0.13005213990E+03  0.13005213990E+03  0.00000000000E+00 0. -1.
         24    2    1    2    0    0  0.33461669337E+02  0.58787409315E+02  0.34324432701E+03  0.35874070683E+03  0.79388814744E+02 0.  0.
         23    2    1    2    0    0  0.14648435602E+03  0.36571446533E+03  0.72153143594E+03  0.82750524494E+03  0.94618077742E+02 0.  0.
        -13    1    3    3    0    0 -0.25989656911E+02  0.15898454440E+02  0.11787121899E+03  0.12174500970E+03  0.00000000000E+00 0.  1.
         14    1    3    3    0    0  0.59451326248E+02  0.42888954875E+02  0.22537310801E+03  0.23699569713E+03  0.00000000000E+00 0. -1.
        -11    1    4    4    0    0  0.10771908839E+03  0.19444226802E+03  0.32406389648E+03  0.39297405334E+03  0.00000000000E+00 0.  1.
         11    1    4    4    0    0  0.38765267639E+02  0.17127219731E+03  0.39746753946E+03  0.43453119160E+03  0.00000000000E+00 0. -1.
          1    1    1    2  501    0 -0.17994602536E+03 -0.42450187465E+03  0.69738619507E+03  0.83602028605E+03  0.00000000000E+00 0. -1.
<scales pt_clust_5="13000.00000" pt_clust_6="13000.00000" pt_clust_7="13000.00000" pt_clust_8="13000.00000" pt_clust_9="13000.00000"></scales>
<clustering>
<clus scale="   79.389">  5  6 -1 -1</clus>
<clus scale="   94.618">  7  8 -1 -1</clus>
<clus scale="  104.299">  1  5  2 -1</clus>
<clus scale="  427.663">  7  9 -1 -1</clus>
<clus scale="  868.326">  2  5  1 -1</clus>
</clustering>
</event>
<event>
 9    2  0.4178938E-005  0.2149172E+03  0.7546771E-02  0.1165584E+00
          2   -1    0    0  502    0 -0.00000000000E+00  0.00000000000E+00  0.52595876723E+03  0.52595876723E+03  0.00000000000E+00 0. -1.
         21   -1    0    0  501  502  0.00000000000E+00 -0.00000000000E+00 -0.54558757999E+02  0.54558757999E+02  0.00000000000E+00 0. -1.
         24    2    1    2    0    0 -0.55139462349E+02 -0.49800310470E+02  0.24092276505E+03  0.26538394372E+03  0.82851841489E+02 0.  0.
         23    2    1    2    0    0 -0.49040532810E+02  0.20965424652E+02  0.92436812473E+02  0.13980508177E+03  0.90312644186E+02 0.  0.
        -11    1    3    3    0    0  0.78183509684E+00  0.20459475911E+02  0.32119173998E+02  0.38089929889E+02  0.00000000000E+00 0.  1.
         12    1    3    3    0    0 -0.55921297445E+02 -0.70259786381E+02  0.20880359105E+03  0.22729401383E+03  0.00000000000E+00 0. -1.
        -13    1    4    4    0    0 -0.11761963846E+02 -0.17233733262E+02 -0.10868451822E+02  0.23525913386E+02  0.00000000000E+00 0. -1.
         13    1    4    4    0    0 -0.37278568964E+02  0.38199157914E+02  0.10330526429E+03  0.11627916839E+03  0.00000000000E+00 0.  1.
          1    1    1    2  501    0  0.10417999516E+03  0.28834885818E+02  0.13804043171E+03  0.17532849973E+03  0.00000000000E+00 0. -1.
<scales pt_clust_5="13000.00000" pt_clust_6="13000.00000" pt_clust_7="13000.00000" pt_clust_8="13000.00000" pt_clust_9="13000.00000"></scales>
<clustering>
<clus scale="   82.852">  5  6 -1 -1</clus>
<clus scale="   90.313">  7  8 -1 -1</clus>
<clus scale="  108.097">  7  9 -1 -1</clus>
<clus scale="  111.287">  1  5  2 -1</clus>
<clus scale="  214.917">  2  5  1 -1</clus>
</clustering>
</event>
<event>
 9    2  0.4178938E-005  0.2958072E+03  0.7546771E-02  0.1119768E+00
         21   -1    0    0  501  502  0.00000000000E+00  0.00000000000E+00  0.17324075214E+03  0.17324075214E+03  0.00000000000E+00 0. -1.
          2   -1    0    0  502    0 -0.00000000000E+00 -0.00000000000E+00 -0.72932287067E+03  0.72932287067E+03  0.00000000000E+00 0. -1.
         24    2    1    2    0    0 -0.32883794200E+02  0.86631146645E+02 -0.59095005608E+03  0.60470847805E+03  0.88679620809E+02 0.  0.
         23    2    1    2    0    0  0.53732794018E+02  0.53318938383E+02 -0.51975497562E+02  0.13183559979E+03  0.94599422208E+02 0.  0.
        -11    1    3    3    0    0  0.15645928866E+02  0.38772460109E+02 -0.91141758801E+02  0.10027421877E+03  0.00000000000E+00 0.  1.
         12    1    3    3    0    0 -0.48529723067E+02  0.47858686536E+02 -0.49980829728E+03  0.50443425927E+03  0.00000000000E+00 0. -1.
        -11    1    4    4    0    0  0.56240441085E+02  0.75536126800E+02 -0.26274269484E+02  0.97770296626E+02  0.00000000000E+00 0. -1.
         11    1    4    4    0    0 -0.25076470666E+01 -0.22217188418E+02 -0.25701228078E+02  0.34065303165E+02  0.00000000000E+00 0.  1.
          1    1    1    2  501    0 -0.20848999818E+02 -0.13995008503E+03  0.86843435104E+02  0.16601954497E+03  0.00000000000E+00 0. -1.
<scales pt_clust_5="13000.00000" pt_clust_6="13000.00000" pt_clust_7="13000.00000" pt_clust_8="13000.00000" pt_clust_9="13000.00000"></scales>
<clustering>
<clus scale="   88.680">  5  6 -1 -1</clus>
<clus scale="   94.599">  7  8 -1 -1</clus>
<clus scale="  128.259">  2  5  1 -1</clus>
<clus scale="  117.947">  7  9 -1 -1</clus>
<clus scale="  295.807">  1  5  2 -1</clus>
</clustering>
</event>
<event>
 9    2  0.4178938E-005  0.1856418E+03  0.7546771E-02  0.1193025E+00
          2   -1    0    0  502    0 -0.00000000000E+00  0.00000000000E+00  0.29209423137E+03  0.29209423137E+03  0.00000000000E+00 0. -1.
         21   -1    0    0  501  502  0.00000000000E+00 -0.00000000000E+00 -0.78894355511E+02  0.78894355511E+02  0.00000000000E+00 0.  1.
         24    2    1    2    0    0 -0.44109786281E+02  0.22359900474E+02  0.67563431059E+01  0.93352457693E+02  0.78888495930E+02 0.  0.
         23    2    1    2    0    0  0.30742209412E+02 -0.42706888664E+02  0.49184117601E+02  0.11850343081E+03  0.94101136604E+02 0.  0.
        -11    1    3    3    0    0 -0.24792510391E+02  0.49491706742E+01 -0.35591657827E+02  0.43656946397E+02  0.00000000000E+00 0.  1.
         12    1    3    3    0    0 -0.19317275890E+02  0.17410729800E+02  0.42348000932E+02  0.49695511296E+02  0.00000000000E+00 0. -1.
        -13    1    4    4    0    0  0.11651848473E+02  0.17576392512E+02 -0.16911478537E+02  0.27031338348E+02  0.00000000000E+00 0.  1.
         13    1    4    4    0    0  0.19090360938E+02 -0.60283281176E+02  0.66095596138E+02  0.91472092460E+02  0.00000000000E+00 0. -1.
          1    1    1    2  501    0  0.13367576870E+02  0.20346988190E+02  0.15725941515E+03  0.15913269838E+03  0.00000000000E+00 0. -1.
<scales pt_clust_5="13000.00000" pt_clust_6="13000.00000" pt_clust_7="13000.00000" pt_clust_8="13000.00000" pt_clust_9="13000.00000"></scales>
<clustering>
<clus scale="   78.888">  5  6 -1 -1</clus>
<clus scale="   93.108">  1  5  2 -1</clus>
<clus scale="   94.101">  7  8 -1 -1</clus>
<clus scale="   38.228">  7  9 -1 -1</clus>
<clus scale="  185.642">  2  5  1 -1</clus>
</clustering>
</event>
<event>
 9    2  0.4178938E-005  0.1392170E+03  0.7546771E-02  0.1230821E+00
          2   -1    0    0  502    0 -0.00000000000E+00  0.00000000000E+00  0.46928050569E+03  0.46928050569E+03  0.00000000000E+00 0. -1.
         21   -1    0    0  501  502  0.00000000000E+00 -0.00000000000E+00 -0.36071727886E+02  0.36071727886E+02  0.00000000000E+00 0. -1.
         24    2    1    2    0    0  0.43419987000E+02  0.28604915276E+02  0.28680195993E+03  0.30332169860E+03  0.83935404753E+02 0.  0.
         23    2    1    2    0    0 -0.16204860447E+02  0.83169192274E+01  0.93180814581E+02  0.13176751197E+03  0.91368727452E+02 0.  0.
        -13    1    3    3    0    0 -0.15965873249E+02  0.30485316743E+02  0.63216166394E+02  0.71976019194E+02  0.00000000000E+00 0.  1.
         14    1    3    3    0    0  0.59385860249E+02 -0.18804014667E+01  0.22358579354E+03  0.23134567940E+03  0.00000000000E+00 0. -1.
        -11    1    4    4    0    0 -0.35388136815E+02 -0.30989963249E+02  0.63013947041E+02  0.78634951333E+02  0.00000000000E+00 0.  1.
         11    1    4    4    0    0  0.19183276368E+02  0.39306882477E+02  0.30166867539E+02  0.53132560633E+02  0.00000000000E+00 0. -1.
          1    1    1    2  501    0 -0.27215126553E+02 -0.36921834503E+02  0.53226003290E+02  0.70263023010E+02  0.00000000000E+00 0. -1.
<scales pt_clust_5="13000.00000" pt_clust_6="13000.00000" pt_clust_7="13000.00000" pt_clust_8="13000.00000" pt_clust_9="13000.00000"></scales>
<clustering>
<clus scale="   83.935">  5  6 -1 -1</clus>
<clus scale="   91.369">  7  8 -1 -1</clus>
<clus scale="   45.868">  7  9 -1 -1</clus>
<clus scale="   98.735">  1  5  2 -1</clus>
<clus scale="  139.217">  2  5  1 -1</clus>
</clustering>
</event>
<event>
 9    2  0.4178938E-005  0.3323259E+03  0.7546771E-02  0.1106738E+00
          2   -1    0    0  502    0 -0.00000000000E+00  0.00000000000E+00  0.13224122165E+04  0.13224122165E+04  0.00000000000E+00 0. -1.
         21   -1    0    0  501  502  0.00000000000E+00 -0.00000000000E+00 -0.44392387676E+02  0.44392387676E+02  0.00000000000E+00 0.  1.
         24    2    1    2    0    0 -0.51212467425E+02  0.81112578085E+02  0.18009044818E+03  0.21968236971E+03  0.81399059536E+02 0.  0.
         23    2    1    2    0    0  0.68759889192E+02  0.98363968531E+02  0.47614731705E+03  0.49971766435E+03  0.92725853261E+02 0.  0.
        -11    1    3    3    0    0 -0.47082560259E+02  0.97751627532E+02  0.15921249234E+03  0.19266750085E+03  0.00000000000E+00 0.  1.
         12    1    3    3    0    0 -0.41299071655E+01 -0.16639049447E+02  0.20877955838E+02  0.27014868863E+02  0.00000000000E+00 0. -1.
        -13    1    4    4    0    0  0.56656778806E+02  0.61726819481E+02  0.43621827003E+03  0.44419204173E+03  0.00000000000E+00 0. -1.
         13    1    4    4    0    0  0.12103110386E+02  0.36637149050E+02  0.39929047021E+02  0.55525622622E+02  0.00000000000E+00 0.  1.
          1    1    1    2  501    0 -0.17547421767E+02 -0.17947654662E+03  0.62178206360E+03  0.64740457012E+03  0.00000000000E+00 0. -1.
<scales pt_clust_5="13000.00000" pt_clust_6="13000.00000" pt_clust_7="13000.00000" pt_clust_8="13000.00000" pt_clust_9="13000.00000"></scales>
<clustering>
<clus scale="   81.399">  5  6 -1 -1</clus>
<clus scale="   92.726">  7  8 -1 -1</clus>
<clus scale="  125.809">  1  5  2 -1</clus>
<clus scale="  141.481">  7  9 -1 -1</clus>
<clus scale="  332.326">  2  5  1 -1</clus>
</clustering>
</event>
<event>
 9    2  0.4178938E-005  0.2133227E+03  0.7546771E-02  0.1151646E+00
          2   -1    0    0  502    0 -0.00000000000E+00  0.00000000000E+00  0.10911650493E+04  0.10911650493E+04  0.00000000000E+00 0. -1.
         21   -1    0    0  501  502  0.00000000000E+00 -0.00000000000E+00 -0.41822020599E+02  0.41822020599E+02  0.00000000000E+00 0. -1.
         24    2    1    2    0    0 -0.13226172465E+03 -0.25812435878E+02  0.74406372494E+03  0.76055987290E+03  0.81615242697E+02 0.  0.
         23    2    1    2    0    0  0.15911334009E+02  0.36061132036E+02  0.15428787183E+03  0.18153230003E+03  0.87153042215E+02 0.  0.
        -11    1    3    3    0    0 -0.99369091729E+02  0.10027049475E+02  0.36609975348E+03  0.37947830980E+03  0.00000000000E+00 0.  1.
         12    1    3    3    0    0 -0.32892632920E+02 -0.35839485354E+02  0.37796397147E+03  0.38108156310E+03  0.00000000000E+00 0. -1.
        -11    1    4    4    0    0  0.33554396104E+02  0.57793731045E+02  0.11910211943E+03  0.13656986380E+03  0.00000000000E+00 0.  1.
         11    1    4    4    0    0 -0.17643062095E+02 -0.21732599009E+02  0.35185752402E+02  0.44962436232E+02  0.00000000000E+00 0. -1.
          1    1    1    2  501    0  0.11635039064E+03 -0.10248696158E+02  0.15099143197E+03  0.19089489701E+03  0.00000000000E+00 0. -1.
<scales pt_clust_5="13000.00000" pt_clust_6="13000.00000" pt_clust_7="13000.00000" pt_clust_8="13000.00000" pt_clust_9="13000.00000"></scales>
<clustering>
<clus scale="   81.615">  5  6 -1 -1</clus>
<clus scale="   87.153">  7  8 -1 -1</clus>
<clus scale="  116.801">  7  9 -1 -1</clus>
<clus scale="  157.545">  1  5  2 -1</clus>
<clus scale="  213.323">  2  5  1 -1</clus>
</clustering>
</event>
<event>
 9    2  0.4178938E-005  0.2593442E+03  0.7546771E-02  0.1143134E+00
         21   -1    0    0  501  502  0.00000000000E+00  0.00000000000E+00  0.91950162909E+02  0.91950162909E+02  0.00000000000E+00 0. -1.
          2   -1    0    0  502    0 -0.00000000000E+00 -0.00000000000E+00 -0.12046375963E+04  0.12046375963E+04  0.00000000000E+00 0. -1.
         24    2    1    2    0    0  0.66277091674E+02 -0.25924655088E+02 -0.10131098208E+04  0.10187836513E+04  0.80398249528E+02 0.  0.
         23    2    1    2    0    0 -0.53289905624E+02 -0.13677797317E+02 -0.16738477578E+03  0.19821244605E+03  0.90794352381E+02 0.  0.
        -11    1    3    3    0    0  0.20627771855E+02  0.14813432786E+02 -0.86366849355E+02  0.90023193845E+02  0.00000000000E+00 0.  1.
         12    1    3    3    0    0  0.45649319819E+02 -0.40738087874E+02 -0.92674297147E+03  0.92876045748E+03  0.00000000000E+00 0. -1.
        -13    1    4    4    0    0 -0.68461928075E+02  0.75222401391E+01 -0.73292383222E+02  0.10057531074E+03  0.00000000000E+00 0.  1.
         13    1    4    4    0    0  0.15172022450E+02 -0.21200037456E+02 -0.94092392562E+02  0.97637135309E+02  0.00000000000E+00 0. -1.
          1    1    1    2  501    0 -0.12987186049E+02  0.39602452405E+02  0.67807163259E+02  0.79591661794E+02  0.00000000000E+00 0. -1.
<scales pt_clust_5="13000.00000" pt_clust_6="13000.00000" pt_clust_7="13000.00000" pt_clust_8="13000.00000" pt_clust_9="13000.00000"></scales>
<clustering>
<clus scale="   80.398">  5  6 -1 -1</clus>
<clus scale="   90.794">  7  8 -1 -1</clus>
<clus scale="   41.678">  7  9 -1 -1</clus>
<clus scale="  107.371">  2  5  1 -1</clus>
<clus scale="  259.344">  1  5  2 -1</clus>
</clustering>
</event>
<event>
 9    2  0.4178938E-005  0.2506425E+03  0.7546771E-02  0.1133002E+00
         21   -1    0    0  501  502  0.00000000000E+00  0.00000000000E+00  0.36105609564E+03  0.36105609564E+03  0.00000000000E+00 0. -1.
          2   -1    0    0  502    0 -0.00000000000E+00 -0.00000000000E+00 -0.16790755398E+03  0.16790755398E+03  0.00000000000E+00 0. -1.
         24    2    1    2    0    0  0.84889378850E+02  0.95936047784E+02  0.22993340963E+03  0.27563619551E+03  0.81829136021E+02 0.  0.
         23    2    1    2    0    0 -0.10177449694E+03 -0.96023946339E+01  0.34093146970E+02  0.14035710455E+03  0.89930639476E+02 0.  0.
        -13    1    3    3    0    0  0.25801410570E+01  0.61008161137E+02  0.74576218282E+02  0.96386021738E+02  0.00000000000E+00 0.  1.
         14    1    3    3    0    0  0.82309237793E+02  0.34927886647E+02  0.15535719135E+03  0.17925017377E+03  0.00000000000E+00 0. -1.
        -11    1    4    4    0    0 -0.55792366084E+02  0.29781828123E+02 -0.11864386907E+02  0.64346787614E+02  0.00000000000E+00 0.  1.
         11    1    4    4    0    0 -0.45982130854E+02 -0.39384222757E+02  0.45957533877E+02  0.76010316932E+02  0.00000000000E+00 0. -1.
          1    1    1    2  501    0  0.16885118088E+02 -0.86333653150E+02 -0.70878014944E+02  0.11297034957E+03  0.00000000000E+00 0. -1.
<scales pt_clust_5="13000.00000" pt_clust_6="13000.00000" pt_clust_7="13000.00000" pt_clust_8="13000.00000" pt_clust_9="13000.00000"></scales>
<clustering>
<clus scale="   81.829">  5  6 -1 -1</clus>
<clus scale="   89.931">  7  8 -1 -1</clus>
<clus scale="   87.969">  7  9 -1 -1</clus>
<clus scale="  152.006">  2  5  1 -1</clus>
<clus scale="  250.643">  1  5  2 -1</clus>
</clustering>
</event>
<event>
 9    2  0.4178938E-005  0.1957133E+03  0.7546771E-02  0.1187229E+00
         21   -1    0    0  501  502  0.00000000000E+00  0.00000000000E+00  0.21244957027E+03  0.21244957027E+03  0.00000000000E+00 0. -1.
          4   -1    0    0  502    0 -0.00000000000E+00 -0.00000000000E+00 -0.13506547003E+03  0.13506547003E+03  0.00000000000E+00 0. -1.
         24    2    1    2    0    0 -0.39048733846E+02 -0.43160672272E+01  0.11703094959E+03  0.14782636450E+03  0.81320101021E+02 0.  0.
         23    2    1    2    0    0  0.31184900702E+02 -0.20567343871E+02  0.46347034097E+02  0.10982226378E+03  0.92289589806E+02 0.  0.
        -13    1    3    3    0    0  0.13888699509E+02  0.25714853065E+02  0.42947157891E+02  0.51948128100E+02  0.00000000000E+00 0.  1.
         14    1    3    3    0    0 -0.52937433355E+02 -0.30030920292E+02  0.74083791697E+02  0.95878236404E+02  0.00000000000E+00 0. -1.
        -11    1    4    4    0    0  0.57539663300E+02  0.46497405935E+01  0.45218690383E+02  0.73329140866E+02  0.00000000000E+00 0. -1.
         11    1    4    4    0    0 -0.26354762598E+02 -0.25217084465E+02  0.11283437134E+01  0.36493122914E+02  0.00000000000E+00 0.  1.
          3    1    1    2  501    0  0.78638331441E+01  0.24883411099E+02 -0.85993883442E+02  0.89866412018E+02  0.00000000000E+00 0. -1.
<scales pt_clust_5="13000.00000" pt_clust_6="13000.00000" pt_clust_7="13000.00000" pt_clust_8="13000.00000" pt_clust_9="13000.00000"></scales>
<clustering>
<clus scale="   81.320">  5  6 -1 -1</clus>
<clus scale="   90.313">  2  5  1 -1</clus>
<clus scale="   92.290">  7  8 -1 -1</clus>
<clus scale="   30.087">  7  9 -1 -1</clus>
<clus scale="  195.713">  1  5  2 -1</clus>
</clustering>
</event>
<event>
 9    2  0.4178938E-005  0.3438005E+03  0.7546771E-02  0.1081215E+00
         21   -1    0    0  501  502  0.00000000000E+00  0.00000000000E+00  0.21340570056E+03  0.21340570056E+03  0.00000000000E+00 0.  1.
          2   -1    0    0  502    0 -0.00000000000E+00 -0.00000000000E+00 -0.37555645173E+03  0.37555645173E+03  0.00000000000E+00 0. -1.
         24    2    1    2    0    0  0.20152754897E+03 -0.49452965781E+02 -0.52948792717E+02  0.22823535660E+03  0.78923092529E+02 0.  0.
         23    2    1    2    0    0  0.30024610993E+02  0.58453598210E+02 -0.38043344569E+02  0.11832018997E+03  0.90741781335E+02 0.  0.
        -11    1    3    3    0    0  0.15403156273E+03 -0.66050056634E+02 -0.58738579879E+02  0.17759097124E+03  0.00000000000E+00 0.  1.
         12    1    3    3    0    0  0.47495986237E+02  0.16597090853E+02  0.57897871611E+01  0.50644385362E+02  0.00000000000E+00 0. -1.
        -11    1    4    4    0    0  0.26582026229E+02  0.79727291892E+02 -0.45434999783E+02  0.95537345558E+02  0.00000000000E+00 0.  1.
         11    1    4    4    0    0  0.34425847634E+01 -0.21273693682E+02  0.73916552147E+01  0.22782844413E+02  0.00000000000E+00 0. -1.
          1    1    1    2  501    0 -0.23155215996E+03 -0.90006324291E+01 -0.71158613877E+02  0.24240660572E+03  0.00000000000E+00 0. -1.
<scales pt_clust_5="13000.00000" pt_clust_6="13000.00000" pt_clust_7="13000.00000" pt_clust_8="13000.00000" pt_clust_9="13000.00000"></scales>
<clustering>
<clus scale="   78.923">  5  6 -1 -1</clus>
<clus scale="   90.742">  7  8 -1 -1</clus>
<clus scale="  222.009">  2  5  1 -1</clus>
<clus scale="  105.776">  7  9 -1 -1</clus>
<clus scale="  343.800">  1  5  2 -1</clus>
</clustering>
</event>
<event>
 9    2  0.4178938E-005  0.2223392E+03  0.7546771E-02  0.1160479E+00
         21   -1    0    0  501  502  0.00000000000E+00  0.00000000000E+00  0.17961481143E+03  0.17961481143E+03  0.00000000000E+00 0.  1.
         -3   -1    0    0    0  501 -0.00000000000E+00 -0.00000000000E+00 -0.15712038605E+03  0.15712038605E+03  0.00000000000E+00 0.  1.
         24    2    1    2    0    0  0.77864094257E+02  0.24130252894E+01  0.16462291432E+02  0.11431413694E+03  0.82024843789E+02 0.  0.
         23    2    1    2    0    0  0.11284270869E+02  0.42084099057E+02 -0.45217264607E+02  0.11037675711E+03  0.90774563223E+02 0.  0.
        -13    1    3    3    0    0  0.20565018214E+01 -0.30241882814E+02  0.79349629812E+01  0.31333118476E+02  0.00000000000E+00 0.  1.
         14    1    3    3    0    0  0.75807592436E+02  0.32654908104E+02  0.85273284503E+01  0.82981018460E+02  0.00000000000E+00 0. -1.
        -11    1    4    4    0    0  0.37396475689E+02  0.97682316827E+01 -0.55446721861E+02  0.67588857878E+02  0.00000000000E+00 0.  1.
         11    1    4    4    0    0 -0.26112204820E+02  0.32315867374E+02  0.10229457253E+02  0.42787899229E+02  0.00000000000E+00 0. -1.
         -4    1    1    2    0  502 -0.89148365126E+02 -0.44497124346E+02  0.51249398564E+02  0.11204430344E+03  0.00000000000E+00 0.  1.
<scales pt_clust_5="13000.00000" pt_clust_6="13000.00000" pt_clust_7="13000.00000" pt_clust_8="13000.00000" pt_clust_9="13000.00000"></scales>
<clustering>
<clus scale="   82.025">  5  6 -1 -1</clus>
<clus scale="   90.775">  7  8 -1 -1</clus>
<clus scale="   99.637">  7  9 -1 -1</clus>
<clus scale="  113.123">  2  5  1 -1</clus>
<clus scale="  222.339">  1  5  2 -1</clus>
</clustering>
</event>
<event>
 9    2  0.4178938E-005  0.5981256E+03  0.7546771E-02  0.1056434E+00
         -1   -1    0    0    0  501 -0.00000000000E+00  0.00000000000E+00  0.18563177400E+04  0.18563177400E+04  0.00000000000E+00 0.  1.
         21   -1    0    0  501  502  0.00000000000E+00 -0.00000000000E+00 -0.88605935786E+02  0.88605935786E+02  0.00000000000E+00 0.  1.
         24    2    1    2    0    0 -0.83445748646E+01  0.20556466479E+02  0.50413701087E+01  0.83536757200E+02  0.80378940943E+02 0.  0.
         23    2    1    2    0    0 -0.25634134704E+03 -0.66914283196E+02  0.12666811945E+04  0.12972831956E+04  0.90961715747E+02 0.  0.
        -11    1    3    3    0    0 -0.13705088269E+02 -0.17195903267E+02 -0.26226375332E+02  0.34225009813E+02  0.00000000000E+00 0.  1.
         12    1    3    3    0    0  0.53605134043E+01  0.37752369747E+02  0.31267745441E+02  0.49311747387E+02  0.00000000000E+00 0. -1.
        -11    1    4    4    0    0 -0.10382875167E+03  0.66333946545E+01  0.35164921241E+03  0.36671730282E+03  0.00000000000E+00 0. -1.
         11    1    4    4    0    0 -0.15251259537E+03 -0.73547677850E+02  0.91503198206E+03  0.93056589281E+03  0.00000000000E+00 0.  1.
         -2    1    1    2    0  502  0.26468592191E+03  0.46357816717E+02  0.49598923968E+03  0.56410372301E+03  0.00000000000E+00 0.  1.
<scales pt_clust_5="13000.00000" pt_clust_6="13000.00000" pt_clust_7="13000.00000" pt_clust_8="13000.00000" pt_clust_9="13000.00000"></scales>
<clustering>
<clus scale="   80.379">  5  6 -1 -1</clus>
<clus scale="   83.385">  1  5  2 -1</clus>
<clus scale="   90.962">  7  8 -1 -1</clus>
<clus scale="  267.423">  7  9 -1 -1</clus>
<clus scale="  598.126">  2  5  1 -1</clus>
</clustering>
</event>
<event>
 9    2  0.4178938E-005  0.1970028E+03  0.7546771E-02  0.1179083E+00
         21   -1    0    0  501  502  0.00000000000E+00  0.00000000000E+00  0.26512221443E+03  0.26512221443E+03  0.00000000000E+00 0.  1.
          2   -1    0    0  502    0 -0.00000000000E+00 -0.00000000000E+00 -0.10877183195E+03  0.10877183195E+03  0.00000000000E+00 0. -1.
         24    2    1    2    0    0  0.51292278333E+01 -0.68757079167E+02 -0.21607676907E+02  0.10841488379E+03  0.80827287551E+02 0.  0.
         23    2    1    2    0    0  0.33633631768E+01  0.52396808907E+01  0.17848462662E+03  0.20139436518E+03  0.93081480002E+02 0.  0.
        -13    1    3    3    0    0 -0.14705027680E+02 -0.59699070570E+02 -0.45184313750E+02  0.76300976894E+02  0.00000000000E+00 0.  1.
         14    1    3    3    0    0  0.19834255513E+02 -0.90580085972E+01  0.23576636843E+02  0.32113906899E+02  0.00000000000E+00 0. -1.
        -13    1    4    4    0    0 -0.21057505805E+02 -0.35701227982E+02  0.11325812332E+03  0.12060430642E+03  0.00000000000E+00 0.  1.
         13    1    4    4    0    0  0.24420868982E+02  0.40940908872E+02  0.65226503297E+02  0.80790058754E+02  0.00000000000E+00 0. -1.
          1    1    1    2  501    0 -0.84925910101E+01  0.63517398276E+02 -0.52656723728E+00  0.64084797408E+02  0.00000000000E+00 0. -1.
<scales pt_clust_5="13000.00000" pt_clust_6="13000.00000" pt_clust_7="13000.00000" pt_clust_8="13000.00000" pt_clust_9="13000.00000"></scales>
<clustering>
<clus scale="   80.827">  5  6 -1 -1</clus>
<clus scale="   93.081">  7  8 -1 -1</clus>
<clus scale="   64.083">  7  9 -1 -1</clus>
<clus scale="  106.240">  2  5  1 -1</clus>
<clus scale="  197.003">  1  5  2 -1</clus>
</clustering>
</event>
<event>
 9    2  0.4178938E-005  0.3090364E+03  0.7546771E-02  0.1116707E+00
          2   -1    0    0  502    0 -0.00000000000E+00  0.00000000000E+00  0.18516032826E+03  0.18516032826E+03  0.00000000000E+00 0. -1.
         21   -1    0    0  501  502  0.00000000000E+00 -0.00000000000E+00 -0.25593021969E+03  0.25593021969E+03  0.00000000000E+00 0. -1.
         24    2    1    2    0    0  0.41400329926E+02 -0.80259876194E+02  0.93943384932E+01  0.12182612791E+03  0.81226330716E+02 0.  0.
         23    2    1    2    0    0  0.59853855075E+02 -0.67133838346E+02 -0.10984750775E+02  0.12752731512E+03  0.89739150510E+02 0.  0.
        -13    1    3    3    0    0  0.32601597445E+02 -0.11240380177E+02 -0.26541192027E+02  0.43516033559E+02  0.00000000000E+00 0.  1.
         14    1    3    3    0    0  0.87987324810E+01 -0.69019496018E+02  0.35935530520E+02  0.78310094353E+02  0.00000000000E+00 0. -1.
        -11    1    4    4    0    0  0.66909358580E+02 -0.13495630386E+02  0.10987260202E+02  0.69135477086E+02  0.00000000000E+00 0.  1.
         11    1    4    4    0    0 -0.70555035053E+01 -0.53638207960E+02 -0.21972010978E+02  0.58391838036E+02  0.00000000000E+00 0. -1.
          1    1    1    2  501    0 -0.10125418500E+03  0.14739371454E+03 -0.69179479155E+02  0.19173710492E+03  0.00000000000E+00 0. -1.
<scales pt_clust_5="13000.00000" pt_clust_6="13000.00000" pt_clust_7="13000.00000" pt_clust_8="13000.00000" pt_clust_9="13000.00000"></scales>
<clustering>
<clus scale="   81.226">  5  6 -1 -1</clus>
<clus scale="   89.739">  7  8 -1 -1</clus>
<clus scale="  121.463">  1  5  2 -1</clus>
<clus scale="  133.024">  7  9 -1 -1</clus>
<clus scale="  309.036">  2  5  1 -1</clus>
</clustering>
</event>
<event>
 9    2  0.4178938E-005  0.1765891E+03  0.7546771E-02  0.1191957E+00
          2   -1    0    0  502    0 -0.00000000000E+00  0.00000000000E+00  0.75195064862E+03  0.75195064862E+03  0.00000000000E+00 0. -1.
         21   -1    0    0  501  502  0.00000000000E+00 -0.00000000000E+00 -0.95732847177E+02  0.95732847177E+02  0.00000000000E+00 0.  1.
         24    2    1    2    0    0 -0.75183064915E+02 -0.90984495117E+01  0.66180406296E+03  0.67100606124E+03  0.80803721669E+02 0.  0.
         23    2    1    2    0    0  0.20051563391E+02  0.23310078540E+02  0.39084646668E+02  0.10431070948E+03  0.91693454245E+02 0.  0.
        -13    1    3    3    0    0 -0.53588739471E+02  0.31668519466E+02  0.30978096671E+03  0.31597293469E+03  0.00000000000E+00 0.  1.
         14    1    3    3    0    0 -0.21594325445E+02 -0.40766968978E+02  0.35202309625E+03  0.35503312654E+03  0.00000000000E+00 0. -1.
        -11    1    4    4    0    0  0.40086530136E+02  0.49916528364E+01  0.58388181369E+02  0.71000184647E+02  0.00000000000E+00 0. -1.
         11    1    4    4    0    0 -0.20034966745E+02  0.18318425703E+02 -0.19303534701E+02  0.33310524834E+02  0.00000000000E+00 0.  1.
          1    1    1    2  501    0  0.55131501524E+02 -0.14211629028E+02 -0.44670908186E+02  0.72366725075E+02  0.00000000000E+00 0. -1.
<scales pt_clust_5="13000.00000" pt_clust_6="13000.00000" pt_clust_7="13000.00000" pt_clust_8="13000.00000" pt_clust_9="13000.00000"></scales>
<clustering>
<clus scale="   80.804">  5  6 -1 -1</clus>
<clus scale="   91.693">  7  8 -1 -1</clus>
<clus scale="   56.934">  7  9 -1 -1</clus>
<clus scale="  110.745">  1  5  2 -1</clus>
<clus scale="  176.589">  2  5  1 -1</clus>
</clustering>
</event>
<event>
 9    2  0.4178938E-005  0.2233717E+03  0.7546771E-02  0.1159911E+00
          2   -1    0    0  502    0 -0.00000000000E+00  0.00000000000E+00  0.69806629546E+03  0.69806629546E+03  0.00000000000E+00 0. -1.
         21   -1    0    0  501  502  0.00000000000E+00 -0.00000000000E+00 -0.55563479130E+02  0.55563479130E+02  0.00000000000E+00 0.  1.
         24    2    1    2    0    0  0.29970441288E+02 -0.49249612675E+02  0.43254325368E+03  0.44707155511E+03  0.97239690404E+02 0.  0.
         23    2    1    2    0    0  0.32712547499E+02 -0.45579116005E+02  0.10513191912E+03  0.15192808103E+03  0.94243592934E+02 0.  0.
        -11    1    3    3    0    0 -0.19120147625E+02 -0.48352914442E+02  0.12122869825E+03  0.13190899006E+03  0.00000000000E+00 0.  1.
         12    1    3    3    0    0  0.49090588913E+02 -0.89669823310E+00  0.31131455543E+03  0.31516256505E+03  0.00000000000E+00 0. -1.
        -13    1    4    4    0    0 -0.27915488292E+02 -0.21807636556E+02  0.68732604712E+02  0.77324112987E+02  0.00000000000E+00 0. -1.
         13    1    4    4    0    0  0.60628035790E+02 -0.23771479449E+02  0.36399314408E+02  0.74603968047E+02  0.00000000000E+00 0.  1.
          1    1    1    2  501    0 -0.62682988787E+02  0.94828728680E+02  0.10482764353E+03  0.15463013844E+03  0.00000000000E+00 0. -1.
<scales pt_clust_5="13000.00000" pt_clust_6="13000.00000" pt_clust_7="13000.00000" pt_clust_8="13000.00000" pt_clust_9="13000.00000"></scales>
<clustering>
<clus scale="   94.244">  7  8 -1 -1</clus>
<clus scale="   97.240">  5  6 -1 -1</clus>
<clus scale="  113.046">  1  5  2 -1</clus>
<clus scale="   84.741">  7  9 -1 -1</clus>
<clus scale="  223.372">  2  5  1 -1</clus>
</clustering>
</event>
<event>
 9    2  0.4178938E-005  0.4381525E+03  0.7546771E-02  0.1048453E+00
         21   -1    0    0  501  502  0.00000000000E+00  0.00000000000E+00  0.19551396225E+03  0.19551396225E+03  0.00000000000E+00 0.  1.
          2   -1    0    0  502    0 -0.00000000000E+00 -0.00000000000E+00 -0.83965336975E+03  0.83965336975E+03  0.00000000000E+00 0. -1.
         24    2    1    2    0    0 -0.11985938701E+03  0.22512338797E+03 -0.12419750002E+02  0.26637128581E+03  0.75845891448E+02 0.  0.
         23    2    1    2    0    0  0.17293818829E+03  0.11689671574E+02 -0.28273047610E+03  0.34371813211E+03  0.90340283554E+02 0.  0.
        -11    1    3    3    0    0 -0.93248326413E+02  0.18922696947E+03  0.18905249559E+02  0.21180062515E+03  0.00000000000E+00 0.  1.
         12    1    3    3    0    0 -0.26611060601E+02  0.35896418492E+02 -0.31324999561E+02  0.54570660656E+02  0.00000000000E+00 0. -1.
        -13    1    4    4    0    0  0.11789276852E+03  0.50217585332E+02 -0.17944657139E+03  0.22050302204E+03  0.00000000000E+00 0. -1.
         13    1    4    4    0    0  0.55045419770E+02 -0.38527913758E+02 -0.10328390471E+03  0.12321511006E+03  0.00000000000E+00 0.  1.
          1    1    1    2  501    0 -0.53078801278E+02 -0.23681305954E+03 -0.34898918139E+03  0.42507791408E+03  0.00000000000E+00 0. -1.
<scales pt_clust_5="13000.00000" pt_clust_6="13000.00000" pt_clust_7="13000.00000" pt_clust_8="13000.00000" pt_clust_9="13000.00000"></scales>
<clustering>
<clus scale="   75.846">  5  6 -1 -1</clus>
<clus scale="   90.340">  7  8 -1 -1</clus>
<clus scale="  242.689">  7  9 -1 -1</clus>
<clus scale="  266.082">  2  5  1 -1</clus>
<clus scale="  438.153">  1  5  2 -1</clus>
</clustering>
</event>
<event>
 9    2  0.4178938E-005  0.4429173E+03  0.7546771E-02  0.1064098E+00
         -1   -1    0    0    0  501 -0.00000000000E+00  0.00000000000E+00  0.69784467340E+03  0.69784467340E+03  0.00000000000E+00 0.  1.
         21   -1    0    0  501  502  0.00000000000E+00 -0.00000000000E+00 -0.12293695444E+04  0.12293695444E+04  0.00000000000E+00 0.  1.
         24    2    1    2    0    0 -0.84382922937E+02 -0.11741496125E+03  0.64716764741E+03  0.66805109606E+03  0.80991063006E+02 0.  0.
         23    2    1    2    0    0  0.15396679479E+03 -0.89288708401E+02 -0.77480609116E+03  0.80015052018E+03  0.90764137710E+02 0.  0.
        -13    1    3    3    0    0 -0.66993742779E+02 -0.11244758155E+03  0.62878413300E+03  0.64226326851E+03  0.00000000000E+00 0.  1.
         14    1    3    3    0    0 -0.17389180159E+02 -0.49673797053E+01  0.18383514412E+02  0.25787827552E+02  0.00000000000E+00 0. -1.
        -11    1    4    4    0    0  0.15838782722E+02 -0.34512088092E+02 -0.67908690507E+02  0.77804508282E+02  0.00000000000E+00 0. -1.
         11    1    4    4    0    0  0.13812801207E+03 -0.54776620309E+02 -0.70689740066E+03  0.72234601190E+03  0.00000000000E+00 0.  1.
         -2    1    1    2    0  502 -0.69583871855E+02  0.20670366966E+03 -0.40388642725E+03  0.45901260156E+03  0.00000000000E+00 0.  1.
<scales pt_clust_5="13000.00000" pt_clust_6="13000.00000" pt_clust_7="13000.00000" pt_clust_8="13000.00000" pt_clust_9="13000.00000"></scales>
<clustering>
<clus scale="   80.991">  5  6 -1 -1</clus>
<clus scale="   90.764">  7  8 -1 -1</clus>
<clus scale="  165.730">  1  5  2 -1</clus>
<clus scale="  179.366">  7  9 -1 -1</clus>
<clus scale="  442.917">  2  5  1 -1</clus>
</clustering>
</event>
<event>
 9    2  0.4178938E-005  0.6569644E+03  0.7546771E-02  0.1026437E+00
          2   -1    0    0  502    0 -0.00000000000E+00  0.00000000000E+00  0.67255218339E+03  0.67255218339E+03  0.00000000000E+00 0. -1.
         21   -1    0    0  501  502  0.00000000000E+00 -0.00000000000E+00 -0.63478120835E+03  0.63478120835E+03  0.00000000000E+00 0. -1.
         24    2    1    2    0    0  0.11907152730E+03  0.42039386359E+02  0.48818738187E+03  0.51079262555E+03  0.81466851453E+02 0.  0.
         23    2    1    2    0    0  0.81899205267E+02  0.26164977150E+03 -0.17010548322E+03  0.33698603185E+03  0.97240050862E+02 0.  0.
        -13    1    3    3    0    0  0.23294751193E+02  0.45964212733E+02  0.12587529204E+03  0.13601449714E+03  0.00000000000E+00 0.  1.
         14    1    3    3    0    0  0.95776776108E+02 -0.39248263749E+01  0.36231208983E+03  0.37477812842E+03  0.00000000000E+00 0. -1.
        -11    1    4    4    0    0  0.58363094591E+02  0.18156676351E+03 -0.16693449549E+03  0.25345584666E+03  0.00000000000E+00 0. -1.
         11    1    4    4    0    0  0.23536110677E+02  0.80083007987E+02 -0.31709877247E+01  0.83530185186E+02  0.00000000000E+00 0.  1.
          1    1    1    2  501    0 -0.20097073257E+03 -0.30368915786E+03 -0.28031092361E+03  0.45955473433E+03  0.00000000000E+00 0. -1.
<scales pt_clust_5="13000.00000" pt_clust_6="13000.00000" pt_clust_7="13000.00000" pt_clust_8="13000.00000" pt_clust_9="13000.00000"></scales>
<clustering>
<clus scale="   81.467">  5  6 -1 -1</clus>
<clus scale="   97.240">  7  8 -1 -1</clus>
<clus scale="  150.274">  1  5  2 -1</clus>
<clus scale="  314.460">  7  9 -1 -1</clus>
<clus scale="  656.964">  2  5  1 -1</clus>
</clustering>
</event>
<event>
 9    2  0.4178938E-005  0.2765591E+03  0.7546771E-02  0.1104350E+00
          2   -1    0    0  502    0 -0.00000000000E+00  0.00000000000E+00  0.76009592684E+03  0.76009592684E+03  0.00000000000E+00 0. -1.
         21   -1    0    0  501  502  0.00000000000E+00 -0.00000000000E+00 -0.85127554233E+02  0.85127554233E+02  0.00000000000E+00 0.  1.
         24    2    1    2    0    0  0.16622382675E+03 -0.13900344023E+03  0.30019674965E+03  0.37945667774E+03  0.83168292115E+02 0.  0.
         23    2    1    2    0    0 -0.71060894361E+02  0.11893692317E+02  0.11413389441E+03  0.16057031374E+03  0.86977980984E+02 0.  0.
        -13    1    3    3    0    0  0.92560205735E+02 -0.11136454648E+03  0.14219981267E+03  0.20295378938E+03  0.00000000000E+00 0.  1.
         14    1    3    3    0    0  0.73663621013E+02 -0.27638893742E+02  0.15799693698E+03  0.17650288837E+03  0.00000000000E+00 0. -1.
        -13    1    4    4    0    0 -0.82365984919E+02  0.31398084499E+02  0.76567306381E+02  0.11675850114E+03  0.00000000000E+00 0. -1.
         13    1    4    4    0    0  0.11305090558E+02 -0.19504392183E+02  0.37566588028E+02  0.43811812597E+02  0.00000000000E+00 0.  1.
          1    1    1    2  501    0 -0.95162932387E+02  0.12710974791E+03  0.26063772855E+03  0.30519648959E+03  0.00000000000E+00 0. -1.
<scales pt_clust_5="13000.00000" pt_clust_6="13000.00000" pt_clust_7="13000.00000" pt_clust_8="13000.00000" pt_clust_9="13000.00000"></scales>
<clustering>
<clus scale="   83.168">  5  6 -1 -1</clus>
<clus scale="   86.978">  7  8 -1 -1</clus>
<clus scale="  158.786">  7  9 -1 -1</clus>
<clus scale="  232.098">  1  5  2 -1</clus>
<clus scale="  276.559">  2  5  1 -1</clus>
</clustering>
</event>
<event>
 9    2  0.4178938E-005  0.2427866E+03  0.7546771E-02  0.1133901E+00
         -1   -1    0    0    0  501 -0.00000000000E+00  0.00000000000E+00  0.76253122627E+03  0.76253122627E+03  0.00000000000E+00 0.  1.
         21   -1    0    0  501  502  0.00000000000E+00 -0.00000000000E+00 -0.58516775502E+02  0.58516775502E+02  0.00000000000E+00 0.  1.
         24    2    1    2    0    0 -0.14390400083E+03  0.95715554027E+01  0.17838154817E+03  0.24205293658E+03  0.77263647669E+02 0.  0.
         23    2    1    2    0    0  0.10404766061E+03  0.70957893163E+02  0.33935292271E+03  0.37217690630E+03  0.86569654913E+02 0.  0.
        -11    1    3    3    0    0 -0.13915169719E+03  0.14003737287E+02  0.18556560967E+03  0.23236586449E+03  0.00000000000E+00 0.  1.
         12    1    3    3    0    0 -0.47523036330E+01 -0.44321818843E+01 -0.71840614938E+01  0.96870720872E+01  0.00000000000E+00 0. -1.
        -11    1    4    4    0    0  0.10735574640E+03  0.39888619386E+02  0.21102231078E+03  0.24009742582E+03  0.00000000000E+00 0.  1.
         11    1    4    4    0    0 -0.33080857868E+01  0.31069273777E+02  0.12833061193E+03  0.13207948048E+03  0.00000000000E+00 0. -1.
         -2    1    1    2    0  502  0.39856340218E+02 -0.80529448566E+02  0.18627997989E+03  0.20681815889E+03  0.00000000000E+00 0.  1.
<scales pt_clust_5="13000.00000" pt_clust_6="13000.00000" pt_clust_7="13000.00000" pt_clust_8="13000.00000" pt_clust_9="13000.00000"></scales>
<clustering>
<clus scale="   77.264">  5  6 -1 -1</clus>
<clus scale="   86.570">  7  8 -1 -1</clus>
<clus scale="   89.853">  7  9 -1 -1</clus>
<clus scale="  163.614">  1  5  2 -1</clus>
<clus scale="  242.787">  2  5  1 -1</clus>
</clustering>
</event>
<event>
 9    2  0.4178938E-005  0.1437506E+03  0.7546771E-02  0.1235764E+00
         21   -1    0    0  501  502  0.00000000000E+00  0.00000000000E+00  0.23214979230E+02  0.23214979230E+02  0.00000000000E+00 0.  1.
         -1   -1    0    0    0  501 -0.00000000000E+00 -0.00000000000E+00 -0.58666611455E+03  0.58666611455E+03  0.00000000000E+00 0.  1.
         24    2    1    2    0    0  0.23799060515E+01  0.91537503799E+01 -0.28792752196E+03  0.29911186956E+03  0.80474825337E+02 0.  0.
         23    2    1    2    0    0 -0.75583785866E+01  0.29801871730E+02 -0.13846758202E+03  0.16819042916E+03  0.90385112415E+02 0.  0.
        -11    1    3    3    0    0  0.35763509464E+01  0.44009099889E+02 -0.12724686669E+03  0.13468985204E+03  0.00000000000E+00 0.  1.
         12    1    3    3    0    0 -0.11964448948E+01 -0.34855349509E+02 -0.16068065527E+03  0.16442201753E+03  0.00000000000E+00 0. -1.
        -11    1    4    4    0    0  0.10801120758E+02 -0.26172806191E+02 -0.16573355291E+02  0.32807866422E+02  0.00000000000E+00 0.  1.
         11    1    4    4    0    0 -0.18359499345E+02  0.55974677921E+02 -0.12189422673E+03  0.13538256274E+03  0.00000000000E+00 0. -1.
         -2    1    1    2    0  502  0.51784725351E+01 -0.38955622110E+02 -0.13705603134E+03  0.14257879505E+03  0.00000000000E+00 0.  1.
<scales pt_clust_5="13000.00000" pt_clust_6="13000.00000" pt_clust_7="13000.00000" pt_clust_8="13000.00000" pt_clust_9="13000.00000"></scales>
<clustering>
<clus scale="   80.475">  5  6 -1 -1</clus>
<clus scale="   81.029">  2  5  1 -1</clus>
<clus scale="   90.385">  7  8 -1 -1</clus>
<clus scale="   35.161">  7  9 -1 -1</clus>
<clus scale="  143.751">  1  5  2 -1</clus>
</clustering>
</event>
<event>
 9    2  0.4178938E-005  0.6815579E+03  0.7546771E-02  0.1042901E+00
         21   -1    0    0  501  502  0.00000000000E+00  0.00000000000E+00  0.14379528558E+03  0.14379528558E+03  0.00000000000E+00 0. -1.
          2   -1    0    0  502    0 -0.00000000000E+00 -0.00000000000E+00 -0.11616551300E+04  0.11616551300E+04  0.00000000000E+00 0. -1.
         24    2    1    2    0    0 -0.34002844975E+01  0.16913966940E+01 -0.31766872961E+03  0.32831745080E+03  0.82852302140E+02 0.  0.
         23    2    1    2    0    0 -0.22622674916E+03 -0.15444602002E+03 -0.63214235386E+03  0.69306750861E+03  0.75541384749E+02 0.  0.
        -11    1    3    3    0    0  0.25291248619E+02  0.13184474010E+02 -0.41099052115E+02  0.50026090157E+02  0.00000000000E+00 0.  1.
         12    1    3    3    0    0 -0.28691533116E+02 -0.11493077316E+02 -0.27656967749E+03  0.27829136064E+03  0.00000000000E+00 0. -1.
        -13    1    4    4    0    0 -0.14875203159E+03 -0.94105126113E+02 -0.31229269653E+03  0.35848245420E+03  0.00000000000E+00 0.  1.
         13    1    4    4    0    0 -0.77474717570E+02 -0.60340893909E+02 -0.31984965732E+03  0.33458505440E+03  0.00000000000E+00 0. -1.
          1    1    1    2  501    0  0.22962703366E+03  0.15275462333E+03 -0.68048760994E+02  0.28406545620E+03  0.00000000000E+00 0. -1.
<scales pt_clust_5="13000.00000" pt_clust_6="13000.00000" pt_clust_7="13000.00000" pt_clust_8="13000.00000" pt_clust_9="13000.00000"></scales>
<clustering>
<clus scale="   75.541">  7  8 -1 -1</clus>
<clus scale="   82.852">  5  6 -1 -1</clus>
<clus scale="   82.939">  2  5  1 -1</clus>
<clus scale="  275.398">  7  9 -1 -1</clus>
<clus scale="  681.558">  1  5  2 -1</clus>
</clustering>
</event>
<event>
 9    2  0.4178938E-005  0.3865230E+03  0.7546771E-02  0.1071499E+00
          2   -1    0    0  502    0 -0.00000000000E+00  0.00000000000E+00  0.12590536906E+04  0.12590536906E+04  0.00000000000E+00 0. -1.
         21   -1    0    0  501  502  0.00000000000E+00 -0.00000000000E+00 -0.69834938395E+02  0.69834938395E+02  0.00000000000E+00 0. -1.
         24    2    1    2    0    0 -0.16793219240E+03  0.67507206221E+02  0.34653076260E+03  0.40178397251E+03  0.92673334884E+02 0.  0.
         23    2    1    2    0    0 -0.85196045228E+02 -0.10561383621E+02  0.25071263890E+03  0.28076763354E+03  0.92756281679E+02 0.  0.
        -11    1    3    3    0    0 -0.12897008578E+03  0.48222816396E+02  0.32563603788E+03  0.35354992889E+03  0.00000000000E+00 0.  1.
         12    1    3    3    0    0 -0.38962106615E+02  0.19284389825E+02  0.20894724719E+02  0.48234043620E+02  0.00000000000E+00 0. -1.
        -13    1    4    4    0    0 -0.47290911984E+02 -0.48384844941E+02  0.99242204895E+02  0.12011052747E+03  0.00000000000E+00 0.  1.
         13    1    4    4    0    0 -0.37905133244E+02  0.37823461320E+02  0.15147043401E+03  0.16065710607E+03  0.00000000000E+00 0. -1.
          1    1    1    2  501    0  0.25312823763E+03 -0.56945822600E+02  0.59197535067E+03  0.64633702292E+03  0.00000000000E+00 0. -1.
<scales pt_clust_5="13000.00000" pt_clust_6="13000.00000" pt_clust_7="13000.00000" pt_clust_8="13000.00000" pt_clust_9="13000.00000"></scales>
<clustering>
<clus scale="   92.673">  5  6 -1 -1</clus>
<clus scale="   92.756">  7  8 -1 -1</clus>
<clus scale="  203.339">  1  5  2 -1</clus>
<clus scale="  135.974">  7  9 -1 -1</clus>
<clus scale="  386.523">  2  5  1 -1</clus>
</clustering>
</event>
<event>
 9    2  0.4178938E-005  0.2429835E+03  0.7546771E-02  0.1169568E+00
         21   -1    0    0  501  502  0.00000000000E+00  0.00000000000E+00  0.55278747430E+02  0.55278747430E+02  0.00000000000E+00 0.  1.
          2   -1    0    0  502    0 -0.00000000000E+00 -0.00000000000E+00 -0.44888494970E+03  0.44888494970E+03  0.00000000000E+00 0. -1.
         24    2    1    2    0    0  0.18317825710E+02 -0.14983788279E+02 -0.11197975251E+03  0.13220341745E+03  0.66168134038E+02 0.  0.
         23    2    1    2    0    0  0.21174639196E+02  0.63971552478E+02 -0.34696016926E+02  0.11713858813E+03  0.89313550863E+02 0.  0.
        -11    1    3    3    0    0  0.28785956136E+02 -0.36343138954E+02 -0.77662936186E+02  0.90448806939E+02  0.00000000000E+00 0.  1.
         12    1    3    3    0    0 -0.10468130426E+02  0.21359350675E+02 -0.34316816325E+02  0.41754610507E+02  0.00000000000E+00 0. -1.
        -11    1    4    4    0    0 -0.28186818677E+02  0.52386559057E+02 -0.28803688857E+02  0.66094635249E+02  0.00000000000E+00 0.  1.
         11    1    4    4    0    0  0.49361457873E+02  0.11584993421E+02 -0.58923280683E+01  0.51043952883E+02  0.00000000000E+00 0. -1.
          1    1    1    2  501    0 -0.39492464906E+02 -0.48987764199E+02 -0.24693043283E+03  0.25482169155E+03  0.00000000000E+00 0. -1.
<scales pt_clust_5="13000.00000" pt_clust_6="13000.00000" pt_clust_7="13000.00000" pt_clust_8="13000.00000" pt_clust_9="13000.00000"></scales>
<clustering>
<clus scale="   66.168">  5  6 -1 -1</clus>
<clus scale="   70.273">  2  5  1 -1</clus>
<clus scale="   89.314">  7  8 -1 -1</clus>
<clus scale="   65.619">  7  9 -1 -1</clus>
<clus scale="  242.984">  1  5  2 -1</clus>
</clustering>
</event>
<event>
 9    2  0.4178938E-005  0.3079427E+03  0.7546771E-02  0.1114669E+00
         21   -1    0    0  501  502  0.00000000000E+00  0.00000000000E+00  0.11782394110E+03  0.11782394110E+03  0.00000000000E+00 0. -1.
          2   -1    0    0  502    0 -0.00000000000E+00 -0.00000000000E+00 -0.47160995805E+03  0.47160995805E+03  0.00000000000E+00 0. -1.
         24    2    1    2    0    0  0.62861498245E+02  0.80464008627E+02 -0.12624270666E+02  0.12984710500E+03  0.79214101145E+02 0.  0.
         23    2    1    2    0    0  0.84959276015E+02 -0.28865991527E+02 -0.24254776907E+03  0.27455151866E+03  0.92183469632E+02 0.  0.
        -11    1    3    3    0    0 -0.86721342483E+01  0.38866777469E+02 -0.23729233522E+02  0.46356324561E+02  0.00000000000E+00 0.  1.
         12    1    3    3    0    0  0.71533632494E+02  0.41597231158E+02  0.11104962856E+02  0.83490780436E+02  0.00000000000E+00 0. -1.
        -11    1    4    4    0    0  0.10948600556E+02 -0.48824442931E+02 -0.73254989564E+02  0.88712972995E+02  0.00000000000E+00 0.  1.
         11    1    4    4    0    0  0.74010675459E+02  0.19958451403E+02 -0.16929277950E+03  0.18583854567E+03  0.00000000000E+00 0. -1.
          1    1    1    2  501    0 -0.14782077426E+03 -0.51598017100E+02 -0.98613977221E+02  0.18503527549E+03  0.00000000000E+00 0. -1.
<scales pt_clust_5="13000.00000" pt_clust_6="13000.00000" pt_clust_7="13000.00000" pt_clust_8="13000.00000" pt_clust_9="13000.00000"></scales>
<clustering>
<clus scale="   79.214">  5  6 -1 -1</clus>
<clus scale="   92.183">  7  8 -1 -1</clus>
<clus scale="  129.232">  2  5  1 -1</clus>
<clus scale="  127.660">  7  9 -1 -1</clus>
<clus scale="  307.943">  1  5  2 -1</clus>
</clustering>
</event>
<event>
 9    2  0.4178938E-005  0.1555775E+03  0.7546771E-02  0.1214592E+00
         21   -1    0    0  501  502  0.00000000000E+00  0.00000000000E+00  0.14557265732E+03  0.14557265732E+03  0.00000000000E+00 0.  1.
         -1   -1    0    0    0  501 -0.00000000000E+00 -0.00000000000E+00 -0.12548414361E+03  0.12548414361E+03  0.00000000000E+00 0.  1.
         24    2    1    2    0    0  0.55415632322E+02  0.16613697474E+02 -0.36049545750E+02  0.10566080001E+03  0.80732444909E+02 0.  0.
         23    2    1    2    0    0 -0.22690114567E+02  0.22497690510E+02  0.54073059213E+02  0.11435754083E+03  0.95565496041E+02 0.  0.
        -11    1    3    3    0    0  0.71919200324E+02  0.23759235535E+02 -0.42137367196E+02  0.86674277399E+02  0.00000000000E+00 0.  1.
         12    1    3    3    0    0 -0.16503568002E+02 -0.71455380616E+01  0.60878214454E+01  0.18986522613E+02  0.00000000000E+00 0. -1.
        -11    1    4    4    0    0  0.35779384737E+02 -0.18045489993E+01  0.29608822618E+02  0.46476909816E+02  0.00000000000E+00 0.  1.
         11    1    4    4    0    0 -0.58469499304E+02  0.24302239510E+02  0.24464236596E+02  0.67880631009E+02  0.00000000000E+00 0. -1.
         -2    1    1    2    0  502 -0.32725517755E+02 -0.39111387984E+02  0.20650002417E+01  0.51038460090E+02  0.00000000000E+00 0.  1.
<scales pt_clust_5="13000.00000" pt_clust_6="13000.00000" pt_clust_7="13000.00000" pt_clust_8="13000.00000" pt_clust_9="13000.00000"></scales>
<clustering>
<clus scale="   80.732">  5  6 -1 -1</clus>
<clus scale="   95.565">  7  8 -1 -1</clus>
<clus scale="   50.997">  7  9 -1 -1</clus>
<clus scale="   99.321">  2  5  1 -1</clus>
<clus scale="  155.577">  1  5  2 -1</clus>
</clustering>
</event>
<event>
 9    2  0.4178938E-005  0.1329483E+03  0.7546771E-02  0.1239512E+00
          4   -1    0    0  502    0 -0.00000000000E+00  0.00000000000E+00  0.27615968252E+03  0.27615968252E+03  0.00000000000E+00 0. -1.
         21   -1    0    0  501  502  0.00000000000E+00 -0.00000000000E+00 -0.59872573711E+02  0.59872573711E+02  0.00000000000E+00 0. -1.
         24    2    1    2    0    0 -0.16892339272E+02 -0.46674273867E+02  0.17103283596E+03  0.19559292451E+03  0.80873494900E+02 0.  0.
         23    2    1    2    0    0 -0.47705906415E+01  0.11761812027E+02  0.35560099118E+02  0.98223937267E+02  0.90677022700E+02 0.  0.
        -13    1    3    3    0    0  0.24693870556E+02 -0.26516315333E+02  0.12584623253E+03  0.13095868228E+03  0.00000000000E+00 0.  1.
         14    1    3    3    0    0 -0.41586209828E+02 -0.20157958534E+02  0.45186603424E+02  0.64634242233E+02  0.00000000000E+00 0. -1.
        -13    1    4    4    0    0  0.11552108637E+02 -0.37642450050E+02  0.12497882285E+02  0.41311043576E+02  0.00000000000E+00 0. -1.
         13    1    4    4    0    0 -0.16322699279E+02  0.49404262077E+02  0.23062216833E+02  0.56912893691E+02  0.00000000000E+00 0.  1.
          3    1    1    2  501    0  0.21662929913E+02  0.34912461840E+02  0.96941737353E+01  0.42215394450E+02  0.00000000000E+00 0. -1.
<scales pt_clust_5="13000.00000" pt_clust_6="13000.00000" pt_clust_7="13000.00000" pt_clust_8="13000.00000" pt_clust_9="13000.00000"></scales>
<clustering>
<clus scale="   80.873">  5  6 -1 -1</clus>
<clus scale="   90.677">  7  8 -1 -1</clus>
<clus scale="   41.087">  7  9 -1 -1</clus>
<clus scale="   94.891">  1  5  2 -1</clus>
<clus scale="  132.948">  2  5  1 -1</clus>
</clustering>
</event>
<event>
 9    2  0.4178938E-005  0.2352501E+03  0.7546771E-02  0.1158443E+00
          4   -1    0    0  502    0 -0.00000000000E+00  0.00000000000E+00  0.20423520264E+03  0.20423520264E+03  0.00000000000E+00 0. -1.
         21   -1    0    0  501  502  0.00000000000E+00 -0.00000000000E+00 -0.14820000324E+03  0.14820000324E+03  0.00000000000E+00 0. -1.
         24    2    1    2    0    0  0.16015292951E+02 -0.62929742092E+02  0.60771346393E+02  0.11713742045E+03  0.76232386020E+02 0.  0.
         23    2    1    2    0    0 -0.27516986909E+02 -0.51304894866E+02 -0.37490513822E+02  0.11590477980E+03  0.92946234723E+02 0.  0.
        -11    1    3    3    0    0  0.16188677911E+02 -0.18542372510E+02 -0.15357782540E+02  0.29013003212E+02  0.00000000000E+00 0.  1.
         12    1    3    3    0    0 -0.17338496043E+00 -0.44387369581E+02  0.76129128933E+02  0.88124417234E+02  0.00000000000E+00 0. -1.
        -13    1    4    4    0    0 -0.39887163659E+02  0.13697720748E+02 -0.59100483349E+01  0.42585702411E+02  0.00000000000E+00 0.  1.
         13    1    4    4    0    0  0.12370176750E+02 -0.65002615614E+02 -0.31580465488E+02  0.73319077394E+02  0.00000000000E+00 0. -1.
          3    1    1    2  501    0  0.11501693958E+02  0.11423463696E+03  0.32754366829E+02  0.11939300562E+03  0.00000000000E+00 0. -1.
<scales pt_clust_5="13000.00000" pt_clust_6="13000.00000" pt_clust_7="13000.00000" pt_clust_8="13000.00000" pt_clust_9="13000.00000"></scales>
<clustering>
<clus scale="   76.232">  5  6 -1 -1</clus>
<clus scale="   92.946">  7  8 -1 -1</clus>
<clus scale="  100.140">  1  5  2 -1</clus>
<clus scale="   75.983">  7  9 -1 -1</clus>
<clus scale="  235.250">  2  5  1 -1</clus>
</clustering>
</event>
<event>
 9    2  0.4178938E-005  0.6008924E+03  0.7546771E-02  0.1022346E+00
          2   -1    0    0  502    0 -0.00000000000E+00  0.00000000000E+00  0.12619345905E+04  0.12619345905E+04  0.00000000000E+00 0. -1.
         21   -1    0    0  501  502  0.00000000000E+00 -0.00000000000E+00 -0.16444620977E+03  0.16444620977E+03  0.00000000000E+00 0.  1.
         24    2    1    2    0    0  0.16119680080E+03  0.11320130289E+03  0.64300258915E+02  0.23116140753E+03  0.10247989789E+03 0.  0.
         23    2    1    2    0    0  0.10788801012E+03 -0.13318362997E+03  0.84331401588E+03  0.86528287617E+03  0.90322889638E+02 0.  0.
        -13    1    3    3    0    0  0.21384909752E+02  0.50338990616E+02 -0.17478397303E+02  0.57417965078E+02  0.00000000000E+00 0.  1.
         14    1    3    3    0    0  0.13981189105E+03  0.62862312271E+02  0.81778656218E+02  0.17374344245E+03  0.00000000000E+00 0. -1.
        -11    1    4    4    0    0  0.87334010466E+02 -0.12138645756E+03  0.81383185062E+03  0.82745645356E+03  0.00000000000E+00 0. -1.
         11    1    4    4    0    0  0.20553999656E+02 -0.11797172402E+02  0.29482165260E+02  0.37826422604E+02  0.00000000000E+00 0.  1.
          1    1    1    2  501    0 -0.26908481092E+03  0.19982327078E+02  0.18987410593E+03  0.32993651657E+03  0.00000000000E+00 0. -1.
<scales pt_clust_5="13000.00000" pt_clust_6="13000.00000" pt_clust_7="13000.00000" pt_clust_8="13000.00000" pt_clust_9="13000.00000"></scales>
<clustering>
<clus scale="   90.323">  7  8 -1 -1</clus>
<clus scale="  102.480">  5  6 -1 -1</clus>
<clus scale="  222.039">  1  5  2 -1</clus>
<clus scale="  236.086">  7  9 -1 -1</clus>
<clus scale="  600.892">  2  5  1 -1</clus>
</clustering>
</event>
<event>
 9    2  0.4178938E-005  0.2135340E+03  0.7546771E-02  0.1162884E+00
         21   -1    0    0  501  502  0.00000000000E+00  0.00000000000E+00  0.83926672739E+02  0.83926672739E+02  0.00000000000E+00 0. -1.
          2   -1    0    0  502    0 -0.00000000000E+00 -0.00000000000E+00 -0.44743022985E+03  0.44743022985E+03  0.00000000000E+00 0. -1.
         24    2    1    2    0    0  0.43082562719E+02 -0.79667675374E+02 -0.13721199573E+02  0.12154663116E+03  0.79889088856E+02 0.  0.
         23    2    1    2    0    0  0.21714115943E+02 -0.18157205364E+02 -0.18100068937E+03  0.20424867880E+03  0.90305516441E+02 0.  0.
        -13    1    3    3    0    0  0.83425745570E+01 -0.21356348198E+02  0.32249121603E+02  0.39568901966E+02  0.00000000000E+00 0.  1.
         14    1    3    3    0    0  0.34739988162E+02 -0.58311327176E+02 -0.45970321176E+02  0.81977729192E+02  0.00000000000E+00 0. -1.
        -13    1    4    4    0    0  0.81696937767E+01 -0.43457335789E+02 -0.16615561640E+03  0.17193886352E+03  0.00000000000E+00 0.  1.
         13    1    4    4    0    0  0.13544422166E+02  0.25300130425E+02 -0.14845072976E+02  0.32309815273E+02  0.00000000000E+00 0. -1.
          1    1    1    2  501    0 -0.64796678662E+02  0.97824880739E+02 -0.16878166817E+03  0.20556159264E+03  0.00000000000E+00 0. -1.
<scales pt_clust_5="13000.00000" pt_clust_6="13000.00000" pt_clust_7="13000.00000" pt_clust_8="13000.00000" pt_clust_9="13000.00000"></scales>
<clustering>
<clus scale="   79.889">  5  6 -1 -1</clus>
<clus scale="   90.306">  7  8 -1 -1</clus>
<clus scale="  117.339">  7  9 -1 -1</clus>
<clus scale="  120.770">  2  5  1 -1</clus>
<clus scale="  213.534">  1  5  2 -1</clus>
</clustering>
</event>
<event>
 9    2  0.5796469E-005  0.7376144E+03  0.7546771E-02  0.9895621E-01
          2   -1    0    0  502    0 -0.00000000000E+00  0.00000000000E+00  0.85041762137E+03  0.85041762137E+03  0.00000000000E+00 0. -1.
         21   -1    0    0  501  502  0.00000000000E+00 -0.00000000000E+00 -0.36075322932E+03  0.36075322932E+03  0.00000000000E+00 0. -1.
         24    2    1    2    0    0  0.32163551316E+03  0.37574311117E+02  0.14140516654E+02  0.33356158236E+03  0.78753684587E+02 0.  0.
         23    2    1    2    0    0  0.14666572906E+03 -0.41502839668E+02 -0.39547096882E+02  0.18146302415E+03  0.90175021383E+02 0.  0.
        -11    1    3    3    0    0  0.14737548872E+03 -0.19801862337E+02 -0.71251136884E+01  0.14887046609E+03  0.00000000000E+00 0.  1.
         12    1    3    3    0    0  0.17426002444E+03  0.57376173454E+02  0.21265630343E+02  0.18469111627E+03  0.00000000000E+00 0. -1.
        -13    1    4    4    0    0  0.63392227367E+02  0.18182363912E+02  0.11585636234E+02  0.66958194531E+02  0.00000000000E+00 0. -1.
         13    1    4    4    0    0  0.83273501695E+02 -0.59685203580E+02 -0.51132733115E+02  0.11450482962E+03  0.00000000000E+00 0.  1.
          1    1    1    2  501    0 -0.46830124222E+03  0.39285285507E+01  0.51507097227E+03  0.69614624418E+03  0.00000000000E+00 0. -1.
<scales pt_clust_5="13000.00000" pt_clust_6="13000.00000" pt_clust_7="13000.00000" pt_clust_8="13000.00000" pt_clust_9="13000.00000"></scales>
<clustering>
<clus scale="   78.754">  5  6 -1 -1</clus>
<clus scale="   90.175">  7  8 -1 -1</clus>
<clus scale="  333.262">  1  5  2 -1</clus>
<clus scale="  184.268">  7  9 -1 -1</clus>
<clus scale="  737.614">  2  5  1 -1</clus>
</clustering>
</event>
<event>
 9    2  0.4178938E-005  0.1896281E+03  0.7546771E-02  0.1180131E+00
         21   -1    0    0  501  502  0.00000000000E+00  0.00000000000E+00  0.41333790344E+02  0.41333790344E+02  0.00000000000E+00 0.  1.
          2   -1    0    0  502    0 -0.00000000000E+00 -0.00000000000E+00 -0.61637274663E+03  0.61637274663E+03  0.00000000000E+00 0. -1.
         24    2    1    2    0    0 -0.82853740754E+02 -0.12674463117E+02 -0.13298464081E+03  0.17669630162E+03  0.80692527176E+02 0.  0.
         23    2    1    2    0    0 -0.12270476872E+02  0.14348775721E+02 -0.26767424658E+03  0.28236525422E+03  0.87887328676E+02 0.  0.
        -11    1    3    3    0    0 -0.28914532980E+01  0.26006432267E+02 -0.19775799420E+02  0.32799043647E+02  0.00000000000E+00 0.  1.
         12    1    3    3    0    0 -0.79962287456E+02 -0.38680895384E+02 -0.11320884139E+03  0.14389725797E+03  0.00000000000E+00 0. -1.
        -13    1    4    4    0    0 -0.33848314893E+02 -0.26864547578E+02 -0.12054913962E+03  0.12806056146E+03  0.00000000000E+00 0.  1.
         13    1    4    4    0    0  0.21577838020E+02  0.41213323299E+02 -0.14712510696E+03  0.15430469276E+03  0.00000000000E+00 0. -1.
          1    1    1    2  501    0  0.95124217626E+02 -0.16743126038E+01 -0.17438006890E+03  0.19864498114E+03  0.00000000000E+00 0. -1.
<scales pt_clust_5="13000.00000" pt_clust_6="13000.00000" pt_clust_7="13000.00000" pt_clust_8="13000.00000" pt_clust_9="13000.00000"></scales>
<clustering>
<clus scale="   80.693">  5  6 -1 -1</clus>
<clus scale="   87.887">  7  8 -1 -1</clus>
<clus scale="   95.139">  7  9 -1 -1</clus>
<clus scale="  116.347">  2  5  1 -1</clus>
<clus scale="  189.628">  1  5  2 -1</clus>
</clustering>
</event>
<event>
 9    2  0.4178938E-005  0.3423911E+03  0.7546771E-02  0.1113257E+00
          2   -1    0    0  502    0 -0.00000000000E+00  0.00000000000E+00  0.45983059478E+03  0.45983059478E+03  0.00000000000E+00 0. -1.
         21   -1    0    0  501  502  0.00000000000E+00 -0.00000000000E+00 -0.11441367817E+03  0.11441367817E+03  0.00000000000E+00 0. -1.
         24    2    1    2    0    0 -0.11268043239E+02  0.53562044838E+02  0.15297631258E+02  0.98628438799E+02  0.80608250025E+02 0.  0.
         23    2    1    2    0    0  0.12303226403E+03  0.27465020053E+02  0.29373313874E+03  0.33285527252E+03  0.92855857829E+02 0.  0.
        -11    1    3    3    0    0  0.29813407492E+02 -0.55729390811E-02  0.68981617408E+01  0.30601044635E+02  0.00000000000E+00 0.  1.
         12    1    3    3    0    0 -0.41081450731E+02  0.53567617778E+02  0.83994695170E+01  0.68027394164E+02  0.00000000000E+00 0. -1.
        -11    1    4    4    0    0  0.95538567930E+01  0.39543139957E+02  0.10077974224E+03  0.10868069076E+03  0.00000000000E+00 0. -1.
         11    1    4    4    0    0  0.11347840723E+03 -0.12078119903E+02  0.19295339649E+03  0.22417458176E+03  0.00000000000E+00 0.  1.
          1    1    1    2  501    0 -0.11176422079E+03 -0.81027064892E+02  0.36386146614E+02  0.14276056164E+03  0.00000000000E+00 0. -1.
<scales pt_clust_5="13000.00000" pt_clust_6="13000.00000" pt_clust_7="13000.00000" pt_clust_8="13000.00000" pt_clust_9="13000.00000"></scales>
<clustering>
<clus scale="   80.608">  5  6 -1 -1</clus>
<clus scale="   92.856">  7  8 -1 -1</clus>
<clus scale="   97.435">  1  5  2 -1</clus>
<clus scale="  133.547">  7  9 -1 -1</clus>
<clus scale="  342.391">  2  5  1 -1</clus>
</clustering>
</event>
<event>
 9    2  0.4178938E-005  0.1684986E+03  0.7546771E-02  0.1195375E+00
          2   -1    0    0  502    0 -0.00000000000E+00  0.00000000000E+00  0.52733116654E+03  0.52733116654E+03  0.00000000000E+00 0. -1.
         21   -1    0    0  501  502  0.00000000000E+00 -0.00000000000E+00 -0.48253186100E+02  0.48253186100E+02  0.00000000000E+00 0. -1.
         24    2    1    2    0    0 -0.23640219255E+02 -0.83747653557E+02  0.33019484561E+03  0.35073334127E+03  0.80079405414E+02 0.  0.
         23    2    1    2    0    0 -0.15277131550E+02  0.21104597796E+02  0.83532543315E+02  0.12631466051E+03  0.91098369195E+02 0.  0.
        -13    1    3    3    0    0 -0.23786916013E+02 -0.51922386991E+02  0.78734482587E+02  0.97267005672E+02  0.00000000000E+00 0.  1.
         14    1    3    3    0    0  0.14669675798E+00 -0.31825266566E+02  0.25146036302E+03  0.25346633560E+03  0.00000000000E+00 0. -1.
        -11    1    4    4    0    0  0.31055158980E+02 -0.15789135735E+02  0.23766427070E+02  0.42173009878E+02  0.00000000000E+00 0.  1.
         11    1    4    4    0    0 -0.46332290530E+02  0.36893733531E+02  0.59766116245E+02  0.84141650629E+02  0.00000000000E+00 0. -1.
          1    1    1    2  501    0  0.38917350805E+02  0.62643055761E+02  0.65350591516E+02  0.98536350857E+02  0.00000000000E+00 0. -1.
<scales pt_clust_5="13000.00000" pt_clust_6="13000.00000" pt_clust_7="13000.00000" pt_clust_8="13000.00000" pt_clust_9="13000.00000"></scales>
<clustering>
<clus scale="   80.079">  5  6 -1 -1</clus>
<clus scale="   91.098">  7  8 -1 -1</clus>
<clus scale="   73.748">  7  9 -1 -1</clus>
<clus scale="  118.259">  1  5  2 -1</clus>
<clus scale="  168.499">  2  5  1 -1</clus>
</clustering>
</event>
<event>
 9    2  0.4178938E-005  0.5924454E+03  0.7546771E-02  0.1057103E+00
          2   -1    0    0  502    0 -0.00000000000E+00  0.00000000000E+00  0.23778427937E+04  0.23778427937E+04  0.00000000000E+00 0. -1.
         21   -1    0    0  501  502  0.00000000000E+00 -0.00000000000E+00 -0.48410095318E+02  0.48410095318E+02  0.00000000000E+00 0. -1.
         24    2    1    2    0    0  0.15314199083E+02  0.18088659302E+02  0.23452909333E+03  0.24918773747E+03  0.80801662107E+02 0.  0.
         23    2    1    2    0    0 -0.20901379234E+02 -0.29515611621E+03  0.12602771545E+04  0.12976341399E+04  0.89453084524E+02 0.  0.
        -11    1    3    3    0    0  0.12841579856E+02 -0.31774031940E+02  0.93488069362E+02  0.99571654560E+02  0.00000000000E+00 0.  1.
         12    1    3    3    0    0  0.24726192273E+01  0.49862691242E+02  0.14104102397E+03  0.14961608291E+03  0.00000000000E+00 0. -1.
        -13    1    4    4    0    0 -0.42368701998E+02 -0.27625889919E+03  0.11089142905E+04  0.11435930177E+04  0.00000000000E+00 0. -1.
         13    1    4    4    0    0  0.21467322764E+02 -0.18897217017E+02  0.15136286395E+03  0.15404112224E+03  0.00000000000E+00 0.  1.
          1    1    1    2  501    0  0.55871801509E+01  0.27706745690E+03  0.83462645053E+03  0.87943101161E+03  0.00000000000E+00 0. -1.
<scales pt_clust_5="13000.00000" pt_clust_6="13000.00000" pt_clust_7="13000.00000" pt_clust_8="13000.00000" pt_clust_9="13000.00000"></scales>
<clustering>
<clus scale="   80.802">  5  6 -1 -1</clus>
<clus scale="   84.206">  1  5  2 -1</clus>
<clus scale="   89.453">  7  8 -1 -1</clus>
<clus scale="  284.567">  7  9 -1 -1</clus>
<clus scale="  592.445">  2  5  1 -1</clus>
</clustering>
</event>
<event>
 9    2  0.4178938E-005  0.2526015E+03  0.7546771E-02  0.1144681E+00
         21   -1    0    0  501  502  0.00000000000E+00  0.00000000000E+00  0.42382835391E+02  0.42382835391E+02  0.00000000000E+00 0. -1.
          2   -1    0    0  502    0 -0.00000000000E+00 -0.00000000000E+00 -0.96316717883E+03  0.96316717883E+03  0.00000000000E+00 0. -1.
         24    2    1    2    0    0 -0.77079719809E+02  0.12409964531E+02 -0.11255408985E+03  0.15876571319E+03  0.80267291694E+02 0.  0.
         23    2    1    2    0    0 -0.24622645211E+02 -0.54365433689E+02 -0.18700359533E+03  0.21589112991E+03  0.89870797648E+02 0.  0.
        -11    1    3    3    0    0 -0.33321190504E+02 -0.27354416516E+02 -0.80969780262E+02  0.91731516695E+02  0.00000000000E+00 0.  1.
         12    1    3    3    0    0 -0.43758529305E+02  0.39764381047E+02 -0.31584309589E+02  0.67034196491E+02  0.00000000000E+00 0. -1.
        -13    1    4    4    0    0 -0.23664069078E+02  0.17041862960E+02 -0.95293650867E+02  0.99655873655E+02  0.00000000000E+00 0.  1.
         13    1    4    4    0    0 -0.95857613238E+00 -0.71407296650E+02 -0.91709944465E+02  0.11623525626E+03  0.00000000000E+00 0. -1.
          1    1    1    2  501    0  0.10170236502E+03  0.41955469158E+02 -0.62122665825E+03  0.63089317112E+03  0.00000000000E+00 0. -1.
<scales pt_clust_5="13000.00000" pt_clust_6="13000.00000" pt_clust_7="13000.00000" pt_clust_8="13000.00000" pt_clust_9="13000.00000"></scales>
<clustering>
<clus scale="   80.267">  5  6 -1 -1</clus>
<clus scale="   89.871">  7  8 -1 -1</clus>
<clus scale="  110.017">  7  9 -1 -1</clus>
<clus scale="  111.974">  2  5  1 -1</clus>
<clus scale="  252.601">  1  5  2 -1</clus>
</clustering>
</event>
<event>
 9    2  0.4178938E-005  0.4290909E+03  0.7546771E-02  0.1045082E+00
          2   -1    0    0  502    0 -0.00000000000E+00  0.00000000000E+00  0.87428744887E+03  0.87428744887E+03  0.00000000000E+00 0. -1.
         21   -1    0    0  501  502  0.00000000000E+00 -0.00000000000E+00 -0.15740195530E+03  0.15740195530E+03  0.00000000000E+00 0. -1.
         24    2    1    2    0    0 -0.26467522727E+03 -0.14235965028E+03  0.32484339142E+03  0.45047002152E+03  0.84147283851E+02 0.  0.
         23    2    1    2    0    0 -0.16830057374E+02 -0.36460603821E+02  0.10281251551E+03  0.13977214645E+03  0.85750878220E+02 0.  0.
        -11    1    3    3    0    0 -0.20922033542E+03 -0.70786841059E+02  0.24357059885E+03  0.32880170657E+03  0.00000000000E+00 0.  1.
         12    1    3    3    0    0 -0.55454891848E+02 -0.71572809221E+02  0.81272792574E+02  0.12166831495E+03  0.00000000000E+00 0. -1.
        -13    1    4    4    0    0  0.16474143872E+02 -0.31450672658E+02  0.44235810073E+01  0.35778629039E+02  0.00000000000E+00 0.  1.
         13    1    4    4    0    0 -0.33304201245E+02 -0.50099311626E+01  0.98388934508E+02  0.10399351742E+03  0.00000000000E+00 0. -1.
          1    1    1    2  501    0  0.28150528464E+03  0.17882025410E+03  0.28922958664E+03  0.44144723620E+03  0.00000000000E+00 0. -1.
<scales pt_clust_5="13000.00000" pt_clust_6="13000.00000" pt_clust_7="13000.00000" pt_clust_8="13000.00000" pt_clust_9="13000.00000"></scales>
<clustering>
<clus scale="   84.147">  5  6 -1 -1</clus>
<clus scale="   85.751">  7  8 -1 -1</clus>
<clus scale="  312.090">  1  5  2 -1</clus>
<clus scale="  109.689">  7  9 -1 -1</clus>
<clus scale="  429.091">  2  5  1 -1</clus>
</clustering>
</event>
<event>
 9    2  0.4178938E-005  0.3557199E+03  0.7546771E-02  0.1097832E+00
         21   -1    0    0  501  502  0.00000000000E+00  0.00000000000E+00  0.33558874343E+02  0.33558874343E+02  0.00000000000E+00 0.  1.
          2   -1    0    0  502    0 -0.00000000000E+00 -0.00000000000E+00 -0.17512433443E+04  0.17512433443E+04  0.00000000000E+00 0. -1.
         24    2    1    2    0    0  0.74066343527E+02 -0.67894891749E+02 -0.45484175641E+03  0.47281580834E+03  0.81106261582E+02 0.  0.
         23    2    1    2    0    0  0.69516060918E+02 -0.81613954658E+02 -0.37958991255E+03  0.40473544586E+03  0.90713610368E+02 0.  0.
        -13    1    3    3    0    0  0.39403719171E+02 -0.33702248126E+02 -0.83453659423E+02  0.98249722057E+02  0.00000000000E+00 0.  1.
         14    1    3    3    0    0  0.34662624356E+02 -0.34192643623E+02 -0.37138809699E+03  0.37456608628E+03  0.00000000000E+00 0. -1.
        -11    1    4    4    0    0  0.86669615468E+02 -0.56946840131E+02 -0.33713554371E+03  0.35272501992E+03  0.00000000000E+00 0.  1.
         11    1    4    4    0    0 -0.17153554550E+02 -0.24667114527E+02 -0.42454368841E+02  0.52010425940E+02  0.00000000000E+00 0. -1.
          1    1    1    2  501    0 -0.14358240444E+03  0.14950884641E+03 -0.88325280098E+03  0.90725096443E+03  0.00000000000E+00 0. -1.
<scales pt_clust_5="13000.00000" pt_clust_6="13000.00000" pt_clust_7="13000.00000" pt_clust_8="13000.00000" pt_clust_9="13000.00000"></scales>
<clustering>
<clus scale="   81.106">  5  6 -1 -1</clus>
<clus scale="   90.714">  7  8 -1 -1</clus>
<clus scale="  129.127">  2  5  1 -1</clus>
<clus scale="  137.632">  7  9 -1 -1</clus>
<clus scale="  355.720">  1  5  2 -1</clus>
</clustering>
</event>
<event>
 9    2  0.4178938E-005  0.3152753E+03  0.7546771E-02  0.1112508E+00
         21   -1    0    0  501  502  0.00000000000E+00  0.00000000000E+00  0.16265320708E+03  0.16265320708E+03  0.00000000000E+00 0. -1.
          4   -1    0    0  502    0 -0.00000000000E+00 -0.00000000000E+00 -0.30441250977E+03  0.30441250977E+03  0.00000000000E+00 0. -1.
         24    2    1    2    0    0  0.31738728117E+02  0.93899162278E+02 -0.63800729805E+02  0.14229498610E+03  0.79705272146E+02 0.  0.
         23    2    1    2    0    0  0.11821984036E+03 -0.62438361310E+02 -0.41447649833E+02  0.16725755111E+03  0.91557092068E+02 0.  0.
        -11    1    3    3    0    0  0.48559690832E+02  0.38595484759E+02 -0.56729547830E+02  0.84058887778E+02  0.00000000000E+00 0.  1.
         12    1    3    3    0    0 -0.16820962715E+02  0.55303677519E+02 -0.70711819750E+01  0.58236098327E+02  0.00000000000E+00 0. -1.
        -11    1    4    4    0    0  0.62133496651E+02 -0.48138833856E+02 -0.67667617342E+02  0.10371511543E+03  0.00000000000E+00 0.  1.
         11    1    4    4    0    0  0.56086343712E+02 -0.14299527453E+02  0.26219967509E+02  0.63542435683E+02  0.00000000000E+00 0. -1.
          3    1    1    2  501    0 -0.14995856848E+03 -0.31460800968E+02 -0.36510923052E+02  0.15751317964E+03  0.00000000000E+00 0. -1.
<scales pt_clust_5="13000.00000" pt_clust_6="13000.00000" pt_clust_7="13000.00000" pt_clust_8="13000.00000" pt_clust_9="13000.00000"></scales>
<clustering>
<clus scale="   79.705">  5  6 -1 -1</clus>
<clus scale="   91.557">  7  8 -1 -1</clus>
<clus scale="  127.190">  2  5  1 -1</clus>
<clus scale="  135.371">  7  9 -1 -1</clus>
<clus scale="  315.275">  1  5  2 -1</clus>
</clustering>
</event>
<event>
 9    2  0.4229514E-005  0.4296723E+03  0.7546771E-02  0.1052598E+00
          2   -1    0    0  502    0 -0.00000000000E+00  0.00000000000E+00  0.17001616861E+03  0.17001616861E+03  0.00000000000E+00 0. -1.
         21   -1    0    0  501  502  0.00000000000E+00 -0.00000000000E+00 -0.68341641423E+03  0.68341641423E+03  0.00000000000E+00 0. -1.
         24    2    1    2    0    0 -0.68598908535E+02  0.22719996123E+03 -0.16351675829E+03  0.29932365818E+03  0.80816393578E+02 0.  0.
         23    2    1    2    0    0  0.74855034191E+02  0.54254119286E+02 -0.43566391099E+02  0.13807322667E+03  0.92840723210E+02 0.  0.
        -11    1    3    3    0    0 -0.70109136100E+01  0.48525379469E+02 -0.77434228458E+02  0.91651105281E+02  0.00000000000E+00 0.  1.
         12    1    3    3    0    0 -0.61587994925E+02  0.17867458176E+03 -0.86082529832E+02  0.20767255290E+03  0.00000000000E+00 0. -1.
        -13    1    4    4    0    0 -0.16545828794E+02  0.20611007051E+02  0.83320001705E+01  0.27712818135E+02  0.00000000000E+00 0.  1.
         13    1    4    4    0    0  0.91400862985E+02  0.33643112235E+02 -0.51898391270E+02  0.11036040853E+03  0.00000000000E+00 0. -1.
          1    1    1    2  501    0 -0.62561256560E+01 -0.28145408052E+03 -0.30631709623E+03  0.41603569798E+03  0.00000000000E+00 0. -1.
<scales pt_clust_5="13000.00000" pt_clust_6="13000.00000" pt_clust_7="13000.00000" pt_clust_8="13000.00000" pt_clust_9="13000.00000"></scales>
<clustering>
<clus scale="   80.816">  5  6 -1 -1</clus>
<clus scale="   92.841">  7  8 -1 -1</clus>
<clus scale="  250.713">  1  5  2 -1</clus>
<clus scale="  165.120">  7  9 -1 -1</clus>
<clus scale="  429.672">  2  5  1 -1</clus>
</clustering>
</event>
<event>
 9    2  0.4178938E-005  0.2098283E+03  0.7546771E-02  0.1160036E+00
         21   -1    0    0  501  502  0.00000000000E+00  0.00000000000E+00  0.61183822000E+03  0.61183822000E+03  0.00000000000E+00 0. -1.
          2   -1    0    0  502    0 -0.00000000000E+00 -0.00000000000E+00 -0.14064657025E+03  0.14064657025E+03  0.00000000000E+00 0. -1.
         24    2    1    2    0    0  0.22670243259E+02 -0.10750361841E+03 -0.83403361891E+02  0.15952311435E+03  0.80128243062E+02 0.  0.
         23    2    1    2    0    0 -0.14420028512E+01  0.21995391950E+01  0.15239813953E+03  0.17666621445E+03  0.89324358670E+02 0.  0.
        -13    1    3    3    0    0 -0.28826119503E+02 -0.31305306045E+02 -0.37572256044E+02  0.56768316660E+02  0.00000000000E+00 0.  1.
         14    1    3    3    0    0  0.51496362762E+02 -0.76198312362E+02 -0.45831105847E+02  0.10275479769E+03  0.00000000000E+00 0. -1.
        -13    1    4    4    0    0 -0.34828234187E+02 -0.23365958726E+02  0.45944395052E+02  0.62208209751E+02  0.00000000000E+00 0. -1.
         13    1    4    4    0    0  0.33386231336E+02  0.25565497921E+02  0.10645374448E+03  0.11445800470E+03  0.00000000000E+00 0.  1.
          1    1    1    2  501    0 -0.21228240408E+02  0.10530407921E+03  0.40219687211E+03  0.41629546145E+03  0.00000000000E+00 0. -1.
<scales pt_clust_5="13000.00000" pt_clust_6="13000.00000" pt_clust_7="13000.00000" pt_clust_8="13000.00000" pt_clust_9="13000.00000"></scales>
<clustering>
<clus scale="   80.128">  5  6 -1 -1</clus>
<clus scale="   89.324">  7  8 -1 -1</clus>
<clus scale="  107.423">  7  9 -1 -1</clus>
<clus scale="  135.983">  2  5  1 -1</clus>
<clus scale="  209.828">  1  5  2 -1</clus>
</clustering>
</event>
<event>
 9    2  0.4178938E-005  0.2184351E+03  0.7546771E-02  0.1173581E+00
         -1   -1    0    0    0  501 -0.00000000000E+00  0.00000000000E+00  0.40226219989E+03  0.40226219989E+03  0.00000000000E+00 0.  1.
         21   -1    0    0  501  502  0.00000000000E+00 -0.00000000000E+00 -0.73604511108E+02  0.73604511108E+02  0.00000000000E+00 0. -1.
         24    2    1    2    0    0  0.26683264065E+02 -0.22267544213E+02  0.20884248684E+03  0.22672902183E+03  0.81135842403E+02 0.  0.
         23    2    1    2    0    0  0.31393344174E+02  0.16733099760E+02 -0.17950241497E+02  0.99528732535E+02  0.91204269331E+02 0.  0.
        -11    1    3    3    0    0  0.49702855641E+02 -0.59285398739E+01  0.76581113410E+02  0.91488733596E+02  0.00000000000E+00 0.  1.
         12    1    3    3    0    0 -0.23019591575E+02 -0.16339004339E+02  0.13226137343E+03  0.13524028823E+03  0.00000000000E+00 0. -1.
        -13    1    4    4    0    0  0.17645564206E+01  0.50808274642E+02  0.26105358323E+00  0.50839576910E+02  0.00000000000E+00 0. -1.
         13    1    4    4    0    0  0.29628787754E+02 -0.34075174882E+02 -0.18211295080E+02  0.48689155625E+02  0.00000000000E+00 0.  1.
         -2    1    1    2    0  502 -0.58076608240E+02  0.55344444531E+01  0.13776544343E+03  0.14960895663E+03  0.00000000000E+00 0.  1.
<scales pt_clust_5="13000.00000" pt_clust_6="13000.00000" pt_clust_7="13000.00000" pt_clust_8="13000.00000" pt_clust_9="13000.00000"></scales>
<clustering>
<clus scale="   81.136">  5  6 -1 -1</clus>
<clus scale="   88.266">  1  5  2 -1</clus>
<clus scale="   91.204">  7  8 -1 -1</clus>
<clus scale="   39.118">  7  9 -1 -1</clus>
<clus scale="  218.435">  2  5  1 -1</clus>
</clustering>
</event>
<event>
 9    2  0.4178938E-005  0.3802249E+03  0.7546771E-02  0.1103630E+00
         21   -1    0    0  501  502  0.00000000000E+00  0.00000000000E+00  0.56076089390E+03  0.56076089390E+03  0.00000000000E+00 0. -1.
          2   -1    0    0  502    0 -0.00000000000E+00 -0.00000000000E+00 -0.10206209545E+03  0.10206209545E+03  0.00000000000E+00 0. -1.
         24    2    1    2    0    0  0.25377371458E+02  0.43525300672E+02  0.47005910005E+02  0.10241060930E+03  0.75762223714E+02 0.  0.
         23    2    1    2    0    0 -0.15675434706E+03 -0.11462513092E+03  0.15945765462E+03  0.26726103900E+03  0.91054233235E+02 0.  0.
        -13    1    3    3    0    0  0.28007360146E+02  0.40123722191E+02 -0.59394036953E+01  0.49290991276E+02  0.00000000000E+00 0.  1.
         14    1    3    3    0    0 -0.26299886879E+01  0.34015784809E+01  0.52945313700E+02  0.53119618028E+02  0.00000000000E+00 0. -1.
        -11    1    4    4    0    0 -0.15429819088E+03 -0.93261398755E+02  0.10483310814E+03  0.20855598953E+03  0.00000000000E+00 0. -1.
         11    1    4    4    0    0 -0.24561561791E+01 -0.21363732162E+02  0.54624546479E+02  0.58705049468E+02  0.00000000000E+00 0.  1.
          1    1    1    2  501    0  0.13137697560E+03  0.71099830245E+02  0.25223523382E+03  0.29315134105E+03  0.00000000000E+00 0. -1.
<scales pt_clust_5="13000.00000" pt_clust_6="13000.00000" pt_clust_7="13000.00000" pt_clust_8="13000.00000" pt_clust_9="13000.00000"></scales>
<clustering>
<clus scale="   75.762">  5  6 -1 -1</clus>
<clus scale="   90.986">  2  5  1 -1</clus>
<clus scale="   91.054">  7  8 -1 -1</clus>
<clus scale="  161.383">  7  9 -1 -1</clus>
<clus scale="  380.225">  1  5  2 -1</clus>
</clustering>
</event>
<event>
 9    2  0.4178938E-005  0.4834433E+03  0.7546771E-02  0.1066835E+00
         21   -1    0    0  501  502  0.00000000000E+00  0.00000000000E+00  0.27121191776E+03  0.27121191776E+03  0.00000000000E+00 0. -1.
          2   -1    0    0  502    0 -0.00000000000E+00 -0.00000000000E+00 -0.34991845995E+03  0.34991845995E+03  0.00000000000E+00 0. -1.
         24    2    1    2    0    0  0.55843960218E+02 -0.62863113307E+02  0.37435606210E+02  0.12393183262E+03  0.82990093486E+02 0.  0.
         23    2    1    2    0    0  0.31097742130E+02 -0.74458988214E+02  0.14502037613E+03  0.18959151755E+03  0.91666916289E+02 0.  0.
        -13    1    3    3    0    0  0.57390270084E+02 -0.13730118798E+02  0.44981100617E+02  0.74198778125E+02  0.00000000000E+00 0.  1.
         14    1    3    3    0    0 -0.15463098652E+01 -0.49132994509E+02 -0.75454944072E+01  0.49733054496E+02  0.00000000000E+00 0. -1.
        -11    1    4    4    0    0  0.31214030212E+02 -0.11437927559E+02  0.11514459754E+03  0.11984748730E+03  0.00000000000E+00 0. -1.
         11    1    4    4    0    0 -0.11628808143E+00 -0.63021060656E+02  0.29875778589E+02  0.69744030249E+02  0.00000000000E+00 0.  1.
          1    1    1    2  501    0 -0.86941702349E+02  0.13732210152E+03 -0.26116252453E+03  0.30760702754E+03  0.00000000000E+00 0. -1.
<scales pt_clust_5="13000.00000" pt_clust_6="13000.00000" pt_clust_7="13000.00000" pt_clust_8="13000.00000" pt_clust_9="13000.00000"></scales>
<clustering>
<clus scale="   82.990">  5  6 -1 -1</clus>
<clus scale="   91.667">  7  8 -1 -1</clus>
<clus scale="  118.143">  2  5  1 -1</clus>
<clus scale="   86.494">  7  9 -1 -1</clus>
<clus scale="  483.443">  1  5  2 -1</clus>
</clustering>
</event>
<event>
 9    2  0.4178938E-005  0.2453027E+03  0.7546771E-02  0.1160486E+00
         21   -1    0    0  501  502  0.00000000000E+00  0.00000000000E+00  0.12982817771E+03  0.12982817771E+03  0.00000000000E+00 0.  1.
          2   -1    0    0  502    0 -0.00000000000E+00 -0.00000000000E+00 -0.30428951047E+03  0.30428951047E+03  0.00000000000E+00 0. -1.
         24    2    1    2    0    0  0.14757905939E+01  0.25618244614E+02 -0.16892132062E+03  0.18875246056E+03  0.80215998341E+02 0.  0.
         23    2    1    2    0    0  0.18708134776E+02  0.36847863980E+02  0.86139945986E+02  0.13260610255E+03  0.91959386428E+02 0.  0.
        -13    1    3    3    0    0 -0.31665482046E+02 -0.88750189393E+01 -0.43594424009E+02  0.54607165456E+02  0.00000000000E+00 0.  1.
         14    1    3    3    0    0  0.33141272640E+02  0.34493263554E+02 -0.12532689662E+03  0.13414529510E+03  0.00000000000E+00 0. -1.
        -11    1    4    4    0    0  0.47590340465E+02  0.20508661297E+02  0.84818383212E+02  0.99396196227E+02  0.00000000000E+00 0.  1.
         11    1    4    4    0    0 -0.28882205689E+02  0.16339202683E+02  0.13215627743E+01  0.33209906322E+02  0.00000000000E+00 0. -1.
          1    1    1    2  501    0 -0.20183925370E+02 -0.62466108594E+02 -0.91679958126E+02  0.11275912508E+03  0.00000000000E+00 0. -1.
<scales pt_clust_5="13000.00000" pt_clust_6="13000.00000" pt_clust_7="13000.00000" pt_clust_8="13000.00000" pt_clust_9="13000.00000"></scales>
<clustering>
<clus scale="   80.216">  5  6 -1 -1</clus>
<clus scale="   84.220">  2  5  1 -1</clus>
<clus scale="   91.959">  7  8 -1 -1</clus>
<clus scale="   45.719">  7  9 -1 -1</clus>
<clus scale="  245.303">  1  5  2 -1</clus>
</clustering>
</event>
<event>
 9    2  0.4178938E-005  0.4880178E+03  0.7546771E-02  0.1050489E+00
         -3   -1    0    0    0  501 -0.00000000000E+00  0.00000000000E+00  0.10624301483E+03  0.10624301483E+03  0.00000000000E+00 0.  1.
         21   -1    0    0  501  502  0.00000000000E+00 -0.00000000000E+00 -0.12735740840E+04  0.12735740840E+04  0.00000000000E+00 0.  1.
         24    2    1    2    0    0  0.14736702490E+03 -0.69671515309E+02 -0.10280687120E+03  0.20876066679E+03  0.80253368501E+02 0.  0.
         23    2    1    2    0    0 -0.12632597073E+03  0.20418242269E+03 -0.97467456887E+03  0.10079341895E+04  0.91060982725E+02 0.  0.
        -11    1    3    3    0    0  0.29197184945E+01 -0.22844242517E+02 -0.36294463209E+02  0.42984558063E+02  0.00000000000E+00 0.  1.
         12    1    3    3    0    0  0.14444730641E+03 -0.46827272792E+02 -0.66512407996E+02  0.16577610872E+03  0.00000000000E+00 0. -1.
        -11    1    4    4    0    0 -0.82671130151E+02  0.13664621034E+03 -0.79791548018E+03  0.81374186083E+03  0.00000000000E+00 0. -1.
         11    1    4    4    0    0 -0.43654840576E+02  0.67536212350E+02 -0.17675908869E+03  0.19419232868E+03  0.00000000000E+00 0.  1.
         -4    1    1    2    0  502 -0.21041054175E+02 -0.13451090738E+03 -0.89849629139E+02  0.16312224257E+03  0.00000000000E+00 0.  1.
<scales pt_clust_5="13000.00000" pt_clust_6="13000.00000" pt_clust_7="13000.00000" pt_clust_8="13000.00000" pt_clust_9="13000.00000"></scales>
<clustering>
<clus scale="   80.253">  5  6 -1 -1</clus>
<clus scale="   91.061">  7  8 -1 -1</clus>
<clus scale="  136.147">  7  9 -1 -1</clus>
<clus scale="  181.691">  1  5  2 -1</clus>
<clus scale="  488.018">  2  5  1 -1</clus>
</clustering>
</event>
<event>
 9    2  0.4178938E-005  0.5602099E+03  0.7546771E-02  0.1050216E+00
          2   -1    0    0  502    0 -0.00000000000E+00  0.00000000000E+00  0.22751806174E+04  0.22751806174E+04  0.00000000000E+00 0. -1.
         21   -1    0    0  501  502  0.00000000000E+00 -0.00000000000E+00 -0.51133873226E+02  0.51133873226E+02  0.00000000000E+00 0. -1.
         24    2    1    2    0    0 -0.26818066519E+02  0.85455908893E+02  0.44299189914E+03  0.45923348453E+03  0.81434940606E+02 0.  0.
         23    2    1    2    0    0 -0.24682311572E+03 -0.42787802414E+01  0.10445843756E+04  0.10772342012E+04  0.91307437351E+02 0.  0.
        -13    1    3    3    0    0 -0.23256785167E+02  0.15409971418E+02  0.32673487064E+02  0.42963962018E+02  0.00000000000E+00 0.  1.
         14    1    3    3    0    0 -0.35612813518E+01  0.70045937475E+02  0.41031841208E+03  0.41626952251E+03  0.00000000000E+00 0. -1.
        -13    1    4    4    0    0 -0.62441728885E+02 -0.27923401706E+02  0.17267945450E+03  0.18573335692E+03  0.00000000000E+00 0.  1.
         13    1    4    4    0    0 -0.18438138683E+03  0.23644621465E+02  0.87190492111E+03  0.89150084430E+03  0.00000000000E+00 0. -1.
          1    1    1    2  501    0  0.27364118224E+03 -0.81177128652E+02  0.73647046946E+03  0.78984680490E+03  0.00000000000E+00 0. -1.
<scales pt_clust_5="13000.00000" pt_clust_6="13000.00000" pt_clust_7="13000.00000" pt_clust_8="13000.00000" pt_clust_9="13000.00000"></scales>
<clustering>
<clus scale="   81.435">  5  6 -1 -1</clus>
<clus scale="   91.307">  7  8 -1 -1</clus>
<clus scale="  121.052">  1  5  2 -1</clus>
<clus scale="  266.323">  7  9 -1 -1</clus>
<clus scale="  560.210">  2  5  1 -1</clus>
</clustering>
</event>
<event>
 9    2  0.4178938E-005  0.4182009E+03  0.7546771E-02  0.1093794E+00
         21   -1    0    0  501  502  0.00000000000E+00  0.00000000000E+00  0.11290983356E+03  0.11290983356E+03  0.00000000000E+00 0. -1.
          2   -1    0    0  502    0 -0.00000000000E+00 -0.00000000000E+00 -0.61922183059E+03  0.61922183059E+03  0.00000000000E+00 0. -1.
         24    2    1    2    0    0  0.61527144330E+01 -0.32181997844E+02 -0.18413947411E+03  0.20422344551E+03  0.82014223707E+02 0.  0.
         23    2    1    2    0    0  0.15764830135E+03 -0.83189752551E+02 -0.23708558696E+03  0.31023598745E+03  0.90902533081E+02 0.  0.
        -11    1    3    3    0    0 -0.19751509926E+02 -0.44090374298E+01 -0.46566040794E+01  0.20766456534E+02  0.00000000000E+00 0.  1.
         12    1    3    3    0    0  0.25904224359E+02 -0.27772960414E+02 -0.17948287003E+03  0.18345698898E+03  0.00000000000E+00 0. -1.
        -11    1    4    4    0    0  0.14491213843E+03 -0.50649266467E+02 -0.22669450042E+03  0.27377960585E+03  0.00000000000E+00 0. -1.
         11    1    4    4    0    0  0.12736162918E+02 -0.32540486084E+02 -0.10391086543E+02  0.36456381609E+02  0.00000000000E+00 0.  1.
          1    1    1    2  501    0 -0.16380101578E+03  0.11537175039E+03 -0.85086935963E+02  0.21767223119E+03  0.00000000000E+00 0. -1.
<scales pt_clust_5="13000.00000" pt_clust_6="13000.00000" pt_clust_7="13000.00000" pt_clust_8="13000.00000" pt_clust_9="13000.00000"></scales>
<clustering>
<clus scale="   82.014">  5  6 -1 -1</clus>
<clus scale="   88.317">  2  5  1 -1</clus>
<clus scale="   90.903">  7  8 -1 -1</clus>
<clus scale="  192.133">  7  9 -1 -1</clus>
<clus scale="  418.201">  1  5  2 -1</clus>
</clustering>
</event>
<event>
 9    2  0.4178938E-005  0.3489902E+03  0.7546771E-02  0.1086327E+00
         21   -1    0    0  501  502  0.00000000000E+00  0.00000000000E+00  0.15248620877E+03  0.15248620877E+03  0.00000000000E+00 0. -1.
          2   -1    0    0  502    0 -0.00000000000E+00 -0.00000000000E+00 -0.47947258761E+03  0.47947258761E+03  0.00000000000E+00 0. -1.
         24    2    1    2    0    0  0.39991788611E+02  0.16229222719E+03 -0.16171337889E+03  0.24581204413E+03  0.79587900853E+02 0.  0.
         23    2    1    2    0    0  0.16076226878E+02  0.16797428786E+02 -0.17465882785E+03  0.19825098059E+03  0.90868842153E+02 0.  0.
        -13    1    3    3    0    0  0.58046973385E+02  0.97185425196E+02 -0.12602677084E+03  0.16940249396E+03  0.00000000000E+00 0.  1.
         14    1    3    3    0    0 -0.18055184773E+02  0.65106801995E+02 -0.35686608051E+02  0.76409550171E+02  0.00000000000E+00 0. -1.
        -11    1    4    4    0    0  0.36153364911E+02 -0.36672219946E+01 -0.21061763667E+02  0.42001335697E+02  0.00000000000E+00 0. -1.
         11    1    4    4    0    0 -0.20077138033E+02  0.20464650780E+02 -0.15359706419E+03  0.15624964490E+03  0.00000000000E+00 0.  1.
          1    1    1    2  501    0 -0.56068015490E+02 -0.17908965598E+03  0.93858279047E+01  0.18789577165E+03  0.00000000000E+00 0. -1.
<scales pt_clust_5="13000.00000" pt_clust_6="13000.00000" pt_clust_7="13000.00000" pt_clust_8="13000.00000" pt_clust_9="13000.00000"></scales>
<clustering>
<clus scale="   79.588">  5  6 -1 -1</clus>
<clus scale="   90.869">  7  8 -1 -1</clus>
<clus scale="  185.128">  2  5  1 -1</clus>
<clus scale="  133.696">  7  9 -1 -1</clus>
<clus scale="  348.990">  1  5  2 -1</clus>
</clustering>
</event>
<event>
 9    2  0.4178938E-005  0.2403350E+03  0.7546771E-02  0.1144782E+00
         21   -1    0    0  501  502  0.00000000000E+00  0.00000000000E+00  0.11656340684E+03  0.11656340684E+03  0.00000000000E+00 0. -1.
          2   -1    0    0  502    0 -0.00000000000E+00 -0.00000000000E+00 -0.33757133254E+03  0.33757133254E+03  0.00000000000E+00 0. -1.
         24    2    1    2    0    0 -0.78708112537E+02  0.59616781272E+02 -0.16039967339E+03  0.20627540259E+03  0.84097318031E+02 0.  0.
         23    2    1    2    0    0  0.12838941177E+03 -0.11817191070E+02 -0.78882237621E+02  0.17653633310E+03  0.91209552312E+02 0.  0.
        -13    1    3    3    0    0 -0.64823655639E+02  0.32920090761E+02 -0.16048342101E+03  0.17618390144E+03  0.00000000000E+00 0.  1.
         14    1    3    3    0    0 -0.13884456897E+02  0.26696690512E+02  0.83747623087E-01  0.30091501147E+02  0.00000000000E+00 0. -1.
        -13    1    4    4    0    0  0.58695782635E+02 -0.17415023999E+02 -0.86747512811E+02  0.10617725246E+03  0.00000000000E+00 0. -1.
         13    1    4    4    0    0  0.69693629132E+02  0.55978329288E+01  0.78652751905E+01  0.70359080643E+02  0.00000000000E+00 0.  1.
          1    1    1    2  501    0 -0.49681299230E+02 -0.47799590202E+02  0.18273985308E+02  0.71323003693E+02  0.00000000000E+00 0. -1.
<scales pt_clust_5="13000.00000" pt_clust_6="13000.00000" pt_clust_7="13000.00000" pt_clust_8="13000.00000" pt_clust_9="13000.00000"></scales>
<clustering>
<clus scale="   84.097">  5  6 -1 -1</clus>
<clus scale="   91.210">  7  8 -1 -1</clus>
<clus scale="   68.942">  7  9 -1 -1</clus>
<clus scale="  129.698">  2  5  1 -1</clus>
<clus scale="  240.335">  1  5  2 -1</clus>
</clustering>
</event>
<event>
 9    2  0.4178938E-005  0.1889651E+03  0.7546771E-02  0.1179814E+00
         -1   -1    0    0    0  501 -0.00000000000E+00  0.00000000000E+00  0.55864703796E+02  0.55864703796E+02  0.00000000000E+00 0.  1.
         21   -1    0    0  501  502  0.00000000000E+00 -0.00000000000E+00 -0.44102139063E+03  0.44102139063E+03  0.00000000000E+00 0.  1.
         24    2    1    2    0    0 -0.86171115530E+02  0.60394759921E+01 -0.19937524270E+03  0.23189072376E+03  0.80999283581E+02 0.  0.
         23    2    1    2    0    0 -0.81580383104E+01  0.12748515475E+02 -0.97670741029E+02  0.13455582954E+03  0.91305089535E+02 0.  0.
        -11    1    3    3    0    0 -0.90199783101E+02 -0.19586597130E+02 -0.15024626302E+03  0.17633370413E+03  0.00000000000E+00 0.  1.
         12    1    3    3    0    0  0.40286675713E+01  0.25626073122E+02 -0.49128979676E+02  0.55557019629E+02  0.00000000000E+00 0. -1.
        -11    1    4    4    0    0  0.26779019303E+02  0.43100333811E+01 -0.94681547896E+02  0.98490038961E+02  0.00000000000E+00 0.  1.
         11    1    4    4    0    0 -0.34937057613E+02  0.84384820940E+01 -0.29891931329E+01  0.36065790582E+02  0.00000000000E+00 0. -1.
         -2    1    1    2    0  502  0.94329153840E+02 -0.18787991467E+02 -0.88110703106E+02  0.13043954113E+03  0.00000000000E+00 0.  1.
<scales pt_clust_5="13000.00000" pt_clust_6="13000.00000" pt_clust_7="13000.00000" pt_clust_8="13000.00000" pt_clust_9="13000.00000"></scales>
<clustering>
<clus scale="   80.999">  5  6 -1 -1</clus>
<clus scale="   91.305">  7  8 -1 -1</clus>
<clus scale="   96.182">  7  9 -1 -1</clus>
<clus scale="  118.418">  1  5  2 -1</clus>
<clus scale="  188.965">  2  5  1 -1</clus>
</clustering>
</event>
<event>
 9    2  0.4178938E-005  0.5957855E+03  0.7546771E-02  0.1057967E+00
          4   -1    0    0  502    0 -0.00000000000E+00  0.00000000000E+00  0.68070114053E+03  0.68070114053E+03  0.00000000000E+00 0. -1.
         21   -1    0    0  501  502  0.00000000000E+00 -0.00000000000E+00 -0.20944481089E+03  0.20944481089E+03  0.00000000000E+00 0. -1.
         24    2    1    2    0    0 -0.50445502065E+01 -0.36136179724E+01  0.23624651523E+03  0.24968518707E+03  0.80571526999E+02 0.  0.
         23    2    1    2    0    0 -0.10466527406E+03 -0.11161898665E+03  0.38326660539E+03  0.42298691583E+03  0.92795594636E+02 0.  0.
        -13    1    3    3    0    0  0.33227285910E+02  0.14592880546E+02  0.81010204828E+02  0.88767437599E+02  0.00000000000E+00 0.  1.
         14    1    3    3    0    0 -0.38271836117E+02 -0.18206498519E+02  0.15523631041E+03  0.16091774948E+03  0.00000000000E+00 0. -1.
        -11    1    4    4    0    0 -0.13040437351E+02 -0.81045791918E+02  0.18780946041E+03  0.20496552592E+03  0.00000000000E+00 0.  1.
         11    1    4    4    0    0 -0.91624836713E+02 -0.30573194734E+02  0.19545714498E+03  0.21802138992E+03  0.00000000000E+00 0. -1.
          3    1    1    2  501    0  0.10970982427E+03  0.11523260462E+03 -0.14825679099E+03  0.21747384851E+03  0.00000000000E+00 0. -1.
<scales pt_clust_5="13000.00000" pt_clust_6="13000.00000" pt_clust_7="13000.00000" pt_clust_8="13000.00000" pt_clust_9="13000.00000"></scales>
<clustering>
<clus scale="   80.572">  5  6 -1 -1</clus>
<clus scale="   80.810">  1  5  2 -1</clus>
<clus scale="   92.796">  7  8 -1 -1</clus>
<clus scale="  158.624">  7  9 -1 -1</clus>
<clus scale="  595.786">  2  5  1 -1</clus>
</clustering>
</event>
<event>
 9    2  0.4178938E-005  0.1636135E+03  0.7546771E-02  0.1215070E+00
         21   -1    0    0  501  502  0.00000000000E+00  0.00000000000E+00  0.25659151688E+02  0.25659151688E+02  0.00000000000E+00 0.  1.
          2   -1    0    0  502    0 -0.00000000000E+00 -0.00000000000E+00 -0.60168207935E+03  0.60168207935E+03  0.00000000000E+00 0. -1.
         24    2    1    2    0    0 -0.10480013544E+02 -0.24854539168E+02 -0.18051278725E+03  0.19932526883E+03  0.80113155185E+02 0.  0.
         23    2    1    2    0    0 -0.45077879858E+02  0.14874686174E+02 -0.19769768213E+03  0.22230731961E+03  0.89904945874E+02 0.  0.
        -13    1    3    3    0    0  0.39602894389E+00 -0.53701381939E+02 -0.11440041681E+03  0.12637820472E+03  0.00000000000E+00 0.  1.
         14    1    3    3    0    0 -0.10876042488E+02  0.28846842772E+02 -0.66112370441E+02  0.72947064117E+02  0.00000000000E+00 0. -1.
        -13    1    4    4    0    0  0.20425674679E+02  0.13799452907E+02 -0.11064491346E+03  0.11335753156E+03  0.00000000000E+00 0. -1.
         13    1    4    4    0    0 -0.65503554538E+02  0.10752332671E+01 -0.87052768664E+02  0.10894978805E+03  0.00000000000E+00 0.  1.
          1    1    1    2  501    0  0.55557893402E+02  0.99798529932E+01 -0.19781245828E+03  0.20570864259E+03  0.00000000000E+00 0. -1.
<scales pt_clust_5="13000.00000" pt_clust_6="13000.00000" pt_clust_7="13000.00000" pt_clust_8="13000.00000" pt_clust_9="13000.00000"></scales>
<clustering>
<clus scale="   80.113">  5  6 -1 -1</clus>
<clus scale="   84.532">  2  5  1 -1</clus>
<clus scale="   89.905">  7  8 -1 -1</clus>
<clus scale="   50.471">  7  9 -1 -1</clus>
<clus scale="  163.614">  1  5  2 -1</clus>
</clustering>
</event>
<event>
 9    2  0.4178938E-005  0.4084445E+03  0.7546771E-02  0.1104216E+00
         21   -1    0    0  501  502  0.00000000000E+00  0.00000000000E+00  0.15247033364E+03  0.15247033364E+03  0.00000000000E+00 0. -1.
          2   -1    0    0  502    0 -0.00000000000E+00 -0.00000000000E+00 -0.39057916680E+03  0.39057916680E+03  0.00000000000E+00 0. -1.
         24    2    1    2    0    0 -0.66070618796E+01 -0.10447322235E+02 -0.72257525488E+02  0.10221667662E+03  0.71234115288E+02 0.  0.
         23    2    1    2    0    0  0.70706902788E+02 -0.16611600164E+03 -0.13897844388E+03  0.25108154518E+03  0.10551275925E+03 0.  0.
        -11    1    3    3    0    0  0.18217274304E+01  0.30308367171E+02 -0.25803259843E+02  0.39846254905E+02  0.00000000000E+00 0.  1.
         12    1    3    3    0    0 -0.84287893100E+01 -0.40755689406E+02 -0.46454265645E+02  0.62370421714E+02  0.00000000000E+00 0. -1.
        -11    1    4    4    0    0  0.78520940282E+02 -0.96267532748E+02 -0.41643706037E+02  0.13102356344E+03  0.00000000000E+00 0. -1.
         11    1    4    4    0    0 -0.78140374948E+01 -0.69848468888E+02 -0.97334737840E+02  0.12005798174E+03  0.00000000000E+00 0.  1.
          1    1    1    2  501    0 -0.64099840908E+02  0.17656332387E+03 -0.26872863793E+02  0.18975127865E+03  0.00000000000E+00 0. -1.
<scales pt_clust_5="13000.00000" pt_clust_6="13000.00000" pt_clust_7="13000.00000" pt_clust_8="13000.00000" pt_clust_9="13000.00000"></scales>
<clustering>
<clus scale="   71.234">  5  6 -1 -1</clus>
<clus scale="   72.299">  2  5  1 -1</clus>
<clus scale="  105.513">  7  8 -1 -1</clus>
<clus scale="  185.170">  7  9 -1 -1</clus>
<clus scale="  408.445">  1  5  2 -1</clus>
</clustering>
</event>
<event>
 9    2  0.4178938E-005  0.2180133E+03  0.7546771E-02  0.1162760E+00
          2   -1    0    0  502    0 -0.00000000000E+00  0.00000000000E+00  0.38846103177E+03  0.38846103177E+03  0.00000000000E+00 0. -1.
         21   -1    0    0  501  502  0.00000000000E+00 -0.00000000000E+00 -0.75124605191E+02  0.75124605191E+02  0.00000000000E+00 0. -1.
         24    2    1    2    0    0 -0.80519031673E+02 -0.67396981337E+01  0.57652624220E+02  0.12757375451E+03  0.80140500166E+02 0.  0.
         23    2    1    2    0    0  0.57354743725E+02 -0.75426649286E+02  0.13515891188E+03  0.18831576839E+03  0.90642987118E+02 0.  0.
        -11    1    3    3    0    0 -0.17807912664E+02  0.34384428622E+02  0.17258817129E+02  0.42394309215E+02  0.00000000000E+00 0.  1.
         12    1    3    3    0    0 -0.62711119009E+02 -0.41124126756E+02  0.40393807092E+02  0.85179445292E+02  0.00000000000E+00 0. -1.
        -13    1    4    4    0    0 -0.12679695720E+02 -0.52474158301E+02  0.36487688282E+02  0.65158755123E+02  0.00000000000E+00 0.  1.
         13    1    4    4    0    0  0.70034439445E+02 -0.22952490985E+02  0.98671223596E+02  0.12315701327E+03  0.00000000000E+00 0. -1.
          1    1    1    2  501    0  0.23164287948E+02  0.82166347420E+02  0.12052489048E+03  0.14769611406E+03  0.00000000000E+00 0. -1.
<scales pt_clust_5="13000.00000" pt_clust_6="13000.00000" pt_clust_7="13000.00000" pt_clust_8="13000.00000" pt_clust_9="13000.00000"></scales>
<clustering>
<clus scale="   80.141">  5  6 -1 -1</clus>
<clus scale="   90.643">  7  8 -1 -1</clus>
<clus scale="   85.369">  7  9 -1 -1</clus>
<clus scale="  113.804">  1  5  2 -1</clus>
<clus scale="  218.013">  2  5  1 -1</clus>
</clustering>
</event>
<event>
 9    2  0.4178938E-005  0.3586283E+03  0.7546771E-02  0.1084908E+00
          4   -1    0    0  502    0 -0.00000000000E+00  0.00000000000E+00  0.10995218447E+03  0.10995218447E+03  0.00000000000E+00 0. -1.
         21   -1    0    0  501  502  0.00000000000E+00 -0.00000000000E+00 -0.65678796632E+03  0.65678796632E+03  0.00000000000E+00 0. -1.
         24    2    1    2    0    0 -0.14447624328E+03  0.64244608566E+02 -0.15309170645E+03  0.23415337745E+03  0.79937344122E+02 0.  0.
         23    2    1    2    0    0 -0.47617063520E+02  0.52166871244E+02 -0.56833151710E+02  0.12766648284E+03  0.89888578334E+02 0.  0.
        -13    1    3    3    0    0 -0.11300542993E+03  0.57145225491E+02 -0.69276288234E+02  0.14434336875E+03  0.00000000000E+00 0.  1.
         14    1    3    3    0    0 -0.31470813358E+02  0.70993830746E+01 -0.83815418212E+02  0.89810008704E+02  0.00000000000E+00 0. -1.
        -13    1    4    4    0    0 -0.22580599129E+02 -0.18820938025E+02 -0.41485299680E+02  0.50844284386E+02  0.00000000000E+00 0.  1.
         13    1    4    4    0    0 -0.25036464391E+02  0.70987809269E+02 -0.15347852031E+02  0.76822198459E+02  0.00000000000E+00 0. -1.
          3    1    1    2  501    0  0.19209330680E+03 -0.11641147981E+03 -0.33691092369E+03  0.40492029049E+03  0.00000000000E+00 0. -1.
<scales pt_clust_5="13000.00000" pt_clust_6="13000.00000" pt_clust_7="13000.00000" pt_clust_8="13000.00000" pt_clust_9="13000.00000"></scales>
<clustering>
<clus scale="   79.937">  5  6 -1 -1</clus>
<clus scale="   89.889">  7  8 -1 -1</clus>
<clus scale="  177.174">  1  5  2 -1</clus>
<clus scale="  148.104">  7  9 -1 -1</clus>
<clus scale="  358.628">  2  5  1 -1</clus>
</clustering>
</event>
<event>
 9    2  0.4178938E-005  0.7522790E+03  0.7546771E-02  0.9973767E-01
         -1   -1    0    0    0  501 -0.00000000000E+00  0.00000000000E+00  0.20582266461E+03  0.20582266461E+03  0.00000000000E+00 0.  1.
         21   -1    0    0  501  502  0.00000000000E+00 -0.00000000000E+00 -0.12607741641E+04  0.12607741641E+04  0.00000000000E+00 0.  1.
         24    2    1    2    0    0  0.79937984661E+02 -0.21264664524E+03 -0.13956274756E+03  0.28175076397E+03  0.91088173587E+02 0.  0.
         23    2    1    2    0    0 -0.11482633349E+03  0.37081390039E+03 -0.93908838756E+03  0.10211519896E+04  0.10087789984E+03 0.  0.
        -13    1    3    3    0    0  0.31391036088E+02 -0.15718720554E+03 -0.13202072023E+03  0.20766002336E+03  0.00000000000E+00 0.  1.
         14    1    3    3    0    0  0.48546948573E+02 -0.55459439696E+02 -0.75420273276E+01  0.74090740605E+02  0.00000000000E+00 0. -1.
        -13    1    4    4    0    0  0.17683678955E+02  0.31639402884E+02 -0.10361408292E+03  0.10977086360E+03  0.00000000000E+00 0. -1.
         13    1    4    4    0    0 -0.13251001244E+03  0.33917449750E+03 -0.83547430464E+03  0.91138112602E+03  0.00000000000E+00 0.  1.
         -2    1    1    2    0  502  0.34888348828E+02 -0.15816725515E+03  0.23699635673E+02  0.16369407508E+03  0.00000000000E+00 0.  1.
<scales pt_clust_5="13000.00000" pt_clust_6="13000.00000" pt_clust_7="13000.00000" pt_clust_8="13000.00000" pt_clust_9="13000.00000"></scales>
<clustering>
<clus scale="   91.088">  5  6 -1 -1</clus>
<clus scale="  100.878">  7  8 -1 -1</clus>
<clus scale="  161.969">  7  9 -1 -1</clus>
<clus scale="  244.756">  1  5  2 -1</clus>
<clus scale="  752.279">  2  5  1 -1</clus>
</clustering>
</event>
<event>
 9    2  0.4178938E-005  0.1607095E+03  0.7546771E-02  0.1217621E+00
          2   -1    0    0  502    0 -0.00000000000E+00  0.00000000000E+00  0.66547374616E+03  0.66547374616E+03  0.00000000000E+00 0. -1.
         21   -1    0    0  501  502  0.00000000000E+00 -0.00000000000E+00 -0.70622561224E+02  0.70622561224E+02  0.00000000000E+00 0.  1.
         24    2    1    2    0    0 -0.20390351356E+02 -0.20528606645E+02  0.56666544898E+03  0.57293385964E+03  0.79412129638E+02 0.  0.
         23    2    1    2    0    0  0.37706342836E+02  0.84437136854E+01 -0.26985748617E+02  0.10408808013E+03  0.92806428690E+02 0.  0.
        -11    1    3    3    0    0  0.12502339512E+02 -0.25084542211E+02  0.73671067137E+02  0.78822388217E+02  0.00000000000E+00 0.  1.
         12    1    3    3    0    0 -0.32892690867E+02  0.45559355657E+01  0.49299438185E+03  0.49411147142E+03  0.00000000000E+00 0. -1.
        -11    1    4    4    0    0  0.41411693027E+02  0.45808885029E+02 -0.24573225693E+02  0.66462212482E+02  0.00000000000E+00 0.  1.
         11    1    4    4    0    0 -0.37053501916E+01 -0.37365171344E+02 -0.24125229242E+01  0.37625867650E+02  0.00000000000E+00 0. -1.
          1    1    1    2  501    0 -0.17315991480E+02  0.12084892960E+02  0.55171484573E+02  0.59074367612E+02  0.00000000000E+00 0. -1.
<scales pt_clust_5="13000.00000" pt_clust_6="13000.00000" pt_clust_7="13000.00000" pt_clust_8="13000.00000" pt_clust_9="13000.00000"></scales>
<clustering>
<clus scale="   79.412">  5  6 -1 -1</clus>
<clus scale="   84.519">  1  5  2 -1</clus>
<clus scale="   92.806">  7  8 -1 -1</clus>
<clus scale="   29.491">  7  9 -1 -1</clus>
<clus scale="  160.710">  2  5  1 -1</clus>
</clustering>
</event>
<event>
 9    2  0.4178938E-005  0.3288214E+03  0.7546771E-02  0.1098298E+00
          2   -1    0    0  502    0 -0.00000000000E+00  0.00000000000E+00  0.65645950993E+03  0.65645950993E+03  0.00000000000E+00 0. -1.
         21   -1    0    0  501  502  0.00000000000E+00 -0.00000000000E+00 -0.95270529109E+02  0.95270529109E+02  0.00000000000E+00 0.  1.
         24    2    1    2    0    0  0.13977455871E+03  0.16450256962E+02  0.11866381992E+03  0.20041160704E+03  0.79222293962E+02 0.  0.
         23    2    1    2    0    0 -0.42475645543E+02 -0.90427981861E+02  0.57273181105E+02  0.14714165110E+03  0.91591745515E+02 0.  0.
        -13    1    3    3    0    0  0.10983701130E+03  0.33409846464E+02  0.11987438670E+03  0.16598269632E+03  0.00000000000E+00 0.  1.
         14    1    3    3    0    0  0.29937547411E+02 -0.16959589502E+02 -0.12105667797E+01  0.34428910715E+02  0.00000000000E+00 0. -1.
        -11    1    4    4    0    0 -0.66149411524E+02 -0.90085752769E+02  0.45115072672E+02  0.12052616844E+03  0.00000000000E+00 0.  1.
         11    1    4    4    0    0  0.23673765981E+02 -0.34222909244E+00  0.12158108434E+02  0.26615482659E+02  0.00000000000E+00 0. -1.
          1    1    1    2  501    0 -0.97298913165E+02  0.73977724899E+02  0.38525197979E+03  0.40417678090E+03  0.00000000000E+00 0. -1.
<scales pt_clust_5="13000.00000" pt_clust_6="13000.00000" pt_clust_7="13000.00000" pt_clust_8="13000.00000" pt_clust_9="13000.00000"></scales>
<clustering>
<clus scale="   79.222">  5  6 -1 -1</clus>
<clus scale="   91.592">  7  8 -1 -1</clus>
<clus scale="  122.228">  7  9 -1 -1</clus>
<clus scale="  161.505">  1  5  2 -1</clus>
<clus scale="  328.821">  2  5  1 -1</clus>
</clustering>
</event>
<event>
 9    2  0.4178938E-005  0.2582772E+03  0.7546771E-02  0.1133474E+00
          2   -1    0    0  502    0 -0.00000000000E+00  0.00000000000E+00  0.45645577677E+03  0.45645577677E+03  0.00000000000E+00 0. -1.
         21   -1    0    0  501  502  0.00000000000E+00 -0.00000000000E+00 -0.11998989018E+03  0.11998989018E+03  0.00000000000E+00 0. -1.
         24    2    1    2    0    0  0.56059237545E+02 -0.94848181333E+02 -0.17315851084E+02  0.13841754734E+03  0.81980260406E+02 0.  0.
         23    2    1    2    0    0 -0.10367778886E+03  0.63465011966E+01  0.10357803671E+03  0.16839509902E+03  0.82699079229E+02 0.  0.
        -11    1    3    3    0    0  0.26832591734E+02 -0.70357738122E+02 -0.48150409503E+02  0.89379310962E+02  0.00000000000E+00 0.  1.
         12    1    3    3    0    0  0.29226645811E+02 -0.24490443211E+02  0.30834558419E+02  0.49038236377E+02  0.00000000000E+00 0. -1.
        -11    1    4    4    0    0 -0.52960698036E+02  0.51834679191E+01  0.17057688011E+00  0.53214029847E+02  0.00000000000E+00 0. -1.
         11    1    4    4    0    0 -0.50717090829E+02  0.11630332775E+01  0.10340745983E+03  0.11518106917E+03  0.00000000000E+00 0.  1.
          1    1    1    2  501    0  0.47618551319E+02  0.88501680136E+02  0.25020370097E+03  0.26963302059E+03  0.00000000000E+00 0. -1.
<scales pt_clust_5="13000.00000" pt_clust_6="13000.00000" pt_clust_7="13000.00000" pt_clust_8="13000.00000" pt_clust_9="13000.00000"></scales>
<clustering>
<clus scale="   81.980">  5  6 -1 -1</clus>
<clus scale="   82.699">  7  8 -1 -1</clus>
<clus scale="  100.499">  7  9 -1 -1</clus>
<clus scale="  137.330">  1  5  2 -1</clus>
<clus scale="  258.277">  2  5  1 -1</clus>
</clustering>
</event>
<event>
 9    2  0.4178938E-005  0.7075434E+03  0.7546771E-02  0.9903039E-01
          2   -1    0    0  502    0 -0.00000000000E+00  0.00000000000E+00  0.28657012317E+03  0.28657012317E+03  0.00000000000E+00 0. -1.
         21   -1    0    0  501  502  0.00000000000E+00 -0.00000000000E+00 -0.10863755647E+04  0.10863755647E+04  0.00000000000E+00 0. -1.
         24    2    1    2    0    0 -0.31548345068E+03  0.17292841398E+03 -0.45569988874E+03  0.58616340676E+03  0.80567405408E+02 0.  0.
         23    2    1    2    0    0  0.46088533620E+03 -0.97684508539E+02 -0.95756863847E+02  0.48932568777E+03  0.91173984278E+02 0.  0.
        -11    1    3    3    0    0 -0.14749248019E+03  0.37229557631E+02 -0.17186808760E+03  0.22951843327E+03  0.00000000000E+00 0.  1.
         12    1    3    3    0    0 -0.16799097049E+03  0.13569885635E+03 -0.28383180114E+03  0.35664497350E+03  0.00000000000E+00 0. -1.
        -13    1    4    4    0    0  0.40770973687E+03 -0.10445396325E+03 -0.10763046884E+03  0.43442165899E+03  0.00000000000E+00 0. -1.
         13    1    4    4    0    0  0.53175599327E+02  0.67694547090E+01  0.11873604994E+02  0.54904028781E+02  0.00000000000E+00 0.  1.
          1    1    1    2  501    0 -0.14540188552E+03 -0.75243905446E+02 -0.24834868894E+03  0.29745659333E+03  0.00000000000E+00 0. -1.
<scales pt_clust_5="13000.00000" pt_clust_6="13000.00000" pt_clust_7="13000.00000" pt_clust_8="13000.00000" pt_clust_9="13000.00000"></scales>
<clustering>
<clus scale="   80.567">  5  6 -1 -1</clus>
<clus scale="   91.174">  7  8 -1 -1</clus>
<clus scale="  163.717">  7  9 -1 -1</clus>
<clus scale="  368.680">  1  5  2 -1</clus>
<clus scale="  707.543">  2  5  1 -1</clus>
</clustering>
</event>
<event>
 9    2  0.4178938E-005  0.5357074E+03  0.7546771E-02  0.1060954E+00
         21   -1    0    0  501  502  0.00000000000E+00  0.00000000000E+00  0.68179639073E+03  0.68179639073E+03  0.00000000000E+00 0. -1.
          2   -1    0    0  502    0 -0.00000000000E+00 -0.00000000000E+00 -0.15926509882E+03  0.15926509882E+03  0.00000000000E+00 0. -1.
         24    2    1    2    0    0 -0.60711906484E+02  0.15158875761E+02  0.15407440990E+02  0.10339151648E+03  0.80849794918E+02 0.  0.
         23    2    1    2    0    0  0.25403832780E+03  0.12130261148E+03  0.25046953946E+03  0.38857359918E+03  0.94892867142E+02 0.  0.
        -13    1    3    3    0    0 -0.18309152338E+02  0.46071169669E+02  0.43644338190E+01  0.49767720629E+02  0.00000000000E+00 0.  1.
         14    1    3    3    0    0 -0.42402754146E+02 -0.30912293908E+02  0.11043007171E+02  0.53623795848E+02  0.00000000000E+00 0. -1.
        -13    1    4    4    0    0  0.16381231684E+03  0.71951837344E+02  0.21518034320E+03  0.27984660467E+03  0.00000000000E+00 0.  1.
         13    1    4    4    0    0  0.90226010955E+02  0.49350774137E+02  0.35289196262E+02  0.10872699450E+03  0.00000000000E+00 0. -1.
          1    1    1    2  501    0 -0.19332642132E+03 -0.13646148724E+03  0.25665431146E+03  0.34909637390E+03  0.00000000000E+00 0. -1.
<scales pt_clust_5="13000.00000" pt_clust_6="13000.00000" pt_clust_7="13000.00000" pt_clust_8="13000.00000" pt_clust_9="13000.00000"></scales>
<clustering>
<clus scale="   80.850">  5  6 -1 -1</clus>
<clus scale="   94.893">  7  8 -1 -1</clus>
<clus scale="  102.237">  2  5  1 -1</clus>
<clus scale="  253.732">  7  9 -1 -1</clus>
<clus scale="  535.707">  1  5  2 -1</clus>
</clustering>
</event>
<event>
 9    2  0.4178938E-005  0.2600200E+03  0.7546771E-02  0.1168255E+00
          2   -1    0    0  502    0 -0.00000000000E+00  0.00000000000E+00  0.81720375059E+02  0.81720375059E+02  0.00000000000E+00 0. -1.
         21   -1    0    0  501  502  0.00000000000E+00 -0.00000000000E+00 -0.41211236972E+03  0.41211236972E+03  0.00000000000E+00 0. -1.
         24    2    1    2    0    0  0.60274645320E+00  0.18485851285E+02  0.15510135993E+02  0.61098802942E+02  0.56128507921E+02 0.  0.
         23    2    1    2    0    0  0.90200901715E+02 -0.36646074766E+02 -0.30403392901E+03  0.33110696438E+03  0.87841074711E+02 0.  0.
        -13    1    3    3    0    0 -0.54106171591E+00  0.38730370676E+02  0.11742461820E+02  0.40474927672E+02  0.00000000000E+00 0.  1.
         14    1    3    3    0    0  0.11438081691E+01 -0.20244519390E+02  0.37676741729E+01  0.20623875270E+02  0.00000000000E+00 0. -1.
        -13    1    4    4    0    0  0.24711432492E+02  0.24317358377E+02 -0.14031213729E+03  0.14453195039E+03  0.00000000000E+00 0.  1.
         13    1    4    4    0    0  0.65489469223E+02 -0.60963433144E+02 -0.16372179172E+03  0.18657501399E+03  0.00000000000E+00 0. -1.
          1    1    1    2  501    0 -0.90803648168E+02  0.18160223481E+02 -0.41868201641E+02  0.10162697745E+03  0.00000000000E+00 0. -1.
<scales pt_clust_5="13000.00000" pt_clust_6="13000.00000" pt_clust_7="13000.00000" pt_clust_8="13000.00000" pt_clust_9="13000.00000"></scales>
<clustering>
<clus scale="   56.129">  5  6 -1 -1</clus>
<clus scale="   59.097">  1  5  2 -1</clus>
<clus scale="   87.841">  7  8 -1 -1</clus>
<clus scale="   95.519">  7  9 -1 -1</clus>
<clus scale="  260.020">  2  5  1 -1</clus>
</clustering>
</event>
<event>
 9    2  0.4178938E-005  0.1991898E+03  0.7546771E-02  0.1169718E+00
         21   -1    0    0  501  502  0.00000000000E+00  0.00000000000E+00  0.41992121481E+03  0.41992121481E+03  0.00000000000E+00 0. -1.
          4   -1    0    0  502    0 -0.00000000000E+00 -0.00000000000E+00 -0.85592918038E+02  0.85592918038E+02  0.00000000000E+00 0. -1.
         24    2    1    2    0    0 -0.97746975891E+02 -0.56256423361E+01  0.26619828921E+03  0.29499509989E+03  0.81083047762E+02 0.  0.
         23    2    1    2    0    0  0.10676514968E+02  0.13596926451E+02  0.66563719734E+02  0.12307042066E+03  0.10206240873E+03 0.  0.
        -13    1    3    3    0    0 -0.14514927360E+01  0.25472154444E+02  0.44516333226E+02  0.51309272135E+02  0.00000000000E+00 0.  1.
         14    1    3    3    0    0 -0.96295483155E+02 -0.31097796780E+02  0.22168195598E+03  0.24368582775E+03  0.00000000000E+00 0. -1.
        -11    1    4    4    0    0 -0.22326248027E+02  0.42626821712E+02  0.63734187201E+01  0.48539960304E+02  0.00000000000E+00 0.  1.
         11    1    4    4    0    0  0.33002762995E+02 -0.29029895261E+02  0.60190301014E+02  0.74530460352E+02  0.00000000000E+00 0. -1.
          3    1    1    2  501    0  0.87070460923E+02 -0.79712841146E+01  0.15662878292E+01  0.87448612300E+02  0.00000000000E+00 0. -1.
<scales pt_clust_5="13000.00000" pt_clust_6="13000.00000" pt_clust_7="13000.00000" pt_clust_8="13000.00000" pt_clust_9="13000.00000"></scales>
<clustering>
<clus scale="   81.083">  5  6 -1 -1</clus>
<clus scale="  102.062">  7  8 -1 -1</clus>
<clus scale="   87.435">  7  9 -1 -1</clus>
<clus scale="  127.124">  2  5  1 -1</clus>
<clus scale="  199.190">  1  5  2 -1</clus>
</clustering>
</event>
<event>
 9    2  0.4178938E-005  0.3392195E+03  0.7546771E-02  0.1100201E+00
         21   -1    0    0  501  502  0.00000000000E+00  0.00000000000E+00  0.20128933215E+03  0.20128933215E+03  0.00000000000E+00 0. -1.
          2   -1    0    0  502    0 -0.00000000000E+00 -0.00000000000E+00 -0.36702268534E+03  0.36702268534E+03  0.00000000000E+00 0. -1.
         24    2    1    2    0    0 -0.52620282918E+02  0.10263747905E+03 -0.18090448484E+03  0.22875345005E+03  0.79362220195E+02 0.  0.
         23    2    1    2    0    0  0.10646474640E+03 -0.71686058920E+01 -0.10628834591E+03  0.17595558252E+03  0.90978147964E+02 0.  0.
        -13    1    3    3    0    0  0.14107323325E+02  0.35969325092E+02 -0.23417303709E+02  0.45179409380E+02  0.00000000000E+00 0.  1.
         14    1    3    3    0    0 -0.66727606242E+02  0.66668153959E+02 -0.15748718113E+03  0.18357404067E+03  0.00000000000E+00 0. -1.
        -13    1    4    4    0    0  0.19923144731E+02  0.13157968140E+02 -0.79652905583E+02  0.83154369635E+02  0.00000000000E+00 0.  1.
         13    1    4    4    0    0  0.86541601666E+02 -0.20326574032E+02 -0.26635440323E+02  0.92801212880E+02  0.00000000000E+00 0. -1.
          1    1    1    2  501    0 -0.53844463480E+02 -0.95468873160E+02  0.12145947755E+03  0.16360298493E+03  0.00000000000E+00 0. -1.
<scales pt_clust_5="13000.00000" pt_clust_6="13000.00000" pt_clust_7="13000.00000" pt_clust_8="13000.00000" pt_clust_9="13000.00000"></scales>
<clustering>
<clus scale="   79.362">  5  6 -1 -1</clus>
<clus scale="   90.978">  7  8 -1 -1</clus>
<clus scale="  109.606">  7  9 -1 -1</clus>
<clus scale="  140.006">  2  5  1 -1</clus>
<clus scale="  339.219">  1  5  2 -1</clus>
</clustering>
</event>
<event>
 9    2  0.4178938E-005  0.4262379E+03  0.7546771E-02  0.1056389E+00
         -3   -1    0    0    0  501 -0.00000000000E+00  0.00000000000E+00  0.93154666214E+02  0.93154666214E+02  0.00000000000E+00 0.  1.
         21   -1    0    0  501  502  0.00000000000E+00 -0.00000000000E+00 -0.11917652313E+04  0.11917652313E+04  0.00000000000E+00 0.  1.
         24    2    1    2    0    0  0.81449830070E+02  0.20077703110E+03 -0.28735728735E+03  0.36850805950E+03  0.79236912398E+02 0.  0.
         23    2    1    2    0    0 -0.82498400178E+02  0.40319972818E+02 -0.53216323404E+03  0.54760278540E+03  0.90771232648E+02 0.  0.
        -13    1    3    3    0    0  0.81580862844E+02  0.20692003948E+03 -0.26841558478E+03  0.34859470173E+03  0.00000000000E+00 0.  1.
         14    1    3    3    0    0 -0.13103277402E+00 -0.61430083759E+01 -0.18941702569E+02  0.19913357771E+02  0.00000000000E+00 0. -1.
        -11    1    4    4    0    0 -0.95684708196E+02  0.14006675639E+02 -0.45143322154E+03  0.46167488978E+03  0.00000000000E+00 0.  1.
         11    1    4    4    0    0  0.13186308017E+02  0.26313297179E+02 -0.80730012504E+02  0.85927895624E+02  0.00000000000E+00 0. -1.
         -4    1    1    2    0  502  0.10485701081E+01 -0.24109700392E+03 -0.27909004368E+03  0.36880905260E+03  0.00000000000E+00 0.  1.
<scales pt_clust_5="13000.00000" pt_clust_6="13000.00000" pt_clust_7="13000.00000" pt_clust_8="13000.00000" pt_clust_9="13000.00000"></scales>
<clustering>
<clus scale="   79.237">  5  6 -1 -1</clus>
<clus scale="   90.771">  7  8 -1 -1</clus>
<clus scale="  230.703">  1  5  2 -1</clus>
<clus scale="   99.236">  7  9 -1 -1</clus>
<clus scale="  426.238">  2  5  1 -1</clus>
</clustering>
</event>
<event>
 9    2  0.4178938E-005  0.2457833E+03  0.7546771E-02  0.1150369E+00
         -1   -1    0    0    0  501 -0.00000000000E+00  0.00000000000E+00  0.85408393812E+02  0.85408393812E+02  0.00000000000E+00 0.  1.
         21   -1    0    0  501  502  0.00000000000E+00 -0.00000000000E+00 -0.36554487627E+03  0.36554487627E+03  0.00000000000E+00 0.  1.
         24    2    1    2    0    0  0.80989283188E+01  0.63210639111E+02 -0.10362645127E+03  0.14835584475E+03  0.84910763336E+02 0.  0.
         23    2    1    2    0    0 -0.22751928968E+02  0.49249868889E+02 -0.17461772080E+02  0.10725560951E+03  0.90860620892E+02 0.  0.
        -13    1    3    3    0    0  0.28649941160E+02  0.74410205829E+02 -0.63618764046E+02  0.10200512241E+03  0.00000000000E+00 0.  1.
         14    1    3    3    0    0 -0.20551012841E+02 -0.11199566718E+02 -0.40007687229E+02  0.46350722334E+02  0.00000000000E+00 0. -1.
        -11    1    4    4    0    0  0.28201067680E+02 -0.46823358314E+01 -0.16596664885E+02  0.33055616353E+02  0.00000000000E+00 0. -1.
         11    1    4    4    0    0 -0.50952996648E+02  0.53932204721E+02 -0.86510719469E+00  0.74199993153E+02  0.00000000000E+00 0.  1.
         -2    1    1    2    0  502  0.14653000649E+02 -0.11246050800E+03 -0.15904825911E+03  0.19534181583E+03  0.00000000000E+00 0.  1.
<scales pt_clust_5="13000.00000" pt_clust_6="13000.00000" pt_clust_7="13000.00000" pt_clust_8="13000.00000" pt_clust_9="13000.00000"></scales>
<clustering>
<clus scale="   84.911">  5  6 -1 -1</clus>
<clus scale="   90.861">  7  8 -1 -1</clus>
<clus scale="  106.165">  1  5  2 -1</clus>
<clus scale="   95.784">  7  9 -1 -1</clus>
<clus scale="  245.783">  2  5  1 -1</clus>
</clustering>
</event>
<event>
 9    2  0.4178938E-005  0.1902638E+03  0.7546771E-02  0.1192151E+00
         -1   -1    0    0    0  501 -0.00000000000E+00  0.00000000000E+00  0.75989442546E+03  0.75989442546E+03  0.00000000000E+00 0.  1.
         21   -1    0    0  501  502  0.00000000000E+00 -0.00000000000E+00 -0.25530997628E+02  0.25530997628E+02  0.00000000000E+00 0.  1.
         24    2    1    2    0    0  0.13752685410E+02  0.32913984013E+02  0.24452164079E+03  0.25993012485E+03  0.80624873874E+02 0.  0.
         23    2    1    2    0    0  0.18354938694E+02 -0.81944730099E+02  0.24112267836E+03  0.26996426567E+03  0.87685324607E+02 0.  0.
        -13    1    3    3    0    0  0.62614946786E+01  0.51194590773E+02  0.22919383850E+03  0.23492532440E+03  0.00000000000E+00 0.  1.
         14    1    3    3    0    0  0.74911907310E+01 -0.18280606760E+02  0.15327802296E+02  0.25004800445E+02  0.00000000000E+00 0. -1.
        -13    1    4    4    0    0 -0.65534070808E+01 -0.89383230585E+02  0.21581434679E+03  0.23368384911E+03  0.00000000000E+00 0. -1.
         13    1    4    4    0    0  0.24908345774E+02  0.74385004859E+01  0.25308331573E+02  0.36280416559E+02  0.00000000000E+00 0.  1.
         -2    1    1    2    0  502 -0.32107624103E+02  0.49030746086E+02  0.24871910868E+03  0.25553103258E+03  0.00000000000E+00 0.  1.
<scales pt_clust_5="13000.00000" pt_clust_6="13000.00000" pt_clust_7="13000.00000" pt_clust_8="13000.00000" pt_clust_9="13000.00000"></scales>
<clustering>
<clus scale="   80.625">  5  6 -1 -1</clus>
<clus scale="   87.685">  7  8 -1 -1</clus>
<clus scale="   58.608">  7  9 -1 -1</clus>
<clus scale="   88.164">  1  5  2 -1</clus>
<clus scale="  190.264">  2  5  1 -1</clus>
</clustering>
</event>
<event>
 9    2  0.4178938E-005  0.1786582E+03  0.7546771E-02  0.1192920E+00
         21   -1    0    0  501  502  0.00000000000E+00  0.00000000000E+00  0.31291967562E+03  0.31291967562E+03  0.00000000000E+00 0. -1.
          2   -1    0    0  502    0 -0.00000000000E+00 -0.00000000000E+00 -0.64309016217E+02  0.64309016217E+02  0.00000000000E+00 0. -1.
         24    2    1    2    0    0 -0.27396841685E+02 -0.56579292004E+02  0.82805900771E+02  0.13348711144E+03  0.83726868442E+02 0.  0.
         23    2    1    2    0    0 -0.18246833309E+02 -0.10355970238E+02  0.11692941765E+03  0.14912406958E+03  0.90140481303E+02 0.  0.
        -11    1    3    3    0    0  0.88061077958E+01 -0.60145354104E+02  0.74537108114E+02  0.96181035765E+02  0.00000000000E+00 0.  1.
         12    1    3    3    0    0 -0.36202949481E+02  0.35660621006E+01  0.82687926572E+01  0.37306075671E+02  0.00000000000E+00 0. -1.
        -11    1    4    4    0    0 -0.45676601304E+02  0.12730922386E+02  0.32750736278E+02  0.57628456671E+02  0.00000000000E+00 0.  1.
         11    1    4    4    0    0  0.27429767995E+02 -0.23086892624E+02  0.84178681376E+02  0.91495612908E+02  0.00000000000E+00 0. -1.
          1    1    1    2  501    0  0.45643674994E+02  0.66935262241E+02  0.48875340975E+02  0.94617510820E+02  0.00000000000E+00 0. -1.
<scales pt_clust_5="13000.00000" pt_clust_6="13000.00000" pt_clust_7="13000.00000" pt_clust_8="13000.00000" pt_clust_9="13000.00000"></scales>
<clustering>
<clus scale="   83.727">  5  6 -1 -1</clus>
<clus scale="   90.140">  7  8 -1 -1</clus>
<clus scale="   81.017">  7  9 -1 -1</clus>
<clus scale="  104.700">  2  5  1 -1</clus>
<clus scale="  178.658">  1  5  2 -1</clus>
</clustering>
</event>
<event>
 9    2  0.4178938E-005  0.5912817E+03  0.7546771E-02  0.1000398E+00
          2   -1    0    0  502    0 -0.00000000000E+00  0.00000000000E+00  0.86677924148E+03  0.86677924148E+03  0.00000000000E+00 0. -1.
         21   -1    0    0  501  502  0.00000000000E+00 -0.00000000000E+00 -0.32252313581E+03  0.32252313581E+03  0.00000000000E+00 0. -1.
         24    2    1    2    0    0 -0.31334214060E+02 -0.44902432549E+03  0.31056816031E+03  0.55351620398E+03  0.85574108331E+02 0.  0.
         23    2    1    2    0    0  0.70993417714E+02  0.61956415568E+02  0.21015947438E+03  0.24598108320E+03  0.86377229833E+02 0.  0.
        -13    1    3    3    0    0 -0.22614271914E+01 -0.10083975442E+03  0.11554431381E+03  0.15337619952E+03  0.00000000000E+00 0.  1.
         14    1    3    3    0    0 -0.29072786869E+02 -0.34818457107E+03  0.19502384650E+03  0.40014000446E+03  0.00000000000E+00 0. -1.
        -11    1    4    4    0    0  0.48563719050E+02 -0.10311956741E+02  0.10785940245E+03  0.11873677593E+03  0.00000000000E+00 0. -1.
         11    1    4    4    0    0  0.22429698664E+02  0.72268372308E+02  0.10230007193E+03  0.12724430728E+03  0.00000000000E+00 0.  1.
          1    1    1    2  501    0 -0.39659203653E+02  0.38706790992E+03  0.23528470990E+02  0.38980509011E+03  0.00000000000E+00 0. -1.
<scales pt_clust_5="13000.00000" pt_clust_6="13000.00000" pt_clust_7="13000.00000" pt_clust_8="13000.00000" pt_clust_9="13000.00000"></scales>
<clustering>
<clus scale="   85.574">  5  6 -1 -1</clus>
<clus scale="   86.377">  7  8 -1 -1</clus>
<clus scale="  389.095">  7  9 -1 -1</clus>
<clus scale="  458.179">  1  5  2 -1</clus>
<clus scale="  591.282">  2  5  1 -1</clus>
</clustering>
</event>
<event>
 9    2  0.4178938E-005  0.2541679E+03  0.7546771E-02  0.1125923E+00
          2   -1    0    0  502    0 -0.00000000000E+00  0.00000000000E+00  0.61305762262E+02  0.61305762262E+02  0.00000000000E+00 0. -1.
         21   -1    0    0  501  502  0.00000000000E+00 -0.00000000000E+00 -0.11324242577E+04  0.11324242577E+04  0.00000000000E+00 0. -1.
         24    2    1    2    0    0 -0.72505524032E+02 -0.13576041688E+03 -0.12436170429E+03  0.21344958433E+03  0.80043424166E+02 0.  0.
         23    2    1    2    0    0  0.12548665687E+03  0.10287858641E+03 -0.65022016029E+03  0.67725867295E+03  0.97786239590E+02 0.  0.
        -11    1    3    3    0    0 -0.22039668741E+02 -0.46510269034E+02 -0.92894481438E+02  0.10619951415E+03  0.00000000000E+00 0.  1.
         12    1    3    3    0    0 -0.50465855291E+02 -0.89250147843E+02 -0.31467222849E+02  0.10725007018E+03  0.00000000000E+00 0. -1.
        -13    1    4    4    0    0  0.90420635189E+02  0.58340173623E+02 -0.56331090827E+03  0.57349685832E+03  0.00000000000E+00 0. -1.
         13    1    4    4    0    0  0.35066021684E+02  0.44538412783E+02 -0.86909252017E+02  0.10376181463E+03  0.00000000000E+00 0.  1.
          1    1    1    2  501    0 -0.52981132841E+02  0.32881830470E+02 -0.29653663087E+03  0.30302176269E+03  0.00000000000E+00 0. -1.
<scales pt_clust_5="13000.00000" pt_clust_6="13000.00000" pt_clust_7="13000.00000" pt_clust_8="13000.00000" pt_clust_9="13000.00000"></scales>
<clustering>
<clus scale="   80.043">  5  6 -1 -1</clus>
<clus scale="   97.786">  7  8 -1 -1</clus>
<clus scale="   62.356">  7  9 -1 -1</clus>
<clus scale="  173.479">  1  5  2 -1</clus>
<clus scale="  254.168">  2  5  1 -1</clus>
</clustering>
</event>
<event>
 9    2  0.4178938E-005  0.1724969E+03  0.7546771E-02  0.1203596E+00
          2   -1    0    0  502    0 -0.00000000000E+00  0.00000000000E+00  0.98728320248E+03  0.98728320248E+03  0.00000000000E+00 0. -1.
         21   -1    0    0  501  502  0.00000000000E+00 -0.00000000000E+00 -0.41196515123E+02  0.41196515123E+02  0.00000000000E+00 0.  1.
         24    2    1    2    0    0  0.26047333851E+02  0.38196752509E+02  0.79149973150E+03  0.79685006414E+03  0.79754274243E+02 0.  0.
         23    2    1    2    0    0 -0.54211757158E+02 -0.45186397284E+02  0.56417773945E+02  0.12926130800E+03  0.92438062591E+02 0.  0.
        -13    1    3    3    0    0 -0.14262825848E+02  0.28579255101E+02  0.12341447330E+03  0.12748072107E+03  0.00000000000E+00 0.  1.
         14    1    3    3    0    0  0.40310159699E+02  0.96174974085E+01  0.66808525819E+03  0.66936934308E+03  0.00000000000E+00 0. -1.
        -13    1    4    4    0    0 -0.40100454710E+02  0.73102853102E+01 -0.11419483712E+02  0.42330737621E+02  0.00000000000E+00 0.  1.
         13    1    4    4    0    0 -0.14111302449E+02 -0.52496682594E+02  0.67837257658E+02  0.86930570381E+02  0.00000000000E+00 0. -1.
          1    1    1    2  501    0  0.28164423307E+02  0.69896447746E+01  0.98169181916E+02  0.10236834546E+03  0.00000000000E+00 0. -1.
<scales pt_clust_5="13000.00000" pt_clust_6="13000.00000" pt_clust_7="13000.00000" pt_clust_8="13000.00000" pt_clust_9="13000.00000"></scales>
<clustering>
<clus scale="   79.754">  5  6 -1 -1</clus>
<clus scale="   92.186">  1  5  2 -1</clus>
<clus scale="   92.438">  7  8 -1 -1</clus>
<clus scale="   49.573">  7  9 -1 -1</clus>
<clus scale="  172.497">  2  5  1 -1</clus>
</clustering>
</event>
<event>
 9    2  0.4178938E-005  0.2539916E+03  0.7546771E-02  0.1142648E+00
         21   -1    0    0  501  502  0.00000000000E+00  0.00000000000E+00  0.80507662812E+03  0.80507662812E+03  0.00000000000E+00 0. -1.
          2   -1    0    0  502    0 -0.00000000000E+00 -0.00000000000E+00 -0.46793429503E+02  0.46793429503E+02  0.00000000000E+00 0. -1.
         24    2    1    2    0    0  0.80628859339E+02  0.21859959076E+02  0.12892464181E+03  0.17319196917E+03  0.79968894891E+02 0.  0.
         23    2    1    2    0    0 -0.12726856068E+03  0.52157567039E+02  0.41202849104E+03  0.44440001992E+03  0.93841365790E+02 0.  0.
        -11    1    3    3    0    0  0.43248923490E+02 -0.29124662933E+02  0.52256039988E+02  0.73820113040E+02  0.00000000000E+00 0.  1.
         12    1    3    3    0    0  0.37379935849E+02  0.50984622009E+02  0.76668601821E+02  0.99371856129E+02  0.00000000000E+00 0. -1.
        -13    1    4    4    0    0 -0.17493430623E+02  0.53703207723E+02  0.12889453415E+03  0.14072617230E+03  0.00000000000E+00 0.  1.
         13    1    4    4    0    0 -0.10977513005E+03 -0.15456406843E+01  0.28313395689E+03  0.30367384762E+03  0.00000000000E+00 0. -1.
          1    1    1    2  501    0  0.46639701337E+02 -0.74017526115E+02  0.21733006576E+03  0.23427806853E+03  0.00000000000E+00 0. -1.
<scales pt_clust_5="13000.00000" pt_clust_6="13000.00000" pt_clust_7="13000.00000" pt_clust_8="13000.00000" pt_clust_9="13000.00000"></scales>
<clustering>
<clus scale="   79.969">  5  6 -1 -1</clus>
<clus scale="   93.841">  7  8 -1 -1</clus>
<clus scale="   87.486">  7  9 -1 -1</clus>
<clus scale="  115.646">  2  5  1 -1</clus>
<clus scale="  253.992">  1  5  2 -1</clus>
</clustering>
</event>
<event>
 9    2  0.4178938E-005  0.3869910E+03  0.7546771E-02  0.1086771E+00
         21   -1    0    0  501  502  0.00000000000E+00  0.00000000000E+00  0.24796879208E+03  0.24796879208E+03  0.00000000000E+00 0. -1.
          2   -1    0    0  502    0 -0.00000000000E+00 -0.00000000000E+00 -0.32140327556E+03  0.32140327556E+03  0.00000000000E+00 0. -1.
         24    2    1    2    0    0 -0.10398570534E+03 -0.31665023097E+02 -0.11946479185E+03  0.17965314754E+03  0.78662038662E+02 0.  0.
         23    2    1    2    0    0 -0.11400359681E+03  0.67508169141E+02  0.53619002588E+02  0.16867219372E+03  0.89560809000E+02 0.  0.
        -11    1    3    3    0    0 -0.39785057289E+02  0.16724707541E+02 -0.10811759904E+02  0.44491131454E+02  0.00000000000E+00 0.  1.
         12    1    3    3    0    0 -0.64200648048E+02 -0.48389730638E+02 -0.10865303195E+03  0.13516201608E+03  0.00000000000E+00 0. -1.
        -11    1    4    4    0    0 -0.55340497544E+02  0.16375359079E+01  0.58225628750E+02  0.80345977097E+02  0.00000000000E+00 0. -1.
         11    1    4    4    0    0 -0.58663099263E+02  0.65870633233E+02 -0.46066261620E+01  0.88326216619E+02  0.00000000000E+00 0.  1.
          1    1    1    2  501    0  0.21798930214E+03 -0.35843146044E+02 -0.75886942100E+01  0.22104672639E+03  0.00000000000E+00 0. -1.
<scales pt_clust_5="13000.00000" pt_clust_6="13000.00000" pt_clust_7="13000.00000" pt_clust_8="13000.00000" pt_clust_9="13000.00000"></scales>
<clustering>
<clus scale="   78.662">  5  6 -1 -1</clus>
<clus scale="   89.561">  7  8 -1 -1</clus>
<clus scale="  134.177">  2  5  1 -1</clus>
<clus scale="  159.324">  7  9 -1 -1</clus>
<clus scale="  386.991">  1  5  2 -1</clus>
</clustering>
</event>
<event>
 9    2  0.4178938E-005  0.3151057E+03  0.7546771E-02  0.1096687E+00
          2   -1    0    0  502    0 -0.00000000000E+00  0.00000000000E+00  0.24446918507E+03  0.24446918507E+03  0.00000000000E+00 0. -1.
         21   -1    0    0  501  502  0.00000000000E+00 -0.00000000000E+00 -0.26237429708E+03  0.26237429708E+03  0.00000000000E+00 0. -1.
         24    2    1    2    0    0 -0.16330620713E+03  0.62639425061E+02 -0.44749327389E+01  0.19145166355E+03  0.77724510901E+02 0.  0.
         23    2    1    2    0    0  0.60784582160E+02 -0.19994583429E+02 -0.11908964252E+03  0.16211694042E+03  0.89470724929E+02 0.  0.
        -11    1    3    3    0    0 -0.65759247938E+02  0.10469957105E+00 -0.30820561736E+02  0.72623664718E+02  0.00000000000E+00 0.  1.
         12    1    3    3    0    0 -0.97546959193E+02  0.62534725490E+02  0.26345628997E+02  0.11882799884E+03  0.00000000000E+00 0. -1.
        -11    1    4    4    0    0  0.71697751584E+02 -0.10382637666E+01 -0.44511647860E+02  0.84397466603E+02  0.00000000000E+00 0.  1.
         11    1    4    4    0    0 -0.10913169424E+02 -0.18956319663E+02 -0.74577994664E+02  0.77719473815E+02  0.00000000000E+00 0. -1.
          1    1    1    2  501    0  0.10252162497E+03 -0.42644841632E+02  0.10565946325E+03  0.15327487817E+03  0.00000000000E+00 0. -1.
<scales pt_clust_5="13000.00000" pt_clust_6="13000.00000" pt_clust_7="13000.00000" pt_clust_8="13000.00000" pt_clust_9="13000.00000"></scales>
<clustering>
<clus scale="   77.725">  5  6 -1 -1</clus>
<clus scale="   89.471">  7  8 -1 -1</clus>
<clus scale="  111.037">  7  9 -1 -1</clus>
<clus scale="  191.399">  1  5  2 -1</clus>
<clus scale="  315.106">  2  5  1 -1</clus>
</clustering>
</event>
<event>
 9    2  0.4178938E-005  0.1748423E+03  0.7546771E-02  0.1205139E+00
          2   -1    0    0  502    0 -0.00000000000E+00  0.00000000000E+00  0.83778886808E+03  0.83778886808E+03  0.00000000000E+00 0. -1.
         21   -1    0    0  501  502  0.00000000000E+00 -0.00000000000E+00 -0.83537954142E+02  0.83537954142E+02  0.00000000000E+00 0. -1.
         24    2    1    2    0    0 -0.13151253991E+02  0.29154715843E+01  0.74105655868E+03  0.74598739052E+03  0.84563042742E+02 0.  0.
         23    2    1    2    0    0 -0.25559974955E+02  0.18260296117E+02  0.55885066515E+02  0.11394342848E+03  0.94197736179E+02 0.  0.
        -13    1    3    3    0    0  0.31235996656E+02 -0.12582965344E+02  0.19281530863E+03  0.19573390546E+03  0.00000000000E+00 0.  1.
         14    1    3    3    0    0 -0.44387250647E+02  0.15498436929E+02  0.54824125005E+03  0.55025348506E+03  0.00000000000E+00 0. -1.
        -11    1    4    4    0    0 -0.20527109631E+02 -0.36576893999E+02  0.12285361875E+02  0.43705394642E+02  0.00000000000E+00 0.  1.
         11    1    4    4    0    0 -0.50328653242E+01  0.54837190116E+02  0.43599704640E+02  0.70238033841E+02  0.00000000000E+00 0. -1.
          1    1    1    2  501    0  0.38711228946E+02 -0.21175767702E+02 -0.42690711254E+02  0.61396003222E+02  0.00000000000E+00 0. -1.
<scales pt_clust_5="13000.00000" pt_clust_6="13000.00000" pt_clust_7="13000.00000" pt_clust_8="13000.00000" pt_clust_9="13000.00000"></scales>
<clustering>
<clus scale="   84.563">  5  6 -1 -1</clus>
<clus scale="   85.629">  1  5  2 -1</clus>
<clus scale="   94.198">  7  8 -1 -1</clus>
<clus scale="   42.843">  7  9 -1 -1</clus>
<clus scale="  174.842">  2  5  1 -1</clus>
</clustering>
</event>
<event>
 9    2  0.4178938E-005  0.3660141E+03  0.7546771E-02  0.1107395E+00
         21   -1    0    0  501  502  0.00000000000E+00  0.00000000000E+00  0.84010848333E+02  0.84010848333E+02  0.00000000000E+00 0.  1.
          2   -1    0    0  502    0 -0.00000000000E+00 -0.00000000000E+00 -0.63060859155E+03  0.63060859155E+03  0.00000000000E+00 0. -1.
         24    2    1    2    0    0 -0.40470210951E+01  0.42663379956E+02 -0.86709310111E+02  0.12685787604E+03  0.82084553258E+02 0.  0.
         23    2    1    2    0    0  0.84444670232E+02 -0.80422829538E+02 -0.34449490808E+02  0.15314926347E+03  0.93108515408E+02 0.  0.
        -11    1    3    3    0    0 -0.35924379412E+02  0.18773593811E+02 -0.12136331186E+02  0.42311929705E+02  0.00000000000E+00 0.  1.
         12    1    3    3    0    0  0.31877358317E+02  0.23889786145E+02 -0.74572978926E+02  0.84545946332E+02  0.00000000000E+00 0. -1.
        -11    1    4    4    0    0  0.62099271865E+02 -0.84518193429E+02  0.78110537172E+01  0.10516965887E+03  0.00000000000E+00 0.  1.
         11    1    4    4    0    0  0.22345398367E+02  0.40953638905E+01 -0.42260544525E+02  0.47979604596E+02  0.00000000000E+00 0. -1.
          1    1    1    2  501    0 -0.80397649137E+02  0.37759449582E+02 -0.42543894230E+03  0.43461230038E+03  0.00000000000E+00 0. -1.
<scales pt_clust_5="13000.00000" pt_clust_6="13000.00000" pt_clust_7="13000.00000" pt_clust_8="13000.00000" pt_clust_9="13000.00000"></scales>
<clustering>
<clus scale="   82.085">  5  6 -1 -1</clus>
<clus scale="   92.598">  2  5  1 -1</clus>
<clus scale="   93.109">  7  8 -1 -1</clus>
<clus scale="  110.934">  7  9 -1 -1</clus>
<clus scale="  366.014">  1  5  2 -1</clus>
</clustering>
</event>
<event>
 9    2  0.4178938E-005  0.7841846E+03  0.7546771E-02  0.9591928E-01
         21   -1    0    0  501  502  0.00000000000E+00  0.00000000000E+00  0.54658642251E+03  0.54658642251E+03  0.00000000000E+00 0. -1.
          2   -1    0    0  502    0 -0.00000000000E+00 -0.00000000000E+00 -0.11209808189E+04  0.11209808189E+04  0.00000000000E+00 0. -1.
         24    2    1    2    0    0 -0.41234535917E+03  0.63531500274E+03 -0.41687842284E+03  0.86771929016E+03  0.74130285040E+02 0.  0.
         23    2    1    2    0    0  0.12384052067E+03 -0.27960772468E+03 -0.11691646956E+03  0.34005340011E+03  0.91923336578E+02 0.  0.
        -13    1    3    3    0    0 -0.19042304593E+03  0.36027518066E+03 -0.21596085943E+03  0.46119218881E+03  0.00000000000E+00 0.  1.
         14    1    3    3    0    0 -0.22192231324E+03  0.27503982208E+03 -0.20091756341E+03  0.40652710135E+03  0.00000000000E+00 0. -1.
        -13    1    4    4    0    0  0.38134552236E+02 -0.22731602110E+02 -0.36769573947E+02  0.57645219897E+02  0.00000000000E+00 0.  1.
         13    1    4    4    0    0  0.85705968434E+02 -0.25687612257E+03 -0.80146895616E+02  0.28240818021E+03  0.00000000000E+00 0. -1.
          1    1    1    2  501    0  0.28850483850E+03 -0.35570727806E+03 -0.40599503943E+02  0.45979455110E+03  0.00000000000E+00 0. -1.
<scales pt_clust_5="13000.00000" pt_clust_6="13000.00000" pt_clust_7="13000.00000" pt_clust_8="13000.00000" pt_clust_9="13000.00000"></scales>
<clustering>
<clus scale="   74.130">  5  6 -1 -1</clus>
<clus scale="   91.923">  7  8 -1 -1</clus>
<clus scale="  457.999">  7  9 -1 -1</clus>
<clus scale="  761.018">  2  5  1 -1</clus>
<clus scale="  784.185">  1  5  2 -1</clus>
</clustering>
</event>
<event>
 9    2  0.4178938E-005  0.2758128E+03  0.7546771E-02  0.1130161E+00
         21   -1    0    0  501  502  0.00000000000E+00  0.00000000000E+00  0.40281338346E+03  0.40281338346E+03  0.00000000000E+00 0.  1.
          2   -1    0    0  502    0 -0.00000000000E+00 -0.00000000000E+00 -0.12463333853E+03  0.12463333853E+03  0.00000000000E+00 0. -1.
         24    2    1    2    0    0 -0.77351943263E+02 -0.53759768767E+02  0.21050804222E+03  0.24345342407E+03  0.77990371134E+02 0.  0.
         23    2    1    2    0    0 -0.39374162450E+02 -0.57510540445E+02  0.33316625903E+02  0.11911043834E+03  0.90661524524E+02 0.  0.
        -13    1    3    3    0    0 -0.13854571831E+02 -0.56336314549E+02  0.87252879239E+02  0.10477974247E+03  0.00000000000E+00 0.  1.
         14    1    3    3    0    0 -0.63497371432E+02  0.25765457813E+01  0.12325516298E+03  0.13867368160E+03  0.00000000000E+00 0. -1.
        -13    1    4    4    0    0  0.99490413758E+01 -0.63724382557E+02  0.21798163380E+02  0.68080395734E+02  0.00000000000E+00 0. -1.
         13    1    4    4    0    0 -0.49323203826E+02  0.62138421118E+01  0.11518462523E+02  0.51030042606E+02  0.00000000000E+00 0.  1.
          1    1    1    2  501    0  0.11672610571E+03  0.11127030921E+03  0.34355376809E+02  0.16488285958E+03  0.00000000000E+00 0. -1.
<scales pt_clust_5="13000.00000" pt_clust_6="13000.00000" pt_clust_7="13000.00000" pt_clust_8="13000.00000" pt_clust_9="13000.00000"></scales>
<clustering>
<clus scale="   77.990">  5  6 -1 -1</clus>
<clus scale="   90.662">  7  8 -1 -1</clus>
<clus scale="  122.295">  2  5  1 -1</clus>
<clus scale="  105.460">  7  9 -1 -1</clus>
<clus scale="  275.813">  1  5  2 -1</clus>
</clustering>
</event>
<event>
 9    2  0.4178938E-005  0.1740150E+03  0.7546771E-02  0.1194946E+00
          2   -1    0    0  502    0 -0.00000000000E+00  0.00000000000E+00  0.16125909967E+03  0.16125909967E+03  0.00000000000E+00 0. -1.
         21   -1    0    0  501  502  0.00000000000E+00 -0.00000000000E+00 -0.22951609892E+03  0.22951609892E+03  0.00000000000E+00 0.  1.
         24    2    1    2    0    0  0.36548440012E+02 -0.60280174204E+02  0.10091092496E+03  0.14808404808E+03  0.82318786736E+02 0.  0.
         23    2    1    2    0    0 -0.34726323324E+02 -0.16362061214E+02 -0.61996219668E+02  0.11092193327E+03  0.83585342307E+02 0.  0.
        -13    1    3    3    0    0  0.35874639438E+02 -0.65546602922E+02  0.35974201331E+02  0.82930634091E+02  0.00000000000E+00 0.  1.
         14    1    3    3    0    0  0.67380057361E+00  0.52664287172E+01  0.64936723626E+02  0.65153413985E+02  0.00000000000E+00 0. -1.
        -11    1    4    4    0    0 -0.54277235811E+02  0.82217288724E+01 -0.56964742855E+02  0.79111295537E+02  0.00000000000E+00 0. -1.
         11    1    4    4    0    0  0.19550912488E+02 -0.24583790087E+02 -0.50314768130E+01  0.31810637734E+02  0.00000000000E+00 0.  1.
          1    1    1    2  501    0 -0.18221166880E+01  0.76642235419E+02 -0.10717170454E+03  0.13176921724E+03  0.00000000000E+00 0. -1.
<scales pt_clust_5="13000.00000" pt_clust_6="13000.00000" pt_clust_7="13000.00000" pt_clust_8="13000.00000" pt_clust_9="13000.00000"></scales>
<clustering>
<clus scale="   82.319">  5  6 -1 -1</clus>
<clus scale="   83.585">  7  8 -1 -1</clus>
<clus scale="   76.664">  7  9 -1 -1</clus>
<clus scale="  108.378">  1  5  2 -1</clus>
<clus scale="  174.015">  2  5  1 -1</clus>
</clustering>
</event>
<event>
 9    2  0.4178938E-005  0.7867964E+03  0.7546771E-02  0.1010616E+00
          2   -1    0    0  502    0 -0.00000000000E+00  0.00000000000E+00  0.18427090994E+04  0.18427090994E+04  0.00000000000E+00 0. -1.
         21   -1    0    0  501  502  0.00000000000E+00 -0.00000000000E+00 -0.12036057796E+03  0.12036057796E+03  0.00000000000E+00 0. -1.
         24    2    1    2    0    0  0.94757922240E+02 -0.68281719898E+02  0.40103387452E+03  0.42523973384E+03  0.79744627524E+02 0.  0.
         23    2    1    2    0    0 -0.19859355393E+03 -0.13196449510E+03  0.65982661922E+02  0.26239324279E+03  0.87421247768E+02 0.  0.
        -13    1    3    3    0    0  0.10713745061E+03 -0.68097792569E+02  0.38192609834E+03  0.40247147386E+03  0.00000000000E+00 0.  1.
         14    1    3    3    0    0 -0.12379528367E+02 -0.18392732918E+00  0.19107776184E+02  0.22768259980E+02  0.00000000000E+00 0. -1.
        -11    1    4    4    0    0 -0.16350145508E+03 -0.13660134455E+03  0.74990894700E+02  0.22586785392E+03  0.00000000000E+00 0. -1.
         11    1    4    4    0    0 -0.35092098848E+02  0.46368494567E+01 -0.90082327781E+01  0.36525388872E+02  0.00000000000E+00 0.  1.
          1    1    1    2  501    0  0.10383563169E+03  0.20024621500E+03  0.12553319850E+04  0.12754367007E+04  0.00000000000E+00 0. -1.
<scales pt_clust_5="13000.00000" pt_clust_6="13000.00000" pt_clust_7="13000.00000" pt_clust_8="13000.00000" pt_clust_9="13000.00000"></scales>
<clustering>
<clus scale="   79.745">  5  6 -1 -1</clus>
<clus scale="   87.421">  7  8 -1 -1</clus>
<clus scale="  141.424">  1  5  2 -1</clus>
<clus scale="  234.054">  7  9 -1 -1</clus>
<clus scale="  786.796">  2  5  1 -1</clus>
</clustering>
</event>
<event>
 9    2  0.4178938E-005  0.1665635E+03  0.7546771E-02  0.1209311E+00
         21   -1    0    0  501  502  0.00000000000E+00  0.00000000000E+00  0.13384537751E+03  0.13384537751E+03  0.00000000000E+00 0.  1.
          2   -1    0    0  502    0 -0.00000000000E+00 -0.00000000000E+00 -0.37842613051E+03  0.37842613051E+03  0.00000000000E+00 0. -1.
         24    2    1    2    0    0 -0.22619644230E+02  0.14194002593E+02 -0.31770716990E+03  0.33036250302E+03  0.86535654975E+02 0.  0.
         23    2    1    2    0    0  0.46912500189E+02 -0.45294730806E+02  0.85151910138E+02  0.14065357343E+03  0.90995519701E+02 0.  0.
        -13    1    3    3    0    0  0.16830214096E+02  0.31529212608E+02 -0.66588961708E+02  0.75574050941E+02  0.00000000000E+00 0.  1.
         14    1    3    3    0    0 -0.39449858325E+02 -0.17335210015E+02 -0.25111820819E+03  0.25478845208E+03  0.00000000000E+00 0. -1.
        -13    1    4    4    0    0  0.38710676876E+02 -0.14283516252E+01 -0.59664391202E+01  0.39193814414E+02  0.00000000000E+00 0. -1.
         13    1    4    4    0    0  0.82018233139E+01 -0.43866379181E+02  0.91118349259E+02  0.10145975902E+03  0.00000000000E+00 0.  1.
          1    1    1    2  501    0 -0.24292855960E+02  0.31100728213E+02 -0.12025493243E+02  0.41255431567E+02  0.00000000000E+00 0. -1.
<scales pt_clust_5="13000.00000" pt_clust_6="13000.00000" pt_clust_7="13000.00000" pt_clust_8="13000.00000" pt_clust_9="13000.00000"></scales>
<clustering>
<clus scale="   86.536">  5  6 -1 -1</clus>
<clus scale="   90.562">  2  5  1 -1</clus>
<clus scale="   90.996">  7  8 -1 -1</clus>
<clus scale="   51.954">  7  9 -1 -1</clus>
<clus scale="  166.564">  1  5  2 -1</clus>
</clustering>
</event>
<event>
 9    2  0.4178938E-005  0.2640946E+03  0.7546771E-02  0.1134865E+00
         21   -1    0    0  501  502  0.00000000000E+00  0.00000000000E+00  0.98698447262E+02  0.98698447262E+02  0.00000000000E+00 0.  1.
          2   -1    0    0  502    0 -0.00000000000E+00 -0.00000000000E+00 -0.38187528011E+03  0.38187528011E+03  0.00000000000E+00 0. -1.
         24    2    1    2    0    0  0.89517998378E+02  0.31054309216E+02 -0.88632027505E+02  0.15255903124E+03  0.80254467532E+02 0.  0.
         23    2    1    2    0    0 -0.94868654167E+01 -0.10670500037E+03 -0.55586971648E+02  0.15070905928E+03  0.90262680064E+02 0.  0.
        -11    1    3    3    0    0  0.88662264334E+02 -0.32064859878E+00 -0.81372932950E+02  0.12034389951E+03  0.00000000000E+00 0.  1.
         12    1    3    3    0    0  0.85573404358E+00  0.31374957815E+02 -0.72590945548E+01  0.32215131730E+02  0.00000000000E+00 0. -1.
        -13    1    4    4    0    0  0.31319644811E+02 -0.73779628225E+01 -0.74360611609E+01  0.33024982847E+02  0.00000000000E+00 0. -1.
         13    1    4    4    0    0 -0.40806510227E+02 -0.99327037546E+02 -0.48150910487E+02  0.11768407643E+03  0.00000000000E+00 0.  1.
          1    1    1    2  501    0 -0.80031132961E+02  0.75650691153E+02 -0.13895783370E+03  0.17730563686E+03  0.00000000000E+00 0. -1.
<scales pt_clust_5="13000.00000" pt_clust_6="13000.00000" pt_clust_7="13000.00000" pt_clust_8="13000.00000" pt_clust_9="13000.00000"></scales>
<clustering>
<clus scale="   80.254">  5  6 -1 -1</clus>
<clus scale="   90.263">  7  8 -1 -1</clus>
<clus scale="  110.127">  7  9 -1 -1</clus>
<clus scale="  124.172">  2  5  1 -1</clus>
<clus scale="  264.095">  1  5  2 -1</clus>
</clustering>
</event>
<event>
 9    2  0.4178938E-005  0.4203276E+03  0.7546771E-02  0.1096172E+00
          4   -1    0    0  502    0 -0.00000000000E+00  0.00000000000E+00  0.38241907412E+03  0.38241907412E+03  0.00000000000E+00 0. -1.
         21   -1    0    0  501  502  0.00000000000E+00 -0.00000000000E+00 -0.18038866406E+03  0.18038866406E+03  0.00000000000E+00 0. -1.
         24    2    1    2    0    0  0.10977636671E+02 -0.11423974534E+02  0.10206569076E+03  0.13075653355E+03  0.80180110596E+02 0.  0.
         23    2    1    2    0    0 -0.56265374525E+02 -0.10774616050E+03 -0.11248047324E+03  0.18429031159E+03  0.80845745795E+02 0.  0.
        -11    1    3    3    0    0  0.18441158100E+02  0.30995242672E+02  0.30519706996E+02  0.47246522576E+02  0.00000000000E+00 0.  1.
         12    1    3    3    0    0 -0.74635214295E+01 -0.42419217206E+02  0.71545983764E+02  0.83510010976E+02  0.00000000000E+00 0. -1.
        -11    1    4    4    0    0  0.14708711513E+02 -0.56036743047E+02 -0.49861003072E+02  0.76436786910E+02  0.00000000000E+00 0. -1.
         11    1    4    4    0    0 -0.70974086038E+02 -0.51709417456E+02 -0.62619470167E+02  0.10785352468E+03  0.00000000000E+00 0.  1.
          3    1    1    2  501    0  0.45287737854E+02  0.11917013504E+03  0.21244519253E+03  0.24776089303E+03  0.00000000000E+00 0. -1.
<scales pt_clust_5="13000.00000" pt_clust_6="13000.00000" pt_clust_7="13000.00000" pt_clust_8="13000.00000" pt_clust_9="13000.00000"></scales>
<clustering>
<clus scale="   80.180">  5  6 -1 -1</clus>
<clus scale="   80.846">  7  8 -1 -1</clus>
<clus scale="   81.730">  1  5  2 -1</clus>
<clus scale="  122.250">  7  9 -1 -1</clus>
<clus scale="  420.328">  2  5  1 -1</clus>
</clustering>
</event>
<event>
 9    2  0.4178938E-005  0.2006412E+03  0.7546771E-02  0.1179468E+00
          2   -1    0    0  502    0 -0.00000000000E+00  0.00000000000E+00  0.16486570511E+03  0.16486570511E+03  0.00000000000E+00 0. -1.
         21   -1    0    0  501  502  0.00000000000E+00 -0.00000000000E+00 -0.21048619402E+03  0.21048619402E+03  0.00000000000E+00 0. -1.
         24    2    1    2    0    0  0.66373550319E+02 -0.11231077963E+02 -0.12472969027E+03  0.15967814101E+03  0.73539294178E+02 0.  0.
         23    2    1    2    0    0  0.19653131742E+02 -0.72074444346E+01 -0.19433330112E+01  0.96049001217E+02  0.93720015200E+02 0.  0.
        -11    1    3    3    0    0  0.46615569253E+01 -0.23670810517E+02 -0.53424728261E+01  0.24709904884E+02  0.00000000000E+00 0.  1.
         12    1    3    3    0    0  0.61711993394E+02  0.12439732553E+02 -0.11938721745E+03  0.13496823613E+03  0.00000000000E+00 0. -1.
        -13    1    4    4    0    0  0.41868931597E+02  0.42851242430E-01  0.33481911515E+02  0.53610145197E+02  0.00000000000E+00 0.  1.
         13    1    4    4    0    0 -0.22215799855E+02 -0.72502956771E+01 -0.35425244526E+02  0.42438856021E+02  0.00000000000E+00 0. -1.
          1    1    1    2  501    0 -0.86026682061E+02  0.18438522398E+02  0.81052534367E+02  0.11962475689E+03  0.00000000000E+00 0. -1.
<scales pt_clust_5="13000.00000" pt_clust_6="13000.00000" pt_clust_7="13000.00000" pt_clust_8="13000.00000" pt_clust_9="13000.00000"></scales>
<clustering>
<clus scale="   73.539">  5  6 -1 -1</clus>
<clus scale="   93.720">  7  8 -1 -1</clus>
<clus scale="   87.981">  7  9 -1 -1</clus>
<clus scale="   99.698">  1  5  2 -1</clus>
<clus scale="  200.641">  2  5  1 -1</clus>
</clustering>
</event>
<event>
 9    2  0.4178938E-005  0.2861450E+03  0.7546771E-02  0.1139693E+00
         21   -1    0    0  501  502  0.00000000000E+00  0.00000000000E+00  0.35752542850E+02  0.35752542850E+02  0.00000000000E+00 0. -1.
         -1   -1    0    0    0  501 -0.00000000000E+00 -0.00000000000E+00 -0.97548129616E+03  0.97548129616E+03  0.00000000000E+00 0.  1.
         24    2    1    2    0    0  0.21902182318E+02  0.12449967175E+02 -0.24196694177E+03  0.25707834193E+03  0.83105750164E+02 0.  0.
         23    2    1    2    0    0 -0.68855033989E+02  0.66072000566E+02 -0.15540898335E+03  0.20414017007E+03  0.91731848147E+02 0.  0.
        -11    1    3    3    0    0  0.26154430346E+02 -0.31629174949E+02 -0.92660890012E+02  0.10134347277E+03  0.00000000000E+00 0.  1.
         12    1    3    3    0    0 -0.42522480280E+01  0.44079142124E+02 -0.14930605175E+03  0.15573486917E+03  0.00000000000E+00 0. -1.
        -13    1    4    4    0    0 -0.71949248822E+02  0.13053522479E+02 -0.58547502656E+02  0.93674430462E+02  0.00000000000E+00 0. -1.
         13    1    4    4    0    0  0.30942148324E+01  0.53018478087E+02 -0.96861480699E+02  0.11046573961E+03  0.00000000000E+00 0.  1.
         -2    1    1    2    0  502  0.46952851671E+02 -0.78521967741E+02 -0.54235282819E+03  0.55001532701E+03  0.00000000000E+00 0.  1.
<scales pt_clust_5="13000.00000" pt_clust_6="13000.00000" pt_clust_7="13000.00000" pt_clust_8="13000.00000" pt_clust_9="13000.00000"></scales>
<clustering>
<clus scale="   83.106">  5  6 -1 -1</clus>
<clus scale="   86.841">  2  5  1 -1</clus>
<clus scale="   91.732">  7  8 -1 -1</clus>
<clus scale="   93.840">  7  9 -1 -1</clus>
<clus scale="  286.145">  1  5  2 -1</clus>
</clustering>
</event>
<event>
 9    2  0.4178938E-005  0.1690187E+03  0.7546771E-02  0.1212269E+00
         21   -1    0    0  501  502  0.00000000000E+00  0.00000000000E+00  0.69364058639E+02  0.69364058639E+02  0.00000000000E+00 0. -1.
          2   -1    0    0  502    0 -0.00000000000E+00 -0.00000000000E+00 -0.23866331661E+03  0.23866331661E+03  0.00000000000E+00 0. -1.
         24    2    1    2    0    0  0.85175095402E+01 -0.90944692672E+00 -0.89991341890E+02  0.12132685977E+03  0.80922124434E+02 0.  0.
         23    2    1    2    0    0 -0.31965937700E+02 -0.52110613982E+02 -0.55988790634E+02  0.12421261863E+03  0.92502392872E+02 0.  0.
        -11    1    3    3    0    0 -0.80193470779E+01  0.36860802280E+02 -0.57782065358E+02  0.69005766059E+02  0.00000000000E+00 0.  1.
         12    1    3    3    0    0  0.16536856618E+02 -0.37770249207E+02 -0.32209276532E+02  0.52321093707E+02  0.00000000000E+00 0. -1.
        -11    1    4    4    0    0 -0.92831648529E+01 -0.20119332037E+02 -0.76718486892E+02  0.79854185252E+02  0.00000000000E+00 0.  1.
         11    1    4    4    0    0 -0.22682772847E+02 -0.31991281946E+02  0.20729696258E+02  0.44358433375E+02  0.00000000000E+00 0. -1.
          1    1    1    2  501    0  0.23448428160E+02  0.53020060909E+02 -0.23319125449E+02  0.62487896858E+02  0.00000000000E+00 0. -1.
<scales pt_clust_5="13000.00000" pt_clust_6="13000.00000" pt_clust_7="13000.00000" pt_clust_8="13000.00000" pt_clust_9="13000.00000"></scales>
<clustering>
<clus scale="   80.922">  5  6 -1 -1</clus>
<clus scale="   81.374">  2  5  1 -1</clus>
<clus scale="   92.502">  7  8 -1 -1</clus>
<clus scale="   58.876">  7  9 -1 -1</clus>
<clus scale="  169.019">  1  5  2 -1</clus>
</clustering>
</event>
<event>
 9    2  0.4178938E-005  0.4792183E+03  0.7546771E-02  0.1061591E+00
         21   -1    0    0  501  502  0.00000000000E+00  0.00000000000E+00  0.62048159806E+03  0.62048159806E+03  0.00000000000E+00 0. -1.
          2   -1    0    0  502    0 -0.00000000000E+00 -0.00000000000E+00 -0.15911835038E+03  0.15911835038E+03  0.00000000000E+00 0. -1.
         24    2    1    2    0    0  0.32998381916E+02  0.10645946820E+03  0.16309734625E+03  0.21514201326E+03  0.85222238508E+02 0.  0.
         23    2    1    2    0    0  0.23990843255E+02  0.13528772616E+03  0.26785471968E+03  0.31422940416E+03  0.90086836837E+02 0.  0.
        -11    1    3    3    0    0  0.50706912231E+02  0.35638440090E+02  0.46121395989E+02  0.77255889924E+02  0.00000000000E+00 0.  1.
         12    1    3    3    0    0 -0.17708530314E+02  0.70821028112E+02  0.11697595026E+03  0.13788612333E+03  0.00000000000E+00 0. -1.
        -13    1    4    4    0    0 -0.33224854465E+02  0.56513155537E+02  0.88272272511E+02  0.10995281623E+03  0.00000000000E+00 0.  1.
         13    1    4    4    0    0  0.57215697720E+02  0.78774570620E+02  0.17958244717E+03  0.20427658793E+03  0.00000000000E+00 0. -1.
          1    1    1    2  501    0 -0.56989225171E+02 -0.24174719436E+03  0.30411181748E+02  0.25022853103E+03  0.00000000000E+00 0. -1.
<scales pt_clust_5="13000.00000" pt_clust_6="13000.00000" pt_clust_7="13000.00000" pt_clust_8="13000.00000" pt_clust_9="13000.00000"></scales>
<clustering>
<clus scale="   85.222">  5  6 -1 -1</clus>
<clus scale="   90.087">  7  8 -1 -1</clus>
<clus scale="  140.305">  2  5  1 -1</clus>
<clus scale="  156.683">  7  9 -1 -1</clus>
<clus scale="  479.218">  1  5  2 -1</clus>
</clustering>
</event>
<event>
 9    2  0.4178938E-005  0.4796351E+03  0.7546771E-02  0.1046787E+00
          2   -1    0    0  502    0 -0.00000000000E+00  0.00000000000E+00  0.18780368964E+04  0.18780368964E+04  0.00000000000E+00 0. -1.
         21   -1    0    0  501  502  0.00000000000E+00 -0.00000000000E+00 -0.64566530205E+02  0.64566530205E+02  0.00000000000E+00 0.  1.
         24    2    1    2    0    0  0.17038193650E+03  0.98560973500E+02  0.65782522515E+03  0.69137781541E+03  0.80777391737E+02 0.  0.
         23    2    1    2    0    0  0.27384508203E+02  0.13088528265E+03  0.56250398805E+03  0.58521241427E+03  0.90454213448E+02 0.  0.
        -13    1    3    3    0    0  0.48426068822E+01  0.33826891669E+02  0.13059545242E+03  0.13499215397E+03  0.00000000000E+00 0.  1.
         14    1    3    3    0    0  0.16553932962E+03  0.64734081830E+02  0.52722977273E+03  0.55638566144E+03  0.00000000000E+00 0. -1.
        -13    1    4    4    0    0  0.50516219227E+02  0.48605357541E+02  0.17763772371E+03  0.19096997165E+03  0.00000000000E+00 0.  1.
         13    1    4    4    0    0 -0.23131711024E+02  0.82279925111E+02  0.38486626434E+03  0.39424244261E+03  0.00000000000E+00 0. -1.
          1    1    1    2  501    0 -0.19776644470E+03 -0.22944625615E+03  0.59314115302E+03  0.66601319695E+03  0.00000000000E+00 0. -1.
<scales pt_clust_5="13000.00000" pt_clust_6="13000.00000" pt_clust_7="13000.00000" pt_clust_8="13000.00000" pt_clust_9="13000.00000"></scales>
<clustering>
<clus scale="   80.777">  5  6 -1 -1</clus>
<clus scale="   90.454">  7  8 -1 -1</clus>
<clus scale="  212.766">  1  5  2 -1</clus>
<clus scale="  208.431">  7  9 -1 -1</clus>
<clus scale="  479.635">  2  5  1 -1</clus>
</clustering>
</event>
<event>
 9    2  0.4178938E-005  0.5558827E+03  0.7546771E-02  0.1031645E+00
          2   -1    0    0  502    0 -0.00000000000E+00  0.00000000000E+00  0.13339445162E+04  0.13339445162E+04  0.00000000000E+00 0. -1.
         21   -1    0    0  501  502  0.00000000000E+00 -0.00000000000E+00 -0.16445691264E+03  0.16445691264E+03  0.00000000000E+00 0.  1.
         24    2    1    2    0    0  0.18298528550E+02  0.19513817654E+03  0.10189397053E+02  0.21271955799E+03  0.82049024674E+02 0.  0.
         23    2    1    2    0    0  0.13672192739E+03 -0.31388577150E+03  0.65122209413E+03  0.74137160177E+03  0.91238550177E+02 0.  0.
        -11    1    3    3    0    0  0.12433197093E+02  0.20199470934E+03  0.52764918639E+01  0.20244576646E+03  0.00000000000E+00 0.  1.
         12    1    3    3    0    0  0.58653314570E+01 -0.68565327977E+01  0.49129051891E+01  0.10273791535E+02  0.00000000000E+00 0. -1.
        -11    1    4    4    0    0  0.64414314000E+02 -0.52562183210E+02  0.15742289674E+03  0.17802796232E+03  0.00000000000E+00 0. -1.
         11    1    4    4    0    0  0.72307613385E+02 -0.26132358829E+03  0.49379919740E+03  0.56334363944E+03  0.00000000000E+00 0.  1.
          1    1    1    2  501    0 -0.15502045594E+03  0.11874759497E+03  0.50807611240E+03  0.54431026911E+03  0.00000000000E+00 0. -1.
<scales pt_clust_5="13000.00000" pt_clust_6="13000.00000" pt_clust_7="13000.00000" pt_clust_8="13000.00000" pt_clust_9="13000.00000"></scales>
<clustering>
<clus scale="   82.049">  5  6 -1 -1</clus>
<clus scale="   91.239">  7  8 -1 -1</clus>
<clus scale="  195.275">  7  9 -1 -1</clus>
<clus scale="  212.475">  1  5  2 -1</clus>
<clus scale="  555.883">  2  5  1 -1</clus>
</clustering>
</event>
<event>
 9    2  0.4178938E-005  0.3199913E+03  0.7546771E-02  0.1089814E+00
          2   -1    0    0  502    0 -0.00000000000E+00  0.00000000000E+00  0.26730984828E+03  0.26730984828E+03  0.00000000000E+00 0. -1.
         21   -1    0    0  501  502  0.00000000000E+00 -0.00000000000E+00 -0.27633796758E+03  0.27633796758E+03  0.00000000000E+00 0. -1.
         24    2    1    2    0    0 -0.44826828767E+02  0.19656644951E+03 -0.38527980429E+02  0.22229958698E+03  0.85351552091E+02 0.  0.
         23    2    1    2    0    0 -0.56039878825E+02 -0.30624156032E+02  0.35591583470E+02  0.12705966373E+03  0.10391867196E+03 0.  0.
        -11    1    3    3    0    0 -0.30592838018E+02  0.21409659512E+02 -0.27207553501E+02  0.46201149617E+02  0.00000000000E+00 0.  1.
         12    1    3    3    0    0 -0.14233990749E+02  0.17515679000E+03 -0.11320426927E+02  0.17609843736E+03  0.00000000000E+00 0. -1.
        -13    1    4    4    0    0 -0.30019932452E+02 -0.31311950784E+02 -0.32474173570E+02  0.54186774727E+02  0.00000000000E+00 0. -1.
         13    1    4    4    0    0 -0.26019946373E+02  0.68779475191E+00  0.68065757039E+02  0.72872889007E+02  0.00000000000E+00 0.  1.
          1    1    1    2  501    0  0.10086670759E+03 -0.16594229348E+03 -0.60917223401E+01  0.19428856515E+03  0.00000000000E+00 0. -1.
<scales pt_clust_5="13000.00000" pt_clust_6="13000.00000" pt_clust_7="13000.00000" pt_clust_8="13000.00000" pt_clust_9="13000.00000"></scales>
<clustering>
<clus scale="   85.352">  5  6 -1 -1</clus>
<clus scale="  103.919">  7  8 -1 -1</clus>
<clus scale="  194.193">  7  9 -1 -1</clus>
<clus scale="  218.935">  1  5  2 -1</clus>
<clus scale="  319.991">  2  5  1 -1</clus>
</clustering>
</event>
<event>
 9    2  0.4178938E-005  0.2754674E+03  0.7546771E-02  0.1135776E+00
          2   -1    0    0  502    0 -0.00000000000E+00  0.00000000000E+00  0.27288033058E+03  0.27288033058E+03  0.00000000000E+00 0. -1.
         21   -1    0    0  501  502  0.00000000000E+00 -0.00000000000E+00 -0.13762019826E+03  0.13762019826E+03  0.00000000000E+00 0. -1.
         24    2    1    2    0    0  0.26199953200E+02 -0.60517809707E+02  0.68478827830E+02  0.12705379179E+03  0.84288037751E+02 0.  0.
         23    2    1    2    0    0  0.49766951924E+02 -0.60096086171E+02  0.73261766693E+02  0.14075588610E+03  0.91414681189E+02 0.  0.
        -13    1    3    3    0    0 -0.29006673362E+02 -0.24107832150E+02  0.10619143240E+02  0.39183426007E+02  0.00000000000E+00 0.  1.
         14    1    3    3    0    0  0.55206626562E+02 -0.36409977557E+02  0.57859684590E+02  0.87870365783E+02  0.00000000000E+00 0. -1.
        -11    1    4    4    0    0  0.30376918037E+02 -0.10894240403E+02  0.81107951205E+02  0.87292275558E+02  0.00000000000E+00 0.  1.
         11    1    4    4    0    0  0.19390033887E+02 -0.49201845768E+02 -0.78461845120E+01  0.53463610545E+02  0.00000000000E+00 0. -1.
          1    1    1    2  501    0 -0.75966905124E+02  0.12061389588E+03 -0.64804622048E+01  0.14269085095E+03  0.00000000000E+00 0. -1.
<scales pt_clust_5="13000.00000" pt_clust_6="13000.00000" pt_clust_7="13000.00000" pt_clust_8="13000.00000" pt_clust_9="13000.00000"></scales>
<clustering>
<clus scale="   84.288">  5  6 -1 -1</clus>
<clus scale="   91.415">  7  8 -1 -1</clus>
<clus scale="  107.020">  1  5  2 -1</clus>
<clus scale="  117.263">  7  9 -1 -1</clus>
<clus scale="  275.467">  2  5  1 -1</clus>
</clustering>
</event>
<event>
 9    2  0.4178938E-005  0.2435536E+03  0.7546771E-02  0.1138267E+00
         -1   -1    0    0    0  501 -0.00000000000E+00  0.00000000000E+00  0.64329516877E+03  0.64329516877E+03  0.00000000000E+00 0.  1.
         21   -1    0    0  501  502  0.00000000000E+00 -0.00000000000E+00 -0.58909406484E+02  0.58909406484E+02  0.00000000000E+00 0.  1.
         24    2    1    2    0    0 -0.97010508918E+02 -0.74543617670E+02  0.22215805380E+03  0.26571029787E+03  0.79246272775E+02 0.  0.
         23    2    1    2    0    0  0.38118969765E+02  0.11680311613E+03  0.16717693067E+03  0.22841043726E+03  0.95536264886E+02 0.  0.
        -11    1    3    3    0    0 -0.10244740053E+03 -0.70475066420E+02  0.22596938632E+03  0.25792318317E+03  0.00000000000E+00 0.  1.
         12    1    3    3    0    0  0.54368916140E+01 -0.40685512496E+01 -0.38113325220E+01  0.77871146958E+01  0.00000000000E+00 0. -1.
        -13    1    4    4    0    0  0.60123580959E+02  0.33151790954E+02  0.82970306044E+02  0.10769381559E+03  0.00000000000E+00 0.  1.
         13    1    4    4    0    0 -0.22004611193E+02  0.83651325179E+02  0.84206624625E+02  0.12071662168E+03  0.00000000000E+00 0. -1.
         -2    1    1    2    0  502  0.58891539152E+02 -0.42259498463E+02  0.19505077781E+03  0.20808384012E+03  0.00000000000E+00 0.  1.
<scales pt_clust_5="13000.00000" pt_clust_6="13000.00000" pt_clust_7="13000.00000" pt_clust_8="13000.00000" pt_clust_9="13000.00000"></scales>
<clustering>
<clus scale="   79.246">  5  6 -1 -1</clus>
<clus scale="   95.536">  7  8 -1 -1</clus>
<clus scale="   72.485">  7  9 -1 -1</clus>
<clus scale="  145.766">  1  5  2 -1</clus>
<clus scale="  243.554">  2  5  1 -1</clus>
</clustering>
</event>
<event>
 9    2  0.4178938E-005  0.2025241E+03  0.7546771E-02  0.1184240E+00
         -3   -1    0    0    0  501 -0.00000000000E+00  0.00000000000E+00  0.11762784747E+04  0.11762784747E+04  0.00000000000E+00 0.  1.
         21   -1    0    0  501  502  0.00000000000E+00 -0.00000000000E+00 -0.19578123172E+02  0.19578123172E+02  0.00000000000E+00 0. -1.
         24    2    1    2    0    0  0.44439414421E+02 -0.86300853819E+01  0.53376333213E+03  0.54082488483E+03  0.74423930259E+02 0.  0.
         23    2    1    2    0    0  0.17497762735E+02  0.69094587586E+02  0.37928021282E+03  0.39645714095E+03  0.90799510134E+02 0.  0.
        -11    1    3    3    0    0 -0.18250675993E+02  0.10567825948E+02  0.10754515931E+03  0.10959346427E+03  0.00000000000E+00 0.  1.
         12    1    3    3    0    0  0.62690090414E+02 -0.19197911330E+02  0.42621817283E+03  0.43123142057E+03  0.00000000000E+00 0. -1.
        -13    1    4    4    0    0 -0.33980788884E+02  0.49644007920E+02  0.18522035983E+03  0.19474548321E+03  0.00000000000E+00 0. -1.
         13    1    4    4    0    0  0.51478551618E+02  0.19450579666E+02  0.19405985298E+03  0.20171165773E+03  0.00000000000E+00 0.  1.
         -4    1    1    2    0  502 -0.61937177156E+02 -0.60464502204E+02  0.24365680659E+03  0.25857457210E+03  0.00000000000E+00 0.  1.
<scales pt_clust_5="13000.00000" pt_clust_6="13000.00000" pt_clust_7="13000.00000" pt_clust_8="13000.00000" pt_clust_9="13000.00000"></scales>
<clustering>
<clus scale="   74.424">  5  6 -1 -1</clus>
<clus scale="   87.111">  1  5  2 -1</clus>
<clus scale="   90.800">  7  8 -1 -1</clus>
<clus scale="   77.817">  7  9 -1 -1</clus>
<clus scale="  202.524">  2  5  1 -1</clus>
</clustering>
</event>
<event>
 9    2  0.4178938E-005  0.5380019E+03  0.7546771E-02  0.1006487E+00
         21   -1    0    0  501  502  0.00000000000E+00  0.00000000000E+00  0.22733979229E+03  0.22733979229E+03  0.00000000000E+00 0. -1.
          2   -1    0    0  502    0 -0.00000000000E+00 -0.00000000000E+00 -0.12090558304E+04  0.12090558304E+04  0.00000000000E+00 0. -1.
         24    2    1    2    0    0 -0.35173109175E+03 -0.35038340609E+03 -0.56213638268E+03  0.75412506985E+03  0.78892433521E+02 0.  0.
         23    2    1    2    0    0  0.13876076146E+03  0.57460608595E+02 -0.13552898433E+03  0.22200442261E+03  0.91441716958E+02 0.  0.
        -11    1    3    3    0    0 -0.23378478928E+02 -0.45933776146E+02 -0.34147410837E+02  0.61826456593E+02  0.00000000000E+00 0.  1.
         12    1    3    3    0    0 -0.32835261283E+03 -0.30444962995E+03 -0.52798897184E+03  0.69229861325E+03  0.00000000000E+00 0. -1.
        -11    1    4    4    0    0  0.73825511141E+02  0.24577575192E+02 -0.12669947425E+03  0.14868429666E+03  0.00000000000E+00 0.  1.
         11    1    4    4    0    0  0.64935250323E+02  0.32883033403E+02 -0.88295100799E+01  0.73320125945E+02  0.00000000000E+00 0. -1.
          1    1    1    2  501    0  0.21297033029E+03  0.29292279750E+03 -0.28405067107E+03  0.46026613020E+03  0.00000000000E+00 0. -1.
<scales pt_clust_5="13000.00000" pt_clust_6="13000.00000" pt_clust_7="13000.00000" pt_clust_8="13000.00000" pt_clust_9="13000.00000"></scales>
<clustering>
<clus scale="   78.892">  5  6 -1 -1</clus>
<clus scale="   91.442">  7  8 -1 -1</clus>
<clus scale="  362.161">  7  9 -1 -1</clus>
<clus scale="  502.700">  2  5  1 -1</clus>
<clus scale="  538.002">  1  5  2 -1</clus>
</clustering>
</event>
<event>
 9    2  0.4178938E-005  0.1127051E+03  0.7546771E-02  0.1274717E+00
          2   -1    0    0  502    0 -0.00000000000E+00  0.00000000000E+00  0.40871887693E+03  0.40871887693E+03  0.00000000000E+00 0. -1.
         21   -1    0    0  501  502  0.00000000000E+00 -0.00000000000E+00 -0.22561555609E+02  0.22561555609E+02  0.00000000000E+00 0. -1.
         24    2    1    2    0    0 -0.62805209297E+01 -0.22704246805E+01  0.18587318218E+03  0.20146272122E+03  0.77419560937E+02 0.  0.
         23    2    1    2    0    0 -0.15072350625E+02  0.28987542884E+01  0.14899189227E+03  0.17425482343E+03  0.89053809556E+02 0.  0.
        -11    1    3    3    0    0 -0.32473089006E+02 -0.13502205015E+01  0.16439646534E+03  0.16757840679E+03  0.00000000000E+00 0.  1.
         12    1    3    3    0    0  0.26192568077E+02 -0.92020417896E+00  0.21476716837E+02  0.33884314428E+02  0.00000000000E+00 0. -1.
        -11    1    4    4    0    0 -0.25268811795E+01  0.40652761132E+02  0.11474909793E+03  0.12176365464E+03  0.00000000000E+00 0. -1.
         11    1    4    4    0    0 -0.12545469446E+02 -0.37754006844E+02  0.34242794338E+02  0.52491168785E+02  0.00000000000E+00 0.  1.
          1    1    1    2  501    0  0.21352871555E+02 -0.62832960791E+00  0.51292246877E+02  0.55562887897E+02  0.00000000000E+00 0. -1.
<scales pt_clust_5="13000.00000" pt_clust_6="13000.00000" pt_clust_7="13000.00000" pt_clust_8="13000.00000" pt_clust_9="13000.00000"></scales>
<clustering>
<clus scale="   77.420">  5  6 -1 -1</clus>
<clus scale="   77.707">  1  5  2 -1</clus>
<clus scale="   89.054">  7  8 -1 -1</clus>
<clus scale="   19.828">  7  9 -1 -1</clus>
<clus scale="  112.705">  2  5  1 -1</clus>
</clustering>
</event>
<event>
 9    2  0.4178938E-005  0.1829054E+03  0.7546771E-02  0.1196405E+00
         21   -1    0    0  501  502  0.00000000000E+00  0.00000000000E+00  0.79897671231E+02  0.79897671231E+02  0.00000000000E+00 0.  1.
          2   -1    0    0  502    0 -0.00000000000E+00 -0.00000000000E+00 -0.32799583745E+03  0.32799583745E+03  0.00000000000E+00 0. -1.
         24    2    1    2    0    0 -0.19783632662E+02 -0.40135352387E+02 -0.19891266052E+03  0.21849027886E+03  0.78546271757E+02 0.  0.
         23    2    1    2    0    0  0.66352155140E+02  0.60627873489E+02 -0.53166917878E+02  0.13836968840E+03  0.90780515392E+02 0.  0.
        -11    1    3    3    0    0 -0.10013479159E+02 -0.31000814910E+02 -0.18266228460E+02  0.37349369367E+02  0.00000000000E+00 0.  1.
         12    1    3    3    0    0 -0.97701535031E+01 -0.91345374772E+01 -0.18064643206E+03  0.18114090949E+03  0.00000000000E+00 0. -1.
        -13    1    4    4    0    0  0.18714318388E+02  0.53570681262E+02  0.11341893571E+02  0.57867798933E+02  0.00000000000E+00 0.  1.
         13    1    4    4    0    0  0.47637836752E+02  0.70571922269E+01 -0.64508811450E+02  0.80501889464E+02  0.00000000000E+00 0. -1.
          1    1    1    2  501    0 -0.46568522478E+02 -0.20492521102E+02  0.39814121874E+01  0.51033541420E+02  0.00000000000E+00 0. -1.
<scales pt_clust_5="13000.00000" pt_clust_6="13000.00000" pt_clust_7="13000.00000" pt_clust_8="13000.00000" pt_clust_9="13000.00000"></scales>
<clustering>
<clus scale="   78.546">  5  6 -1 -1</clus>
<clus scale="   90.398">  2  5  1 -1</clus>
<clus scale="   90.781">  7  8 -1 -1</clus>
<clus scale="   57.916">  7  9 -1 -1</clus>
<clus scale="  182.905">  1  5  2 -1</clus>
</clustering>
</event>
<event>
 9    2  0.4178938E-005  0.1539714E+03  0.7546771E-02  0.1223769E+00
         -3   -1    0    0    0  501 -0.00000000000E+00  0.00000000000E+00  0.51582272897E+03  0.51582272897E+03  0.00000000000E+00 0.  1.
         21   -1    0    0  501  502  0.00000000000E+00 -0.00000000000E+00 -0.28106116906E+02  0.28106116906E+02  0.00000000000E+00 0.  1.
         24    2    1    2    0    0  0.15917358729E+01  0.27940403896E+02  0.21055124527E+03  0.22686759585E+03  0.79711224871E+02 0.  0.
         23    2    1    2    0    0 -0.11449644905E+02  0.27287118692E+02  0.12574182448E+03  0.15557952725E+03  0.86708140691E+02 0.  0.
        -11    1    3    3    0    0  0.32964423454E+02 -0.55270213531E+01  0.12941166667E+03  0.13365844772E+03  0.00000000000E+00 0.  1.
         12    1    3    3    0    0 -0.31372687581E+02  0.33467425249E+02  0.81139578602E+02  0.93209148127E+02  0.00000000000E+00 0. -1.
        -11    1    4    4    0    0  0.37758110251E+02  0.94119165778E+01  0.46950744603E+02  0.60980582829E+02  0.00000000000E+00 0. -1.
         11    1    4    4    0    0 -0.49207755156E+02  0.17875202115E+02  0.78791079876E+02  0.94598944424E+02  0.00000000000E+00 0.  1.
         -4    1    1    2    0  502  0.98579090320E+01 -0.55227522588E+02  0.15142354232E+03  0.16148172277E+03  0.00000000000E+00 0.  1.
<scales pt_clust_5="13000.00000" pt_clust_6="13000.00000" pt_clust_7="13000.00000" pt_clust_8="13000.00000" pt_clust_9="13000.00000"></scales>
<clustering>
<clus scale="   79.711">  5  6 -1 -1</clus>
<clus scale="   84.481">  1  5  2 -1</clus>
<clus scale="   86.708">  7  8 -1 -1</clus>
<clus scale="   41.903">  7  9 -1 -1</clus>
<clus scale="  153.971">  2  5  1 -1</clus>
</clustering>
</event>
<event>
 9    2  0.4178938E-005  0.2600113E+03  0.7546771E-02  0.1132190E+00
         -1   -1    0    0    0  501 -0.00000000000E+00  0.00000000000E+00  0.20373543705E+03  0.20373543705E+03  0.00000000000E+00 0.  1.
         21   -1    0    0  501  502  0.00000000000E+00 -0.00000000000E+00 -0.23751265439E+03  0.23751265439E+03  0.00000000000E+00 0.  1.
         24    2    1    2    0    0 -0.81487242772E+02 -0.79277180935E+02  0.76789106694E+02  0.15870462551E+03  0.79784391329E+02 0.  0.
         23    2    1    2    0    0  0.52829669530E+02 -0.54189627595E+02 -0.77548354833E+02  0.14209834578E+03  0.91927704289E+02 0.  0.
        -11    1    3    3    0    0 -0.60713121338E+02 -0.32415358192E+02  0.82143968408E+02  0.10716561993E+03  0.00000000000E+00 0.  1.
         12    1    3    3    0    0 -0.20774121433E+02 -0.46861822743E+02 -0.53548617135E+01  0.51539005579E+02  0.00000000000E+00 0. -1.
        -13    1    4    4    0    0  0.52807989443E+02 -0.27389081954E+02 -0.93566153479E+02  0.11087592451E+03  0.00000000000E+00 0.  1.
         13    1    4    4    0    0  0.21680086942E-01 -0.26800545641E+02  0.16017798646E+02  0.31222421273E+02  0.00000000000E+00 0. -1.
         -2    1    1    2    0  502  0.28657573241E+02  0.13346680853E+03 -0.33017969193E+02  0.14044512015E+03  0.00000000000E+00 0.  1.
<scales pt_clust_5="13000.00000" pt_clust_6="13000.00000" pt_clust_7="13000.00000" pt_clust_8="13000.00000" pt_clust_9="13000.00000"></scales>
<clustering>
<clus scale="   79.784">  5  6 -1 -1</clus>
<clus scale="   91.928">  7  8 -1 -1</clus>
<clus scale="  136.509">  7  9 -1 -1</clus>
<clus scale="  138.891">  1  5  2 -1</clus>
<clus scale="  260.011">  2  5  1 -1</clus>
</clustering>
</event>
<event>
 9    2  0.4178938E-005  0.9082876E+03  0.7546771E-02  0.9990627E-01
         21   -1    0    0  501  502  0.00000000000E+00  0.00000000000E+00  0.16684850866E+03  0.16684850866E+03  0.00000000000E+00 0. -1.
          2   -1    0    0  502    0 -0.00000000000E+00 -0.00000000000E+00 -0.16325002060E+04  0.16325002060E+04  0.00000000000E+00 0. -1.
         24    2    1    2    0    0 -0.88508061432E+02 -0.57155440221E+02 -0.24003894578E+03  0.27386093877E+03  0.79250848649E+02 0.  0.
         23    2    1    2    0    0 -0.19844788512E+03 -0.34727765871E+03 -0.59496692015E+03  0.72322596609E+03  0.95324847787E+02 0.  0.
        -13    1    3    3    0    0 -0.67362984978E+02 -0.20168161526E+02 -0.72536665205E+02  0.10102521608E+03  0.00000000000E+00 0.  1.
         14    1    3    3    0    0 -0.21145076454E+02 -0.36987278695E+02 -0.16750228057E+03  0.17283572270E+03  0.00000000000E+00 0. -1.
        -11    1    4    4    0    0 -0.16466661401E+03 -0.28626053105E+03 -0.54565983348E+03  0.63781254243E+03  0.00000000000E+00 0. -1.
         11    1    4    4    0    0 -0.33781271115E+02 -0.61017127657E+02 -0.49307086673E+02  0.85413423663E+02  0.00000000000E+00 0.  1.
          1    1    1    2  501    0  0.28695594656E+03  0.40443309893E+03 -0.63064583145E+03  0.80226180982E+03  0.00000000000E+00 0. -1.
<scales pt_clust_5="13000.00000" pt_clust_6="13000.00000" pt_clust_7="13000.00000" pt_clust_8="13000.00000" pt_clust_9="13000.00000"></scales>
<clustering>
<clus scale="   79.251">  5  6 -1 -1</clus>
<clus scale="   95.325">  7  8 -1 -1</clus>
<clus scale="  131.837">  2  5  1 -1</clus>
<clus scale="  445.404">  7  9 -1 -1</clus>
<clus scale="  908.288">  1  5  2 -1</clus>
</clustering>
</event>
<event>
 9    2  0.4178938E-005  0.4340504E+03  0.7546771E-02  0.1082074E+00
         -1   -1    0    0    0  501 -0.00000000000E+00  0.00000000000E+00  0.41806942263E+03  0.41806942263E+03  0.00000000000E+00 0.  1.
         21   -1    0    0  501  502  0.00000000000E+00 -0.00000000000E+00 -0.27489838751E+03  0.27489838751E+03  0.00000000000E+00 0. -1.
         24    2    1    2    0    0  0.27759943193E+02 -0.62475290489E+02  0.22663039233E+03  0.25096644737E+03  0.83360941741E+02 0.  0.
         23    2    1    2    0    0  0.16261365135E+02 -0.13256840322E+03 -0.16232073516E+03  0.22706175503E+03  0.85849903941E+02 0.  0.
        -11    1    3    3    0    0  0.14568395873E+02  0.19642139861E+02  0.57850234054E+02  0.62806857880E+02  0.00000000000E+00 0.  1.
         12    1    3    3    0    0  0.13191547320E+02 -0.82117430349E+02  0.16878015828E+03  0.18815958949E+03  0.00000000000E+00 0. -1.
        -13    1    4    4    0    0 -0.60364683246E+01 -0.27075443615E+02 -0.97240115006E+02  0.10111952612E+03  0.00000000000E+00 0.  1.
         13    1    4    4    0    0  0.22297833460E+02 -0.10549295960E+03 -0.65080620155E+02  0.12594222891E+03  0.00000000000E+00 0. -1.
         -2    1    1    2    0  502 -0.44021308328E+02  0.19504369371E+03  0.78861377952E+02  0.21493960774E+03  0.00000000000E+00 0.  1.
<scales pt_clust_5="13000.00000" pt_clust_6="13000.00000" pt_clust_7="13000.00000" pt_clust_8="13000.00000" pt_clust_9="13000.00000"></scales>
<clustering>
<clus scale="   83.361">  5  6 -1 -1</clus>
<clus scale="   85.850">  7  8 -1 -1</clus>
<clus scale="  107.809">  1  5  2 -1</clus>
<clus scale="  145.414">  7  9 -1 -1</clus>
<clus scale="  434.050">  2  5  1 -1</clus>
</clustering>
</event>
<event>
 9    2  0.4178938E-005  0.4039449E+03  0.7546771E-02  0.1077952E+00
          2   -1    0    0  502    0 -0.00000000000E+00  0.00000000000E+00  0.78483457942E+03  0.78483457942E+03  0.00000000000E+00 0. -1.
         21   -1    0    0  501  502  0.00000000000E+00 -0.00000000000E+00 -0.99478709435E+02  0.99478709435E+02  0.00000000000E+00 0. -1.
         24    2    1    2    0    0 -0.11829617916E+03  0.45127362942E+02  0.24287361548E+03  0.28517887392E+03  0.79428786588E+02 0.  0.
         23    2    1    2    0    0  0.73663816992E+02 -0.20578772719E+03  0.24056324539E+03  0.33726596202E+03  0.90015040451E+02 0.  0.
        -13    1    3    3    0    0 -0.17405170675E+02  0.30624728543E+02  0.20993535544E+02  0.41006615310E+02  0.00000000000E+00 0.  1.
         14    1    3    3    0    0 -0.10089100849E+03  0.14502634399E+02  0.22188007994E+03  0.24417225861E+03  0.00000000000E+00 0. -1.
        -11    1    4    4    0    0  0.40290995661E+02 -0.10044005966E+03  0.55257268029E+02  0.12151105129E+03  0.00000000000E+00 0. -1.
         11    1    4    4    0    0  0.33372821331E+02 -0.10534766754E+03  0.18530597736E+03  0.21575491073E+03  0.00000000000E+00 0.  1.
          1    1    1    2  501    0  0.44632362170E+02  0.16066036425E+03  0.20191900911E+03  0.26186845292E+03  0.00000000000E+00 0. -1.
<scales pt_clust_5="13000.00000" pt_clust_6="13000.00000" pt_clust_7="13000.00000" pt_clust_8="13000.00000" pt_clust_9="13000.00000"></scales>
<clustering>
<clus scale="   79.429">  5  6 -1 -1</clus>
<clus scale="   90.015">  7  8 -1 -1</clus>
<clus scale="  149.464">  1  5  2 -1</clus>
<clus scale="  180.932">  7  9 -1 -1</clus>
<clus scale="  403.945">  2  5  1 -1</clus>
</clustering>
</event>
<event>
 9    2  0.4178938E-005  0.3377116E+03  0.7546771E-02  0.1113812E+00
         21   -1    0    0  501  502  0.00000000000E+00  0.00000000000E+00  0.25554234358E+03  0.25554234358E+03  0.00000000000E+00 0. -1.
          2   -1    0    0  502    0 -0.00000000000E+00 -0.00000000000E+00 -0.23380825754E+03  0.23380825754E+03  0.00000000000E+00 0. -1.
         24    2    1    2    0    0  0.12269577353E+02 -0.56889232552E+02  0.10125742907E+03  0.14240237006E+03  0.81476627008E+02 0.  0.
         23    2    1    2    0    0 -0.13660015990E+03  0.55797725165E+02 -0.12576157539E+03  0.21429356934E+03  0.91284008454E+02 0.  0.
        -11    1    3    3    0    0  0.87781818041E+01 -0.49093198318E+02  0.10148552965E+02  0.50893926201E+02  0.00000000000E+00 0.  1.
         12    1    3    3    0    0  0.34913955486E+01 -0.77960342341E+01  0.91108876107E+02  0.91508443862E+02  0.00000000000E+00 0. -1.
        -13    1    4    4    0    0 -0.25847648166E+02  0.26240206354E+02 -0.84992960749E+02  0.92630733140E+02  0.00000000000E+00 0.  1.
         13    1    4    4    0    0 -0.11075251173E+03  0.29557518811E+02 -0.40768614639E+02  0.12166283620E+03  0.00000000000E+00 0. -1.
          1    1    1    2  501    0  0.12433058254E+03  0.10915073876E+01  0.46238232360E+02  0.13265466172E+03  0.00000000000E+00 0. -1.
<scales pt_clust_5="13000.00000" pt_clust_6="13000.00000" pt_clust_7="13000.00000" pt_clust_8="13000.00000" pt_clust_9="13000.00000"></scales>
<clustering>
<clus scale="   81.477">  5  6 -1 -1</clus>
<clus scale="   91.284">  7  8 -1 -1</clus>
<clus scale="  100.127">  2  5  1 -1</clus>
<clus scale="  127.246">  7  9 -1 -1</clus>
<clus scale="  337.712">  1  5  2 -1</clus>
</clustering>
</event>
<event>
 9    2  0.4178938E-005  0.1684898E+03  0.7546771E-02  0.1201864E+00
          2   -1    0    0  502    0 -0.00000000000E+00  0.00000000000E+00  0.13004681634E+04  0.13004681634E+04  0.00000000000E+00 0. -1.
         21   -1    0    0  501  502  0.00000000000E+00 -0.00000000000E+00 -0.20499243678E+02  0.20499243678E+02  0.00000000000E+00 0. -1.
         24    2    1    2    0    0  0.57744484590E+02 -0.21119603386E+02  0.89329822181E+03  0.89918188228E+03  0.82254976586E+02 0.  0.
         23    2    1    2    0    0 -0.35351189405E+02 -0.13779627083E+02  0.13999670012E+03  0.17165060693E+03  0.91789270062E+02 0.  0.
        -11    1    3    3    0    0  0.13329577684E+02 -0.34775391437E+02  0.15455720600E+03  0.15898092784E+03  0.00000000000E+00 0.  1.
         12    1    3    3    0    0  0.44414906906E+02  0.13655788051E+02  0.73874101581E+03  0.74020095443E+03  0.00000000000E+00 0. -1.
        -13    1    4    4    0    0  0.15074563886E+02  0.16285685991E+02  0.95338720172E+02  0.97887372059E+02  0.00000000000E+00 0.  1.
         13    1    4    4    0    0 -0.50425753290E+02 -0.30065313074E+02  0.44657979953E+02  0.73763234871E+02  0.00000000000E+00 0. -1.
          1    1    1    2  501    0 -0.22393295185E+02  0.34899230468E+02  0.24667399783E+03  0.25013491792E+03  0.00000000000E+00 0. -1.
<scales pt_clust_5="13000.00000" pt_clust_6="13000.00000" pt_clust_7="13000.00000" pt_clust_8="13000.00000" pt_clust_9="13000.00000"></scales>
<clustering>
<clus scale="   82.255">  5  6 -1 -1</clus>
<clus scale="   91.789">  7  8 -1 -1</clus>
<clus scale="   41.466">  7  9 -1 -1</clus>
<clus scale="  102.695">  1  5  2 -1</clus>
<clus scale="  168.490">  2  5  1 -1</clus>
</clustering>
</event>
<event>
 9    2  0.4178938E-005  0.5939378E+03  0.7546771E-02  0.1049178E+00
         21   -1    0    0  501  502  0.00000000000E+00  0.00000000000E+00  0.12403196259E+03  0.12403196259E+03  0.00000000000E+00 0. -1.
          2   -1    0    0  502    0 -0.00000000000E+00 -0.00000000000E+00 -0.10460757982E+04  0.10460757982E+04  0.00000000000E+00 0. -1.
         24    2    1    2    0    0 -0.52930126401E+02  0.42625388650E+02 -0.26230808944E+03  0.28240660514E+03  0.79557745069E+02 0.  0.
         23    2    1    2    0    0 -0.24162201231E+03  0.52381599066E+02 -0.18934723643E+03  0.32462687971E+03  0.91679912365E+02 0.  0.
        -11    1    3    3    0    0 -0.74009776834E+02  0.30875333327E+02 -0.21034728270E+03  0.22511488759E+03  0.00000000000E+00 0.  1.
         12    1    3    3    0    0  0.21079650432E+02  0.11750055323E+02 -0.51960806744E+02  0.57291717551E+02  0.00000000000E+00 0. -1.
        -13    1    4    4    0    0 -0.94934648608E+02  0.25490318852E+01 -0.23817477370E+02  0.97909944838E+02  0.00000000000E+00 0. -1.
         13    1    4    4    0    0 -0.14668736370E+03  0.49832567181E+02 -0.16552975906E+03  0.22671693487E+03  0.00000000000E+00 0.  1.
          1    1    1    2  501    0  0.29455213871E+03 -0.95006987716E+02 -0.47038850977E+03  0.56307427597E+03  0.00000000000E+00 0. -1.
<scales pt_clust_5="13000.00000" pt_clust_6="13000.00000" pt_clust_7="13000.00000" pt_clust_8="13000.00000" pt_clust_9="13000.00000"></scales>
<clustering>
<clus scale="   79.558">  5  6 -1 -1</clus>
<clus scale="   91.680">  7  8 -1 -1</clus>
<clus scale="  104.632">  2  5  1 -1</clus>
<clus scale="  267.607">  7  9 -1 -1</clus>
<clus scale="  593.938">  1  5  2 -1</clus>
</clustering>
</event>
<event>
 9    2  0.4178938E-005  0.6074165E+03  0.7546771E-02  0.1023505E+00
         21   -1    0    0  501  502  0.00000000000E+00  0.00000000000E+00  0.10436781138E+04  0.10436781138E+04  0.00000000000E+00 0.  1.
          2   -1    0    0  502    0 -0.00000000000E+00 -0.00000000000E+00 -0.18344318059E+03  0.18344318059E+03  0.00000000000E+00 0. -1.
         24    2    1    2    0    0  0.16917020325E+03 -0.89115211459E+02  0.44587487320E+03  0.49183287086E+03  0.80839914186E+02 0.  0.
         23    2    1    2    0    0  0.66129687016E+02 -0.34635323735E+02 -0.10201394115E+03  0.15449384505E+03  0.88818707580E+02 0.  0.
        -11    1    3    3    0    0  0.17637130214E+03 -0.75697482950E+02  0.42066392116E+03  0.46237980028E+03  0.00000000000E+00 0.  1.
         12    1    3    3    0    0 -0.72010988923E+01 -0.13417728509E+02  0.25210952040E+02  0.29453070576E+02  0.00000000000E+00 0. -1.
        -11    1    4    4    0    0  0.55733936757E+02  0.16735738679E+02 -0.76732177716E+02  0.96302563582E+02  0.00000000000E+00 0.  1.
         11    1    4    4    0    0  0.10395750259E+02 -0.51371062415E+02 -0.25281763430E+02  0.58191281470E+02  0.00000000000E+00 0. -1.
          1    1    1    2  501    0 -0.23529989027E+03  0.12375053519E+03  0.51637400114E+03  0.58079457847E+03  0.00000000000E+00 0. -1.
<scales pt_clust_5="13000.00000" pt_clust_6="13000.00000" pt_clust_7="13000.00000" pt_clust_8="13000.00000" pt_clust_9="13000.00000"></scales>
<clustering>
<clus scale="   80.840">  5  6 -1 -1</clus>
<clus scale="   88.819">  7  8 -1 -1</clus>
<clus scale="  207.594">  2  5  1 -1</clus>
<clus scale="  227.476">  7  9 -1 -1</clus>
<clus scale="  607.417">  1  5  2 -1</clus>
</clustering>
</event>
<event>
 9    2  0.4178938E-005  0.2289433E+03  0.7546771E-02  0.1170389E+00
          2   -1    0    0  502    0 -0.00000000000E+00  0.00000000000E+00  0.84208719158E+03  0.84208719158E+03  0.00000000000E+00 0. -1.
         21   -1    0    0  501  502  0.00000000000E+00 -0.00000000000E+00 -0.29581887138E+02  0.29581887138E+02  0.00000000000E+00 0. -1.
         24    2    1    2    0    0 -0.15984737510E+02 -0.12705419908E+02  0.28355300000E+03  0.29529631812E+03  0.79879109640E+02 0.  0.
         23    2    1    2    0    0 -0.33699659535E+02 -0.78693656151E+02  0.31346810627E+03  0.33709098094E+03  0.89664470186E+02 0.  0.
        -11    1    3    3    0    0  0.30364796422E+02 -0.18712480426E+02  0.12746761420E+03  0.13236378076E+03  0.00000000000E+00 0.  1.
         12    1    3    3    0    0 -0.46349533932E+02  0.60070605187E+01  0.15608538580E+03  0.16293253736E+03  0.00000000000E+00 0. -1.
        -13    1    4    4    0    0 -0.33991889560E+02  0.98455495573E+01  0.93391541873E+02  0.99871735217E+02  0.00000000000E+00 0.  1.
         13    1    4    4    0    0  0.29223002559E+00 -0.88539205708E+02  0.22007656439E+03  0.23721924572E+03  0.00000000000E+00 0. -1.
          1    1    1    2  501    0  0.49684397045E+02  0.91399076059E+02  0.21548419818E+03  0.23928177966E+03  0.00000000000E+00 0. -1.
<scales pt_clust_5="13000.00000" pt_clust_6="13000.00000" pt_clust_7="13000.00000" pt_clust_8="13000.00000" pt_clust_9="13000.00000"></scales>
<clustering>
<clus scale="   79.879">  5  6 -1 -1</clus>
<clus scale="   82.448">  1  5  2 -1</clus>
<clus scale="   89.664">  7  8 -1 -1</clus>
<clus scale="   96.353">  7  9 -1 -1</clus>
<clus scale="  228.943">  2  5  1 -1</clus>
</clustering>
</event>
<event>
 9    2  0.4178938E-005  0.6650471E+03  0.7546771E-02  0.1033019E+00
         21   -1    0    0  501  502  0.00000000000E+00  0.00000000000E+00  0.33861029951E+03  0.33861029951E+03  0.00000000000E+00 0. -1.
          2   -1    0    0  502    0 -0.00000000000E+00 -0.00000000000E+00 -0.45461040679E+03  0.45461040679E+03  0.00000000000E+00 0. -1.
         24    2    1    2    0    0 -0.46506689543E+02  0.74768178878E+02 -0.27825486917E+02  0.12235382644E+03  0.80268601439E+02 0.  0.
         23    2    1    2    0    0  0.70804420131E+02  0.10894405967E+03 -0.33006166725E+03  0.36615404823E+03  0.90807537142E+02 0.  0.
        -13    1    3    3    0    0  0.19391944537E+02  0.13415258943E+02  0.87768830432E+01  0.25160492074E+02  0.00000000000E+00 0.  1.
         14    1    3    3    0    0 -0.65898634080E+02  0.61352919935E+02 -0.36602369960E+02  0.97193334364E+02  0.00000000000E+00 0. -1.
        -13    1    4    4    0    0 -0.18555974416E+01  0.62013268704E+02 -0.20433632108E+03  0.21354723330E+03  0.00000000000E+00 0.  1.
         13    1    4    4    0    0  0.72660017572E+02  0.46930790969E+02 -0.12572534616E+03  0.15260681493E+03  0.00000000000E+00 0. -1.
          1    1    1    2  501    0 -0.24297730588E+02 -0.18371223855E+03  0.24188704689E+03  0.30471283162E+03  0.00000000000E+00 0. -1.
<scales pt_clust_5="13000.00000" pt_clust_6="13000.00000" pt_clust_7="13000.00000" pt_clust_8="13000.00000" pt_clust_9="13000.00000"></scales>
<clustering>
<clus scale="   80.269">  5  6 -1 -1</clus>
<clus scale="   90.808">  7  8 -1 -1</clus>
<clus scale="  119.148">  2  5  1 -1</clus>
<clus scale="  179.741">  7  9 -1 -1</clus>
<clus scale="  665.047">  1  5  2 -1</clus>
</clustering>
</event>
<event>
 9    2  0.4178938E-005  0.2218404E+03  0.7546771E-02  0.1173664E+00
         21   -1    0    0  501  502  0.00000000000E+00  0.00000000000E+00  0.64738971597E+02  0.64738971597E+02  0.00000000000E+00 0. -1.
          2   -1    0    0  502    0 -0.00000000000E+00 -0.00000000000E+00 -0.39783464507E+03  0.39783464507E+03  0.00000000000E+00 0. -1.
         24    2    1    2    0    0 -0.21086894623E+02  0.21068555271E+01 -0.16159311103E+03  0.18216981985E+03  0.81390501700E+02 0.  0.
         23    2    1    2    0    0 -0.60624212327E+02  0.33175222975E+01 -0.24247877410E+02  0.11191026241E+03  0.90827562989E+02 0.  0.
        -13    1    3    3    0    0 -0.46736295588E+02 -0.16956872367E+02 -0.76123530118E+02  0.90920892447E+02  0.00000000000E+00 0.  1.
         14    1    3    3    0    0  0.25649400965E+02  0.19063727894E+02 -0.85469580909E+02  0.91248927401E+02  0.00000000000E+00 0. -1.
        -13    1    4    4    0    0 -0.24945821928E+02 -0.37072413365E+02 -0.35241470477E+02  0.56908866671E+02  0.00000000000E+00 0.  1.
         13    1    4    4    0    0 -0.35678390399E+02  0.40389935663E+02  0.10993593067E+02  0.55001395736E+02  0.00000000000E+00 0. -1.
          1    1    1    2  501    0  0.81711106950E+02 -0.54243778246E+01 -0.14725468504E+03  0.16849353441E+03  0.00000000000E+00 0. -1.
<scales pt_clust_5="13000.00000" pt_clust_6="13000.00000" pt_clust_7="13000.00000" pt_clust_8="13000.00000" pt_clust_9="13000.00000"></scales>
<clustering>
<clus scale="   81.391">  5  6 -1 -1</clus>
<clus scale="   84.104">  2  5  1 -1</clus>
<clus scale="   90.828">  7  8 -1 -1</clus>
<clus scale="   67.094">  7  9 -1 -1</clus>
<clus scale="  221.840">  1  5  2 -1</clus>
</clustering>
</event>
<event>
 9    2  0.4178938E-005  0.2695078E+03  0.7546771E-02  0.1127639E+00
         21   -1    0    0  501  502  0.00000000000E+00  0.00000000000E+00  0.59126872677E+02  0.59126872677E+02  0.00000000000E+00 0. -1.
          2   -1    0    0  502    0 -0.00000000000E+00 -0.00000000000E+00 -0.71567723878E+03  0.71567723878E+03  0.00000000000E+00 0. -1.
         24    2    1    2    0    0 -0.11105741308E+03  0.25255534718E+02 -0.26508056176E+03  0.29953253235E+03  0.80501196750E+02 0.  0.
         23    2    1    2    0    0 -0.96781949858E+01 -0.52338285366E+02 -0.31054018846E+03  0.32741974394E+03  0.89081516042E+02 0.  0.
        -13    1    3    3    0    0 -0.10999703981E+02 -0.19830296668E+02 -0.17257879460E+02  0.28496816613E+02  0.00000000000E+00 0.  1.
         14    1    3    3    0    0 -0.10005770910E+03  0.45085831386E+02 -0.24782268230E+03  0.27103571573E+03  0.00000000000E+00 0. -1.
        -11    1    4    4    0    0  0.35113840812E+02 -0.86125587153E+00 -0.11970732995E+03  0.12475403169E+03  0.00000000000E+00 0.  1.
         11    1    4    4    0    0 -0.44792035798E+02 -0.51477029495E+02 -0.19083285850E+03  0.20266571225E+03  0.00000000000E+00 0. -1.
          1    1    1    2  501    0  0.12073560806E+03  0.27082750649E+02 -0.80929615892E+02  0.14785183518E+03  0.00000000000E+00 0. -1.
<scales pt_clust_5="13000.00000" pt_clust_6="13000.00000" pt_clust_7="13000.00000" pt_clust_8="13000.00000" pt_clust_9="13000.00000"></scales>
<clustering>
<clus scale="   80.501">  5  6 -1 -1</clus>
<clus scale="   89.082">  7  8 -1 -1</clus>
<clus scale="  123.736">  7  9 -1 -1</clus>
<clus scale="  139.471">  2  5  1 -1</clus>
<clus scale="  269.508">  1  5  2 -1</clus>
</clustering>
</event>
<event>
 9    2  0.4178938E-005  0.2241461E+03  0.7546771E-02  0.1145715E+00
         21   -1    0    0  501  502  0.00000000000E+00  0.00000000000E+00  0.73675979869E+02  0.73675979869E+02  0.00000000000E+00 0. -1.
          2   -1    0    0  502    0 -0.00000000000E+00 -0.00000000000E+00 -0.49164312580E+03  0.49164312580E+03  0.00000000000E+00 0. -1.
         24    2    1    2    0    0  0.10680212404E+03 -0.77425685847E+02 -0.17942716855E+03  0.23799238937E+03  0.83933533564E+02 0.  0.
         23    2    1    2    0    0 -0.33002572917E+02  0.10182002440E+03 -0.18605510767E+03  0.23353908892E+03  0.92019105503E+02 0.  0.
        -11    1    3    3    0    0  0.23102300133E+02  0.93293286409E+01 -0.73178681147E+02  0.77303764583E+02  0.00000000000E+00 0.  1.
         12    1    3    3    0    0  0.83699823910E+02 -0.86755014488E+02 -0.10624848741E+03  0.16068862479E+03  0.00000000000E+00 0. -1.
        -13    1    4    4    0    0 -0.36340885762E+02  0.10818087531E+02 -0.10496774369E+03  0.11160608501E+03  0.00000000000E+00 0.  1.
         13    1    4    4    0    0  0.33383128449E+01  0.91001936865E+02 -0.81087363978E+02  0.12193300391E+03  0.00000000000E+00 0. -1.
          1    1    1    2  501    0 -0.73799551125E+02 -0.24394338549E+02 -0.52484869706E+02  0.93787627370E+02  0.00000000000E+00 0. -1.
<scales pt_clust_5="13000.00000" pt_clust_6="13000.00000" pt_clust_7="13000.00000" pt_clust_8="13000.00000" pt_clust_9="13000.00000"></scales>
<clustering>
<clus scale="   83.934">  5  6 -1 -1</clus>
<clus scale="   92.019">  7  8 -1 -1</clus>
<clus scale="   77.727">  7  9 -1 -1</clus>
<clus scale="  156.353">  2  5  1 -1</clus>
<clus scale="  224.146">  1  5  2 -1</clus>
</clustering>
</event>
<event>
 9    2  0.4178938E-005  0.2937318E+03  0.7546771E-02  0.1116369E+00
         21   -1    0    0  501  502  0.00000000000E+00  0.00000000000E+00  0.68924118787E+02  0.68924118787E+02  0.00000000000E+00 0.  1.
         -1   -1    0    0    0  501 -0.00000000000E+00 -0.00000000000E+00 -0.70244745434E+03  0.70244745434E+03  0.00000000000E+00 0.  1.
         24    2    1    2    0    0  0.11243777125E+03  0.35193724991E+02 -0.16219229794E+03  0.21600566026E+03  0.80444099042E+02 0.  0.
         23    2    1    2    0    0  0.16115165910E+02  0.55869649459E+02 -0.31794205463E+03  0.33548736475E+03  0.89908317204E+02 0.  0.
        -13    1    3    3    0    0  0.10947017842E+03  0.52866934073E+02 -0.12313981584E+03  0.17303770377E+03  0.00000000000E+00 0.  1.
         14    1    3    3    0    0  0.29675928300E+01 -0.17673209083E+02 -0.39052482099E+02  0.42967956486E+02  0.00000000000E+00 0. -1.
        -13    1    4    4    0    0 -0.35944235521E+02  0.13347227192E+02 -0.89654059193E+02  0.97508906622E+02  0.00000000000E+00 0. -1.
         13    1    4    4    0    0  0.52059401431E+02  0.42522422267E+02 -0.22828799544E+03  0.23797845813E+03  0.00000000000E+00 0.  1.
         -2    1    1    2    0  502 -0.12855293716E+03 -0.91063374450E+02 -0.15338898299E+03  0.21987854812E+03  0.00000000000E+00 0.  1.
<scales pt_clust_5="13000.00000" pt_clust_6="13000.00000" pt_clust_7="13000.00000" pt_clust_8="13000.00000" pt_clust_9="13000.00000"></scales>
<clustering>
<clus scale="   80.444">  5  6 -1 -1</clus>
<clus scale="   89.908">  7  8 -1 -1</clus>
<clus scale="  142.661">  2  5  1 -1</clus>
<clus scale="  117.528">  7  9 -1 -1</clus>
<clus scale="  293.732">  1  5  2 -1</clus>
</clustering>
</event>
<event>
 9    2  0.4178938E-005  0.4787495E+03  0.7546771E-02  0.1065661E+00
         -1   -1    0    0    0  501 -0.00000000000E+00  0.00000000000E+00  0.54958573026E+03  0.54958573026E+03  0.00000000000E+00 0.  1.
         21   -1    0    0  501  502  0.00000000000E+00 -0.00000000000E+00 -0.16617969995E+03  0.16617969995E+03  0.00000000000E+00 0. -1.
         24    2    1    2    0    0  0.90234931636E+02 -0.39744716423E+02  0.78997834953E+02  0.14843356854E+03  0.77909440836E+02 0.  0.
         23    2    1    2    0    0  0.86112198358E+02 -0.10051231173E+03  0.30245548181E+03  0.34200064480E+03  0.89258540509E+02 0.  0.
        -11    1    3    3    0    0  0.34378243554E+02 -0.54113040262E+02  0.59736309383E+02  0.87627115752E+02  0.00000000000E+00 0.  1.
         12    1    3    3    0    0  0.55856688082E+02  0.14368323839E+02  0.19261525570E+02  0.60806452789E+02  0.00000000000E+00 0. -1.
        -13    1    4    4    0    0  0.77703916424E+02 -0.22152938160E+02  0.14972590195E+03  0.17013670096E+03  0.00000000000E+00 0.  1.
         13    1    4    4    0    0  0.84082819349E+01 -0.78359373572E+02  0.15272957985E+03  0.17186394384E+03  0.00000000000E+00 0. -1.
         -2    1    1    2    0  502 -0.17634712999E+03  0.14025702816E+03  0.19527135556E+01  0.22533121687E+03  0.00000000000E+00 0.  1.
<scales pt_clust_5="13000.00000" pt_clust_6="13000.00000" pt_clust_7="13000.00000" pt_clust_8="13000.00000" pt_clust_9="13000.00000"></scales>
<clustering>
<clus scale="   77.909">  5  6 -1 -1</clus>
<clus scale="   89.259">  7  8 -1 -1</clus>
<clus scale="  125.666">  1  5  2 -1</clus>
<clus scale="  200.566">  7  9 -1 -1</clus>
<clus scale="  478.750">  2  5  1 -1</clus>
</clustering>
</event>
<event>
 9    2  0.4178938E-005  0.1667638E+03  0.7546771E-02  0.1212062E+00
          2   -1    0    0  502    0 -0.00000000000E+00  0.00000000000E+00  0.79706457069E+03  0.79706457069E+03  0.00000000000E+00 0. -1.
         21   -1    0    0  501  502  0.00000000000E+00 -0.00000000000E+00 -0.66694710991E+02  0.66694710991E+02  0.00000000000E+00 0.  1.
         24    2    1    2    0    0  0.23129278543E+02 -0.16611809290E+02  0.68591303095E+03  0.69117144360E+03  0.80189542279E+02 0.  0.
         23    2    1    2    0    0  0.19076963542E+02 -0.46700856207E+00  0.74720155997E+02  0.11791680492E+03  0.89202704753E+02 0.  0.
        -13    1    3    3    0    0  0.29122133472E+02  0.17860745304E+02  0.13886482120E+03  0.14300539657E+03  0.00000000000E+00 0.  1.
         14    1    3    3    0    0 -0.59928549287E+01 -0.34472554593E+02  0.54704820975E+03  0.54816604704E+03  0.00000000000E+00 0. -1.
        -13    1    4    4    0    0  0.41476063225E+02 -0.70987635962E+01  0.26581485308E+01  0.42163040911E+02  0.00000000000E+00 0.  1.
         13    1    4    4    0    0 -0.22399099683E+02  0.66317550342E+01  0.72062007466E+02  0.75753764008E+02  0.00000000000E+00 0. -1.
          1    1    1    2  501    0 -0.42206242086E+02  0.17078817852E+02 -0.30263327250E+02  0.54671033157E+02  0.00000000000E+00 0. -1.
<scales pt_clust_5="13000.00000" pt_clust_6="13000.00000" pt_clust_7="13000.00000" pt_clust_8="13000.00000" pt_clust_9="13000.00000"></scales>
<clustering>
<clus scale="   80.190">  5  6 -1 -1</clus>
<clus scale="   85.096">  1  5  2 -1</clus>
<clus scale="   89.203">  7  8 -1 -1</clus>
<clus scale="   42.426">  7  9 -1 -1</clus>
<clus scale="  166.764">  2  5  1 -1</clus>
</clustering>
</event>
<event>
 9    2  0.4178938E-005  0.1580132E+03  0.7546771E-02  0.1220020E+00
          2   -1    0    0  502    0 -0.00000000000E+00  0.00000000000E+00  0.55033410325E+03  0.55033410325E+03  0.00000000000E+00 0. -1.
         21   -1    0    0  501  502  0.00000000000E+00 -0.00000000000E+00 -0.18897780359E+03  0.18897780359E+03  0.00000000000E+00 0.  1.
         24    2    1    2    0    0 -0.28124573197E+02 -0.14656042839E+02  0.51322957316E+03  0.52014604414E+03  0.78367858564E+02 0.  0.
         23    2    1    2    0    0 -0.98673486162E+01  0.46971710588E+02 -0.80387634892E+02  0.13200001485E+03  0.93049051111E+02 0.  0.
        -11    1    3    3    0    0  0.24362009487E+02 -0.12373566388E+02  0.10286590266E+03  0.10643310848E+03  0.00000000000E+00 0.  1.
         12    1    3    3    0    0 -0.52486582684E+02 -0.22824764508E+01  0.41036367050E+03  0.41371293565E+03  0.00000000000E+00 0. -1.
        -13    1    4    4    0    0 -0.26674158632E+02  0.59814354403E+02 -0.87845069419E+02  0.10957200351E+03  0.00000000000E+00 0.  1.
         13    1    4    4    0    0  0.16806810016E+02 -0.12842643815E+02  0.74574345275E+01  0.22428011343E+02  0.00000000000E+00 0. -1.
          1    1    1    2  501    0  0.37991921813E+02 -0.32315667749E+02 -0.71485638602E+02  0.87165847851E+02  0.00000000000E+00 0. -1.
<scales pt_clust_5="13000.00000" pt_clust_6="13000.00000" pt_clust_7="13000.00000" pt_clust_8="13000.00000" pt_clust_9="13000.00000"></scales>
<clustering>
<clus scale="   78.368">  5  6 -1 -1</clus>
<clus scale="   84.542">  1  5  2 -1</clus>
<clus scale="   93.049">  7  8 -1 -1</clus>
<clus scale="   47.593">  7  9 -1 -1</clus>
<clus scale="  158.013">  2  5  1 -1</clus>
</clustering>
</event>
<event>
 9    2  0.4178938E-005  0.2584031E+03  0.7546771E-02  0.1152830E+00
         -1   -1    0    0    0  501 -0.00000000000E+00  0.00000000000E+00  0.10610509499E+03  0.10610509499E+03  0.00000000000E+00 0.  1.
         21   -1    0    0  501  502  0.00000000000E+00 -0.00000000000E+00 -0.27988964561E+03  0.27988964561E+03  0.00000000000E+00 0.  1.
         24    2    1    2    0    0 -0.12026179923E+02  0.36615282934E+02 -0.46596318645E+02  0.97986025572E+02  0.77102116367E+02 0.  0.
         23    2    1    2    0    0  0.97030140691E+02 -0.46095773115E+02 -0.14296752675E+03  0.20103435568E+03  0.91844596773E+02 0.  0.
        -13    1    3    3    0    0 -0.13247791885E+02  0.57204745322E+02 -0.15602050277E+02  0.60756158948E+02  0.00000000000E+00 0.  1.
         14    1    3    3    0    0  0.12216119621E+01 -0.20589462388E+02 -0.30994268368E+02  0.37229866625E+02  0.00000000000E+00 0. -1.
        -11    1    4    4    0    0  0.97061619813E+02 -0.69430340988E+01 -0.12372873328E+03  0.15741017503E+03  0.00000000000E+00 0.  1.
         11    1    4    4    0    0 -0.31479122467E-01 -0.39152739016E+02 -0.19238793476E+02  0.43624180655E+02  0.00000000000E+00 0. -1.
         -2    1    1    2    0  502 -0.85003960768E+02  0.94804901808E+01  0.15779294776E+02  0.86974359348E+02  0.00000000000E+00 0.  1.
<scales pt_clust_5="13000.00000" pt_clust_6="13000.00000" pt_clust_7="13000.00000" pt_clust_8="13000.00000" pt_clust_9="13000.00000"></scales>
<clustering>
<clus scale="   77.102">  5  6 -1 -1</clus>
<clus scale="   86.198">  1  5  2 -1</clus>
<clus scale="   91.845">  7  8 -1 -1</clus>
<clus scale="   98.345">  7  9 -1 -1</clus>
<clus scale="  258.403">  2  5  1 -1</clus>
</clustering>
</event>
<event>
 9    2  0.4178938E-005  0.1628383E+03  0.7546771E-02  0.1210374E+00
         -1   -1    0    0    0  501 -0.00000000000E+00  0.00000000000E+00  0.83224670036E+02  0.83224670036E+02  0.00000000000E+00 0.  1.
         21   -1    0    0  501  502  0.00000000000E+00 -0.00000000000E+00 -0.27752762287E+03  0.27752762287E+03  0.00000000000E+00 0. -1.
         24    2    1    2    0    0 -0.35951315298E+01  0.49026085970E+02  0.14618043072E+02  0.95866883933E+02  0.80995618249E+02 0.  0.
         23    2    1    2    0    0  0.27458513139E+02  0.49318339998E+00 -0.18081644168E+03  0.20314818367E+03  0.88432945051E+02 0.  0.
        -11    1    3    3    0    0 -0.26779156464E+02  0.46559578939E+02  0.35651325984E+02  0.64466539044E+02  0.00000000000E+00 0.  1.
         12    1    3    3    0    0  0.23184024934E+02  0.24665070314E+01 -0.21033282913E+02  0.31400344889E+02  0.00000000000E+00 0. -1.
        -11    1    4    4    0    0 -0.85254485560E+01 -0.34924602541E+02 -0.41183341893E+02  0.54666980758E+02  0.00000000000E+00 0.  1.
         11    1    4    4    0    0  0.35983961695E+02  0.35417785941E+02 -0.13963309979E+03  0.14848120291E+03  0.00000000000E+00 0. -1.
         -2    1    1    2    0  502 -0.23863381609E+02 -0.49519269370E+02 -0.28104554229E+02  0.61737225312E+02  0.00000000000E+00 0.  1.
<scales pt_clust_5="13000.00000" pt_clust_6="13000.00000" pt_clust_7="13000.00000" pt_clust_8="13000.00000" pt_clust_9="13000.00000"></scales>
<clustering>
<clus scale="   80.996">  5  6 -1 -1</clus>
<clus scale="   88.433">  7  8 -1 -1</clus>
<clus scale="   54.969">  7  9 -1 -1</clus>
<clus scale="   94.746">  1  5  2 -1</clus>
<clus scale="  162.838">  2  5  1 -1</clus>
</clustering>
</event>
<event>
 9    2  0.4178938E-005  0.2141932E+03  0.7546771E-02  0.1171418E+00
         -1   -1    0    0    0  501 -0.00000000000E+00  0.00000000000E+00  0.35186705871E+03  0.35186705871E+03  0.00000000000E+00 0.  1.
         21   -1    0    0  501  502  0.00000000000E+00 -0.00000000000E+00 -0.16838208991E+03  0.16838208991E+03  0.00000000000E+00 0.  1.
         24    2    1    2    0    0 -0.76765390574E+01  0.54067342392E+02  0.27143651872E+03  0.28870173185E+03  0.81784469900E+02 0.  0.
         23    2    1    2    0    0 -0.19610457252E+02 -0.32664179271E+02  0.37212809891E+02  0.10166750098E+03  0.86602360789E+02 0.  0.
        -13    1    3    3    0    0  0.11760997834E+02  0.70338443999E+02  0.22153935037E+03  0.23273483095E+03  0.00000000000E+00 0.  1.
         14    1    3    3    0    0 -0.19437536891E+02 -0.16271101607E+02  0.49897168350E+02  0.55966900908E+02  0.00000000000E+00 0. -1.
        -13    1    4    4    0    0 -0.40947661361E+02 -0.17053083995E+02 -0.11869679807E+02  0.45917403491E+02  0.00000000000E+00 0.  1.
         13    1    4    4    0    0  0.21337204108E+02 -0.15611095277E+02  0.49082489698E+02  0.55750097488E+02  0.00000000000E+00 0. -1.
         -2    1    1    2    0  502  0.27286996310E+02 -0.21403163121E+02 -0.12516435981E+03  0.12987991579E+03  0.00000000000E+00 0.  1.
<scales pt_clust_5="13000.00000" pt_clust_6="13000.00000" pt_clust_7="13000.00000" pt_clust_8="13000.00000" pt_clust_9="13000.00000"></scales>
<clustering>
<clus scale="   81.784">  5  6 -1 -1</clus>
<clus scale="   86.602">  7  8 -1 -1</clus>
<clus scale="   34.680">  7  9 -1 -1</clus>
<clus scale="   98.341">  1  5  2 -1</clus>
<clus scale="  214.193">  2  5  1 -1</clus>
</clustering>
</event>
<event>
 9    2  0.4178938E-005  0.1721716E+03  0.7546771E-02  0.1197245E+00
          2   -1    0    0  502    0 -0.00000000000E+00  0.00000000000E+00  0.84321986905E+02  0.84321986905E+02  0.00000000000E+00 0. -1.
         21   -1    0    0  501  502  0.00000000000E+00 -0.00000000000E+00 -0.23740866900E+03  0.23740866900E+03  0.00000000000E+00 0. -1.
         24    2    1    2    0    0  0.51993834243E+02 -0.48298986424E+02 -0.31571308420E+02  0.11099611297E+03  0.79292109887E+02 0.  0.
         23    2    1    2    0    0 -0.29880705702E+01  0.49857601519E+02 -0.12328869058E+03  0.16167194204E+03  0.91885834728E+02 0.  0.
        -11    1    3    3    0    0 -0.46859773337E+01 -0.48585717481E+02 -0.21889297590E+02  0.53494594827E+02  0.00000000000E+00 0.  1.
         12    1    3    3    0    0  0.56679811577E+02  0.28673105747E+00 -0.96820108303E+01  0.57501518143E+02  0.00000000000E+00 0. -1.
        -13    1    4    4    0    0 -0.20613560778E+02 -0.16961445952E+01 -0.10051401742E+03  0.10261999558E+03  0.00000000000E+00 0. -1.
         13    1    4    4    0    0  0.17625490208E+02  0.51553746114E+02 -0.22774673156E+02  0.59051946461E+02  0.00000000000E+00 0.  1.
          1    1    1    2  501    0 -0.49005763673E+02 -0.15586150952E+01  0.17733168967E+01  0.49062600899E+02  0.00000000000E+00 0. -1.
<scales pt_clust_5="13000.00000" pt_clust_6="13000.00000" pt_clust_7="13000.00000" pt_clust_8="13000.00000" pt_clust_9="13000.00000"></scales>
<clustering>
<clus scale="   79.292">  5  6 -1 -1</clus>
<clus scale="   91.886">  7  8 -1 -1</clus>
<clus scale="   49.031">  7  9 -1 -1</clus>
<clus scale="  106.411">  1  5  2 -1</clus>
<clus scale="  172.172">  2  5  1 -1</clus>
</clustering>
</event>
<event>
 9    2  0.4178938E-005  0.5531029E+03  0.7546771E-02  0.1031630E+00
          2   -1    0    0  502    0 -0.00000000000E+00  0.00000000000E+00  0.49265918461E+03  0.49265918461E+03  0.00000000000E+00 0. -1.
         21   -1    0    0  501  502  0.00000000000E+00 -0.00000000000E+00 -0.30690074555E+03  0.30690074555E+03  0.00000000000E+00 0. -1.
         24    2    1    2    0    0 -0.19864615597E+03  0.24511604671E+02 -0.93668297875E+00  0.21579813600E+03  0.80665011525E+02 0.  0.
         23    2    1    2    0    0  0.12156037597E+03  0.20786480717E+03  0.21786990530E+03  0.33695644298E+03  0.89931339160E+02 0.  0.
        -11    1    3    3    0    0 -0.14481689497E+03  0.30082715977E+02  0.33498627516E+02  0.15165441278E+03  0.00000000000E+00 0.  1.
         12    1    3    3    0    0 -0.53829260994E+02 -0.55711113061E+01 -0.34435310495E+02  0.64143723226E+02  0.00000000000E+00 0. -1.
        -13    1    4    4    0    0  0.86829639351E+02  0.92404527303E+02  0.65698692694E+02  0.14280861724E+03  0.00000000000E+00 0.  1.
         13    1    4    4    0    0  0.34730736619E+02  0.11546027987E+03  0.15217121261E+03  0.19414782574E+03  0.00000000000E+00 0. -1.
          1    1    1    2  501    0  0.77085779995E+02 -0.23237641184E+03 -0.31174783264E+02  0.24680535118E+03  0.00000000000E+00 0. -1.
<scales pt_clust_5="13000.00000" pt_clust_6="13000.00000" pt_clust_7="13000.00000" pt_clust_8="13000.00000" pt_clust_9="13000.00000"></scales>
<clustering>
<clus scale="   80.665">  5  6 -1 -1</clus>
<clus scale="   89.931">  7  8 -1 -1</clus>
<clus scale="  215.796">  1  5  2 -1</clus>
<clus scale="  226.538">  7  9 -1 -1</clus>
<clus scale="  553.103">  2  5  1 -1</clus>
</clustering>
</event>
<event>
 9    2  0.4178938E-005  0.2141753E+03  0.7546771E-02  0.1180409E+00
         21   -1    0    0  501  502  0.00000000000E+00  0.00000000000E+00  0.10485684444E+03  0.10485684444E+03  0.00000000000E+00 0. -1.
          2   -1    0    0  502    0 -0.00000000000E+00 -0.00000000000E+00 -0.41219507672E+03  0.41219507672E+03  0.00000000000E+00 0. -1.
         24    2    1    2    0    0  0.95300716041E+01  0.65064262266E+01 -0.29144035291E+03  0.30228736686E+03  0.79416730020E+02 0.  0.
         23    2    1    2    0    0 -0.53574499069E+02  0.15792812020E+02 -0.79885656495E+02  0.13394621951E+03  0.91870733886E+02 0.  0.
        -13    1    3    3    0    0 -0.31946149657E+02 -0.10012384062E+02 -0.16021772120E+03  0.16367810635E+03  0.00000000000E+00 0.  1.
         14    1    3    3    0    0  0.41476221261E+02  0.16518810289E+02 -0.13122263171E+03  0.13860926050E+03  0.00000000000E+00 0. -1.
        -11    1    4    4    0    0 -0.25898907497E+02 -0.27607433022E+02 -0.72711869556E+02  0.81975238590E+02  0.00000000000E+00 0.  1.
         11    1    4    4    0    0 -0.27675591571E+02  0.43400245041E+02 -0.71737869389E+01  0.51970980918E+02  0.00000000000E+00 0. -1.
          1    1    1    2  501    0  0.44044427465E+02 -0.22299238246E+02  0.63987777130E+02  0.80818334796E+02  0.00000000000E+00 0. -1.
<scales pt_clust_5="13000.00000" pt_clust_6="13000.00000" pt_clust_7="13000.00000" pt_clust_8="13000.00000" pt_clust_9="13000.00000"></scales>
<clustering>
<clus scale="   79.417">  5  6 -1 -1</clus>
<clus scale="   80.251">  2  5  1 -1</clus>
<clus scale="   91.871">  7  8 -1 -1</clus>
<clus scale="   49.779">  7  9 -1 -1</clus>
<clus scale="  214.175">  1  5  2 -1</clus>
</clustering>
</event>
<event>
 9    2  0.4178938E-005  0.6791007E+03  0.7546771E-02  0.9890420E-01
         21   -1    0    0  501  502  0.00000000000E+00  0.00000000000E+00  0.17061573516E+04  0.17061573516E+04  0.00000000000E+00 0. -1.
         -1   -1    0    0    0  501 -0.00000000000E+00 -0.00000000000E+00 -0.18254664732E+03  0.18254664732E+03  0.00000000000E+00 0.  1.
         24    2    1    2    0    0  0.34291296508E+03  0.25420989202E+03  0.66035125015E+03  0.79034400833E+03  0.79799167292E+02 0.  0.
         23    2    1    2    0    0 -0.14783515860E+02  0.13971010195E+03  0.18930546847E+03  0.25156847440E+03  0.87821819574E+02 0.  0.
        -11    1    3    3    0    0  0.11157424065E+03  0.38903445339E+02  0.18591148223E+03  0.22028474404E+03  0.00000000000E+00 0.  1.
         12    1    3    3    0    0  0.23133872443E+03  0.21530644668E+03  0.47443976793E+03  0.57005926428E+03  0.00000000000E+00 0. -1.
        -11    1    4    4    0    0 -0.11999918616E+02  0.60616489041E+02  0.15198774920E+03  0.16406898762E+03  0.00000000000E+00 0.  1.
         11    1    4    4    0    0 -0.27835972440E+01  0.79093612907E+02  0.37317719269E+02  0.87499486786E+02  0.00000000000E+00 0. -1.
         -2    1    1    2    0  502 -0.32812944922E+03 -0.39391999397E+03  0.67395398568E+03  0.84679151620E+03  0.00000000000E+00 0.  1.
<scales pt_clust_5="13000.00000" pt_clust_6="13000.00000" pt_clust_7="13000.00000" pt_clust_8="13000.00000" pt_clust_9="13000.00000"></scales>
<clustering>
<clus scale="   79.799">  5  6 -1 -1</clus>
<clus scale="   87.822">  7  8 -1 -1</clus>
<clus scale="  434.258">  2  5  1 -1</clus>
<clus scale="  220.554">  7  9 -1 -1</clus>
<clus scale="  679.101">  1  5  2 -1</clus>
</clustering>
</event>
<event>
 9    2  0.4178938E-005  0.2033526E+03  0.7546771E-02  0.1180500E+00
         21   -1    0    0  501  502  0.00000000000E+00  0.00000000000E+00  0.10354358401E+03  0.10354358401E+03  0.00000000000E+00 0.  1.
         -3   -1    0    0    0  501 -0.00000000000E+00 -0.00000000000E+00 -0.29222361456E+03  0.29222361456E+03  0.00000000000E+00 0.  1.
         24    2    1    2    0    0 -0.45297614165E+02 -0.17936089384E+02 -0.16678674940E+03  0.19123943356E+03  0.79881938037E+02 0.  0.
         23    2    1    2    0    0 -0.45389098046E+02  0.23227034236E+02  0.17198369966E+02  0.10563271428E+03  0.90900060814E+02 0.  0.
        -13    1    3    3    0    0 -0.26845277068E+02  0.69164474206E+00 -0.16246056866E+03  0.16466506503E+03  0.00000000000E+00 0.  1.
         14    1    3    3    0    0 -0.18452337097E+02 -0.18627734126E+02 -0.43261807357E+01  0.26574368530E+02  0.00000000000E+00 0. -1.
        -13    1    4    4    0    0 -0.13630647305E+02  0.36829865773E+02  0.46121047398E+02  0.60575445288E+02  0.00000000000E+00 0.  1.
         13    1    4    4    0    0 -0.31758450741E+02 -0.13602831537E+02 -0.28922677431E+02  0.45057268993E+02  0.00000000000E+00 0. -1.
         -4    1    1    2    0  502  0.90686712211E+02 -0.52909448522E+01 -0.39091651121E+02  0.98895050717E+02  0.00000000000E+00 0.  1.
<scales pt_clust_5="13000.00000" pt_clust_6="13000.00000" pt_clust_7="13000.00000" pt_clust_8="13000.00000" pt_clust_9="13000.00000"></scales>
<clustering>
<clus scale="   79.882">  5  6 -1 -1</clus>
<clus scale="   90.900">  7  8 -1 -1</clus>
<clus scale="   90.841">  7  9 -1 -1</clus>
<clus scale="   93.567">  2  5  1 -1</clus>
<clus scale="  203.353">  1  5  2 -1</clus>
</clustering>
</event>
<event>
 9    2  0.4178938E-005  0.5011765E+03  0.7546771E-02  0.1042286E+00
         21   -1    0    0  501  502  0.00000000000E+00  0.00000000000E+00  0.12277690042E+03  0.12277690042E+03  0.00000000000E+00 0. -1.
         -1   -1    0    0    0  501 -0.00000000000E+00 -0.00000000000E+00 -0.10380259975E+04  0.10380259975E+04  0.00000000000E+00 0.  1.
         24    2    1    2    0    0 -0.18086106559E+01  0.19668639038E+03 -0.29192824543E+03  0.36098621210E+03  0.80000860080E+02 0.  0.
         23    2    1    2    0    0  0.13400351596E+03 -0.12024221305E+03 -0.52207076218E+02  0.20863976668E+03  0.91596077117E+02 0.  0.
        -11    1    3    3    0    0 -0.33132177220E+02  0.11185399073E+03 -0.20314024391E+03  0.23425416774E+03  0.00000000000E+00 0.  1.
         12    1    3    3    0    0  0.31323566564E+02  0.84832399651E+02 -0.88788001518E+02  0.12673204436E+03  0.00000000000E+00 0. -1.
        -13    1    4    4    0    0  0.71150143042E+02 -0.11053309101E+03 -0.60123460034E+02  0.14455012110E+03  0.00000000000E+00 0.  1.
         13    1    4    4    0    0  0.62853372919E+02 -0.97091220431E+01  0.79163838164E+01  0.64089645582E+02  0.00000000000E+00 0. -1.
         -2    1    1    2    0  502 -0.13219490531E+03 -0.76444177330E+02 -0.57111377540E+03  0.59117691911E+03  0.00000000000E+00 0.  1.
<scales pt_clust_5="13000.00000" pt_clust_6="13000.00000" pt_clust_7="13000.00000" pt_clust_8="13000.00000" pt_clust_9="13000.00000"></scales>
<clustering>
<clus scale="   80.001">  5  6 -1 -1</clus>
<clus scale="   91.596">  7  8 -1 -1</clus>
<clus scale="  152.706">  7  9 -1 -1</clus>
<clus scale="  212.342">  2  5  1 -1</clus>
<clus scale="  501.176">  1  5  2 -1</clus>
</clustering>
</event>
<event>
 9    2  0.4178938E-005  0.2500719E+03  0.7546771E-02  0.1128919E+00
          4   -1    0    0  502    0 -0.00000000000E+00  0.00000000000E+00  0.82418240249E+03  0.82418240249E+03  0.00000000000E+00 0. -1.
         21   -1    0    0  501  502  0.00000000000E+00 -0.00000000000E+00 -0.58710693344E+02  0.58710693344E+02  0.00000000000E+00 0.  1.
         24    2    1    2    0    0 -0.58476106735E+02  0.14155836484E+03  0.18409933136E+03  0.25001887279E+03  0.71823723276E+02 0.  0.
         23    2    1    2    0    0  0.25323003498E+02  0.16001937607E+02  0.19901958678E+03  0.21800311782E+03  0.83780946194E+02 0.  0.
        -13    1    3    3    0    0 -0.41146233823E+02  0.14542866228E+03  0.16886212287E+03  0.22662066302E+03  0.00000000000E+00 0.  1.
         14    1    3    3    0    0 -0.17329872913E+02 -0.38702974344E+01  0.15237208494E+02  0.23398209763E+02  0.00000000000E+00 0. -1.
        -11    1    4    4    0    0 -0.10602326270E+02  0.20212358795E+02  0.89402667923E+01  0.24512795449E+02  0.00000000000E+00 0.  1.
         11    1    4    4    0    0  0.35925329769E+02 -0.42104211884E+01  0.19007931999E+03  0.19349032237E+03  0.00000000000E+00 0. -1.
          3    1    1    2  501    0  0.33153103237E+02 -0.15756030245E+03  0.38235279101E+03  0.41487110523E+03  0.00000000000E+00 0. -1.
<scales pt_clust_5="13000.00000" pt_clust_6="13000.00000" pt_clust_7="13000.00000" pt_clust_8="13000.00000" pt_clust_9="13000.00000"></scales>
<clustering>
<clus scale="   71.824">  5  6 -1 -1</clus>
<clus scale="   83.781">  7  8 -1 -1</clus>
<clus scale="  161.011">  7  9 -1 -1</clus>
<clus scale="  169.165">  1  5  2 -1</clus>
<clus scale="  250.072">  2  5  1 -1</clus>
</clustering>
</event>
<event>
 9    2  0.4178938E-005  0.3033612E+03  0.7546771E-02  0.1121149E+00
          2   -1    0    0  502    0 -0.00000000000E+00  0.00000000000E+00  0.97746180475E+03  0.97746180475E+03  0.00000000000E+00 0. -1.
         21   -1    0    0  501  502  0.00000000000E+00 -0.00000000000E+00 -0.45330465473E+02  0.45330465473E+02  0.00000000000E+00 0.  1.
         24    2    1    2    0    0  0.53073888635E+02 -0.57842445738E+02  0.20658801228E+03  0.23638198175E+03  0.83876386968E+02 0.  0.
         23    2    1    2    0    0  0.58821766087E+02 -0.51208359259E+02  0.16376831563E+03  0.20331177278E+03  0.91833106903E+02 0.  0.
        -13    1    3    3    0    0  0.57141312096E+02 -0.71441545763E+02  0.13292078527E+03  0.16135971977E+03  0.00000000000E+00 0.  1.
         14    1    3    3    0    0 -0.40674234611E+01  0.13599100026E+02  0.73667227018E+02  0.75022261974E+02  0.00000000000E+00 0. -1.
        -11    1    4    4    0    0  0.67315705230E+02 -0.31955269055E+01  0.12077873728E+03  0.13830805812E+03  0.00000000000E+00 0. -1.
         11    1    4    4    0    0 -0.84939391429E+01 -0.48012832354E+02  0.42989578358E+02  0.65003714664E+02  0.00000000000E+00 0.  1.
          1    1    1    2  501    0 -0.11189565472E+03  0.10905080500E+03  0.56177501136E+03  0.58309851570E+03  0.00000000000E+00 0. -1.
<scales pt_clust_5="13000.00000" pt_clust_6="13000.00000" pt_clust_7="13000.00000" pt_clust_8="13000.00000" pt_clust_9="13000.00000"></scales>
<clustering>
<clus scale="   83.876">  5  6 -1 -1</clus>
<clus scale="   91.833">  7  8 -1 -1</clus>
<clus scale="  114.882">  1  5  2 -1</clus>
<clus scale="   96.952">  7  9 -1 -1</clus>
<clus scale="  303.361">  2  5  1 -1</clus>
</clustering>
</event>
<event>
 9    2  0.4178938E-005  0.5494598E+03  0.7546771E-02  0.1067407E+00
         21   -1    0    0  501  502  0.00000000000E+00  0.00000000000E+00  0.21656943217E+03  0.21656943217E+03  0.00000000000E+00 0.  1.
          2   -1    0    0  502    0 -0.00000000000E+00 -0.00000000000E+00 -0.46947330933E+03  0.46947330933E+03  0.00000000000E+00 0. -1.
         24    2    1    2    0    0 -0.44050749106E+02  0.14612408286E+02  0.43783036193E+01  0.79330172061E+02  0.64188127281E+02 0.  0.
         23    2    1    2    0    0  0.76858450737E+02 -0.54387374843E+02  0.14888201529E+03  0.19728889227E+03  0.88836054311E+02 0.  0.
        -13    1    3    3    0    0 -0.50822721178E+02 -0.97216296852E+01  0.11662268108E+02  0.53042130133E+02  0.00000000000E+00 0.  1.
         14    1    3    3    0    0  0.67719720715E+01  0.24334037971E+02 -0.72839644883E+01  0.26288041927E+02  0.00000000000E+00 0. -1.
        -11    1    4    4    0    0  0.71287758365E+02 -0.25080003958E+02  0.14942938868E+03  0.16745176407E+03  0.00000000000E+00 0.  1.
         11    1    4    4    0    0  0.55706923721E+01 -0.29307370884E+02 -0.54737338442E+00  0.29837128201E+02  0.00000000000E+00 0. -1.
          1    1    1    2  501    0 -0.32807701631E+02  0.39774966557E+02 -0.40616419607E+03  0.40942367716E+03  0.00000000000E+00 0. -1.
<scales pt_clust_5="13000.00000" pt_clust_6="13000.00000" pt_clust_7="13000.00000" pt_clust_8="13000.00000" pt_clust_9="13000.00000"></scales>
<clustering>
<clus scale="   64.188">  5  6 -1 -1</clus>
<clus scale="   79.209">  2  5  1 -1</clus>
<clus scale="   88.836">  7  8 -1 -1</clus>
<clus scale="   91.671">  7  9 -1 -1</clus>
<clus scale="  549.460">  1  5  2 -1</clus>
</clustering>
</event>
<event>
 9    2  0.4178938E-005  0.2457370E+03  0.7546771E-02  0.1138211E+00
          2   -1    0    0  502    0 -0.00000000000E+00  0.00000000000E+00  0.90956551818E+03  0.90956551818E+03  0.00000000000E+00 0. -1.
         21   -1    0    0  501  502  0.00000000000E+00 -0.00000000000E+00 -0.46199227874E+02  0.46199227874E+02  0.00000000000E+00 0. -1.
         24    2    1    2    0    0  0.11263906405E+03  0.15978585343E+02  0.47833463666E+03  0.49899779059E+03  0.85158067428E+02 0.  0.
         23    2    1    2    0    0  0.31110852738E+02  0.93348173865E+01  0.22271429910E+03  0.23847419214E+03  0.78824217840E+02 0.  0.
        -11    1    3    3    0    0  0.30374035240E+02 -0.19774988033E+02  0.52353175009E+02  0.63674854551E+02  0.00000000000E+00 0.  1.
         12    1    3    3    0    0  0.82265028809E+02  0.35753573376E+02  0.42598146165E+03  0.43532293604E+03  0.00000000000E+00 0. -1.
        -13    1    4    4    0    0  0.52783328238E+02  0.25092633089E+02  0.15472645879E+03  0.16539648432E+03  0.00000000000E+00 0.  1.
         13    1    4    4    0    0 -0.21672475500E+02 -0.15757815702E+02  0.67987840311E+02  0.73077707819E+02  0.00000000000E+00 0. -1.
          1    1    1    2  501    0 -0.14374991679E+03 -0.25313402730E+02  0.16231735455E+03  0.21829276333E+03  0.00000000000E+00 0. -1.
<scales pt_clust_5="13000.00000" pt_clust_6="13000.00000" pt_clust_7="13000.00000" pt_clust_8="13000.00000" pt_clust_9="13000.00000"></scales>
<clustering>
<clus scale="   78.824">  7  8 -1 -1</clus>
<clus scale="   85.158">  5  6 -1 -1</clus>
<clus scale="  142.108">  1  5  2 -1</clus>
<clus scale="   94.568">  7  9 -1 -1</clus>
<clus scale="  245.737">  2  5  1 -1</clus>
</clustering>
</event>
<event>
 9    2  0.4178938E-005  0.2749431E+03  0.7546771E-02  0.1147256E+00
         21   -1    0    0  501  502  0.00000000000E+00  0.00000000000E+00  0.42352338069E+02  0.42352338069E+02  0.00000000000E+00 0. -1.
          2   -1    0    0  502    0 -0.00000000000E+00 -0.00000000000E+00 -0.77747358028E+03  0.77747358028E+03  0.00000000000E+00 0. -1.
         24    2    1    2    0    0  0.43177789698E+01  0.19930673192E+02 -0.23966182281E+03  0.25319221301E+03  0.79073588947E+02 0.  0.
         23    2    1    2    0    0  0.29270131323E+02  0.25715521664E+02 -0.38550862263E+02  0.10622393957E+03  0.90990811158E+02 0.  0.
        -11    1    3    3    0    0  0.26444531642E+02  0.41390554590E+02 -0.17129696443E+03  0.17819972302E+03  0.00000000000E+00 0.  1.
         12    1    3    3    0    0 -0.22126752672E+02 -0.21459881398E+02 -0.68364858380E+02  0.74992489989E+02  0.00000000000E+00 0. -1.
        -13    1    4    4    0    0 -0.10297187238E+02  0.21427348000E+02 -0.57443426745E+02  0.62168405027E+02  0.00000000000E+00 0.  1.
         13    1    4    4    0    0  0.39567318561E+02  0.42881736637E+01  0.18892564483E+02  0.44055534546E+02  0.00000000000E+00 0. -1.
          1    1    1    2  501    0 -0.33587910293E+02 -0.45646194856E+02 -0.45690855715E+03  0.46040976577E+03  0.00000000000E+00 0. -1.
<scales pt_clust_5="13000.00000" pt_clust_6="13000.00000" pt_clust_7="13000.00000" pt_clust_8="13000.00000" pt_clust_9="13000.00000"></scales>
<clustering>
<clus scale="   79.074">  5  6 -1 -1</clus>
<clus scale="   81.661">  2  5  1 -1</clus>
<clus scale="   90.991">  7  8 -1 -1</clus>
<clus scale="   41.230">  7  9 -1 -1</clus>
<clus scale="  274.943">  1  5  2 -1</clus>
</clustering>
</event>
<event>
 9    2  0.4178938E-005  0.2464579E+03  0.7546771E-02  0.1148587E+00
         21   -1    0    0  501  502  0.00000000000E+00  0.00000000000E+00  0.17917553270E+03  0.17917553270E+03  0.00000000000E+00 0. -1.
          2   -1    0    0  502    0 -0.00000000000E+00 -0.00000000000E+00 -0.19373419035E+03  0.19373419035E+03  0.00000000000E+00 0. -1.
         24    2    1    2    0    0  0.13423569871E+02  0.72097245446E+02 -0.55515252874E+02  0.12307185055E+03  0.81771217836E+02 0.  0.
         23    2    1    2    0    0  0.25101600939E+02  0.54704724031E+02  0.14881510749E+02  0.11477182097E+03  0.96583716664E+02 0.  0.
        -13    1    3    3    0    0  0.38761189372E+02  0.33301838875E+02 -0.44931704446E+00  0.51104247963E+02  0.00000000000E+00 0.  1.
         14    1    3    3    0    0 -0.25337619501E+02  0.38795406570E+02 -0.55065935829E+02  0.71967602584E+02  0.00000000000E+00 0. -1.
        -11    1    4    4    0    0 -0.14566303013E+02 -0.20419807962E+02 -0.87947888817E+01  0.26579955834E+02  0.00000000000E+00 0.  1.
         11    1    4    4    0    0  0.39667903952E+02  0.75124531993E+02  0.23676299630E+02  0.88191865131E+02  0.00000000000E+00 0. -1.
          1    1    1    2  501    0 -0.38525170810E+02 -0.12680196948E+03  0.26075084475E+02  0.13506605154E+03  0.00000000000E+00 0. -1.
<scales pt_clust_5="13000.00000" pt_clust_6="13000.00000" pt_clust_7="13000.00000" pt_clust_8="13000.00000" pt_clust_9="13000.00000"></scales>
<clustering>
<clus scale="   81.771">  5  6 -1 -1</clus>
<clus scale="   96.584">  7  8 -1 -1</clus>
<clus scale="  109.840">  2  5  1 -1</clus>
<clus scale="   94.589">  7  9 -1 -1</clus>
<clus scale="  246.458">  1  5  2 -1</clus>
</clustering>
</event>
<event>
 9    2  0.4178938E-005  0.2963131E+03  0.7546771E-02  0.1124753E+00
          2   -1    0    0  502    0 -0.00000000000E+00  0.00000000000E+00  0.13445437808E+03  0.13445437808E+03  0.00000000000E+00 0. -1.
         21   -1    0    0  501  502  0.00000000000E+00 -0.00000000000E+00 -0.35779951956E+03  0.35779951956E+03  0.00000000000E+00 0. -1.
         24    2    1    2    0    0 -0.51268517441E+02 -0.62051243933E+02  0.12696690622E+02  0.11341723740E+03  0.78888820712E+02 0.  0.
         23    2    1    2    0    0 -0.37390946361E+02 -0.30823911517E+02  0.74255340314E+01  0.10358649513E+03  0.91251449447E+02 0.  0.
        -11    1    3    3    0    0 -0.10223036281E+02  0.18809980533E+02  0.71286651936E+01  0.22564212947E+02  0.00000000000E+00 0.  1.
         12    1    3    3    0    0 -0.41045481160E+02 -0.80861224466E+02  0.55680254279E+01  0.90853024457E+02  0.00000000000E+00 0. -1.
        -13    1    4    4    0    0  0.15353085950E+00 -0.55113152145E+02 -0.92067713959E+01  0.55877077148E+02  0.00000000000E+00 0. -1.
         13    1    4    4    0    0 -0.37544477221E+02  0.24289240628E+02  0.16632305427E+02  0.47709417979E+02  0.00000000000E+00 0.  1.
          1    1    1    2  501    0  0.88659463802E+02  0.92875155450E+02 -0.24346736614E+03  0.27525016511E+03  0.00000000000E+00 0. -1.
<scales pt_clust_5="13000.00000" pt_clust_6="13000.00000" pt_clust_7="13000.00000" pt_clust_8="13000.00000" pt_clust_9="13000.00000"></scales>
<clustering>
<clus scale="   78.889">  5  6 -1 -1</clus>
<clus scale="   91.251">  7  8 -1 -1</clus>
<clus scale="  112.704">  1  5  2 -1</clus>
<clus scale="  110.537">  7  9 -1 -1</clus>
<clus scale="  296.313">  2  5  1 -1</clus>
</clustering>
</event>
<event>
 9    2  0.4178938E-005  0.2133699E+03  0.7546771E-02  0.1178474E+00
         21   -1    0    0  501  502  0.00000000000E+00  0.00000000000E+00  0.27780512942E+02  0.27780512942E+02  0.00000000000E+00 0.  1.
          2   -1    0    0  502    0 -0.00000000000E+00 -0.00000000000E+00 -0.85182528927E+03  0.85182528927E+03  0.00000000000E+00 0. -1.
         24    2    1    2    0    0  0.21172052493E+02  0.11969494677E+02 -0.14652173243E+03  0.16927898215E+03  0.81211028279E+02 0.  0.
         23    2    1    2    0    0 -0.26503890792E+02 -0.76535103524E+02 -0.58413964682E+03  0.59667117701E+03  0.90759507488E+02 0.  0.
        -11    1    3    3    0    0  0.26392151818E+02  0.42892997960E+02 -0.11102217225E+03  0.12191094160E+03  0.00000000000E+00 0.  1.
         12    1    3    3    0    0 -0.52200993251E+01 -0.30923503284E+02 -0.35499560181E+02  0.47368040548E+02  0.00000000000E+00 0. -1.
        -13    1    4    4    0    0 -0.63559433428E+00 -0.90643173294E+02 -0.47792909863E+03  0.48644918765E+03  0.00000000000E+00 0.  1.
         13    1    4    4    0    0 -0.25868296458E+02  0.14108069770E+02 -0.10621054818E+03  0.11022198936E+03  0.00000000000E+00 0. -1.
          1    1    1    2  501    0  0.53318382993E+01  0.64565608848E+02 -0.93383397082E+02  0.11365564305E+03  0.00000000000E+00 0. -1.
<scales pt_clust_5="13000.00000" pt_clust_6="13000.00000" pt_clust_7="13000.00000" pt_clust_8="13000.00000" pt_clust_9="13000.00000"></scales>
<clustering>
<clus scale="   81.211">  5  6 -1 -1</clus>
<clus scale="   84.775">  2  5  1 -1</clus>
<clus scale="   90.760">  7  8 -1 -1</clus>
<clus scale="   66.892">  7  9 -1 -1</clus>
<clus scale="  213.370">  1  5  2 -1</clus>
</clustering>
</event>
<event>
 9    2  0.4178938E-005  0.3435003E+03  0.7546771E-02  0.1119410E+00
         21   -1    0    0  501  502  0.00000000000E+00  0.00000000000E+00  0.27647061337E+02  0.27647061337E+02  0.00000000000E+00 0. -1.
          2   -1    0    0  502    0 -0.00000000000E+00 -0.00000000000E+00 -0.16424842291E+04  0.16424842291E+04  0.00000000000E+00 0. -1.
         24    2    1    2    0    0 -0.12133365613E+02 -0.20165238585E+02 -0.32286883441E+03  0.33327878701E+03  0.79225060594E+02 0.  0.
         23    2    1    2    0    0 -0.50070997105E+02 -0.13829897680E+03 -0.60071929490E+03  0.62494975483E+03  0.89804304250E+02 0.  0.
        -11    1    3    3    0    0  0.16734967836E+02  0.17605541228E+02 -0.42873084886E+02  0.49275913366E+02  0.00000000000E+00 0.  1.
         12    1    3    3    0    0 -0.28868333449E+02 -0.37770779814E+02 -0.27999574952E+03  0.28400287364E+03  0.00000000000E+00 0. -1.
        -11    1    4    4    0    0 -0.19548261032E+02 -0.95347678210E+02 -0.51660743872E+03  0.52569626211E+03  0.00000000000E+00 0.  1.
         11    1    4    4    0    0 -0.30522736074E+02 -0.42951298594E+02 -0.84111856177E+02  0.99253492724E+02  0.00000000000E+00 0. -1.
          1    1    1    2  501    0  0.62204362719E+02  0.15846421539E+03 -0.69124903842E+03  0.71190274856E+03  0.00000000000E+00 0. -1.
<scales pt_clust_5="13000.00000" pt_clust_6="13000.00000" pt_clust_7="13000.00000" pt_clust_8="13000.00000" pt_clust_9="13000.00000"></scales>
<clustering>
<clus scale="   79.225">  5  6 -1 -1</clus>
<clus scale="   82.647">  2  5  1 -1</clus>
<clus scale="   89.804">  7  8 -1 -1</clus>
<clus scale="  157.864">  7  9 -1 -1</clus>
<clus scale="  343.500">  1  5  2 -1</clus>
</clustering>
</event>
<event>
 9    2  0.4178938E-005  0.2730367E+03  0.7546771E-02  0.1133580E+00
         21   -1    0    0  501  502  0.00000000000E+00  0.00000000000E+00  0.53317415959E+02  0.53317415959E+02  0.00000000000E+00 0.  1.
          2   -1    0    0  502    0 -0.00000000000E+00 -0.00000000000E+00 -0.76725408697E+03  0.76725408697E+03  0.00000000000E+00 0. -1.
         24    2    1    2    0    0 -0.66905064766E+02 -0.61213877553E+02 -0.11988973781E+03  0.16678193498E+03  0.72244294640E+02 0.  0.
         23    2    1    2    0    0  0.20181303697E+01 -0.82383327579E+02 -0.32973260431E+03  0.34606804443E+03  0.65179870495E+02 0.  0.
        -11    1    3    3    0    0 -0.56032477410E+02 -0.51644244960E+01 -0.42040243803E+02  0.70240244191E+02  0.00000000000E+00 0.  1.
         12    1    3    3    0    0 -0.10872587356E+02 -0.56049453057E+02 -0.77849494004E+02  0.96541690789E+02  0.00000000000E+00 0. -1.
        -11    1    4    4    0    0  0.30722410679E+02 -0.21503873537E+02 -0.12991167457E+03  0.13521585071E+03  0.00000000000E+00 0.  1.
         11    1    4    4    0    0 -0.28704280309E+02 -0.60879454043E+02 -0.19982092975E+03  0.21085219372E+03  0.00000000000E+00 0. -1.
          1    1    1    2  501    0  0.64886934396E+02  0.14359720513E+03 -0.26431432889E+03  0.30772152351E+03  0.00000000000E+00 0. -1.
<scales pt_clust_5="13000.00000" pt_clust_6="13000.00000" pt_clust_7="13000.00000" pt_clust_8="13000.00000" pt_clust_9="13000.00000"></scales>
<clustering>
<clus scale="   65.180">  7  8 -1 -1</clus>
<clus scale="   72.244">  5  6 -1 -1</clus>
<clus scale="  115.943">  2  5  1 -1</clus>
<clus scale="  120.496">  7  9 -1 -1</clus>
<clus scale="  273.037">  1  5  2 -1</clus>
</clustering>
</event>
<event>
 9    2  0.4178938E-005  0.2449437E+03  0.7546771E-02  0.1136789E+00
         -1   -1    0    0    0  501 -0.00000000000E+00  0.00000000000E+00  0.15958363637E+03  0.15958363637E+03  0.00000000000E+00 0.  1.
         21   -1    0    0  501  502  0.00000000000E+00 -0.00000000000E+00 -0.32370768229E+03  0.32370768229E+03  0.00000000000E+00 0.  1.
         24    2    1    2    0    0 -0.12474203402E+03 -0.11638452601E+01 -0.18524952160E+03  0.23743828829E+03  0.80607852656E+02 0.  0.
         23    2    1    2    0    0 -0.14862293341E+02  0.35873015800E+02 -0.29829306963E+01  0.99992446271E+02  0.92096853419E+02 0.  0.
        -11    1    3    3    0    0 -0.34228037685E+02  0.35922124051E+02 -0.49210130327E+02  0.69882719515E+02  0.00000000000E+00 0.  1.
         12    1    3    3    0    0 -0.90513996331E+02 -0.37085969311E+02 -0.13603939127E+03  0.16755556878E+03  0.00000000000E+00 0. -1.
        -13    1    4    4    0    0  0.66139523263E+01  0.60413491286E+02 -0.18980066259E+02  0.63669279954E+02  0.00000000000E+00 0.  1.
         13    1    4    4    0    0 -0.21476245668E+02 -0.24540475486E+02  0.15997135562E+02  0.36323166316E+02  0.00000000000E+00 0. -1.
         -2    1    1    2    0  502  0.13960432736E+03 -0.34709170540E+02  0.24108406374E+02  0.14586058410E+03  0.00000000000E+00 0.  1.
<scales pt_clust_5="13000.00000" pt_clust_6="13000.00000" pt_clust_7="13000.00000" pt_clust_8="13000.00000" pt_clust_9="13000.00000"></scales>
<clustering>
<clus scale="   80.608">  5  6 -1 -1</clus>
<clus scale="   92.097">  7  8 -1 -1</clus>
<clus scale="  143.854">  7  9 -1 -1</clus>
<clus scale="  148.525">  1  5  2 -1</clus>
<clus scale="  244.944">  2  5  1 -1</clus>
</clustering>
</event>
<event>
 9    2  0.4178938E-005  0.4661497E+03  0.7546771E-02  0.1066400E+00
         21   -1    0    0  501  502  0.00000000000E+00  0.00000000000E+00  0.17689004710E+03  0.17689004710E+03  0.00000000000E+00 0. -1.
          2   -1    0    0  502    0 -0.00000000000E+00 -0.00000000000E+00 -0.52910906742E+03  0.52910906742E+03  0.00000000000E+00 0. -1.
         24    2    1    2    0    0 -0.17513509123E+02 -0.10364244902E+03 -0.23080166996E+02  0.13536094931E+03  0.82106103616E+02 0.  0.
         23    2    1    2    0    0 -0.15804247088E+03 -0.85421164259E+02 -0.97235733039E+02  0.22373182456E+03  0.91252088381E+02 0.  0.
        -11    1    3    3    0    0  0.21313842785E+02 -0.86699819642E+00  0.51137229638E+01  0.21935855185E+02  0.00000000000E+00 0.  1.
         12    1    3    3    0    0 -0.38827351908E+02 -0.10277545082E+03 -0.28193889960E+02  0.11342509413E+03  0.00000000000E+00 0. -1.
        -11    1    4    4    0    0 -0.44363956921E+02 -0.69206145051E+02 -0.64025957998E+02  0.10419680650E+03  0.00000000000E+00 0.  1.
         11    1    4    4    0    0 -0.11367851396E+03 -0.16215019208E+02 -0.33209775041E+02  0.11953501806E+03  0.00000000000E+00 0. -1.
          1    1    1    2  501    0  0.17555598001E+03  0.18906361327E+03 -0.23190312029E+03  0.34690634065E+03  0.00000000000E+00 0. -1.
<scales pt_clust_5="13000.00000" pt_clust_6="13000.00000" pt_clust_7="13000.00000" pt_clust_8="13000.00000" pt_clust_9="13000.00000"></scales>
<clustering>
<clus scale="   82.106">  5  6 -1 -1</clus>
<clus scale="   91.252">  7  8 -1 -1</clus>
<clus scale="  133.379">  2  5  1 -1</clus>
<clus scale="  204.869">  7  9 -1 -1</clus>
<clus scale="  466.150">  1  5  2 -1</clus>
</clustering>
</event>
<event>
 9    2  0.4178938E-005  0.1420488E+03  0.7546771E-02  0.1232201E+00
          2   -1    0    0  502    0 -0.00000000000E+00  0.00000000000E+00  0.36804731524E+03  0.36804731524E+03  0.00000000000E+00 0. -1.
         21   -1    0    0  501  502  0.00000000000E+00 -0.00000000000E+00 -0.37265937131E+02  0.37265937131E+02  0.00000000000E+00 0.  1.
         24    2    1    2    0    0  0.29160990796E+02  0.26705230033E+02  0.10447169958E+03  0.13811683255E+03  0.81230479029E+02 0.  0.
         23    2    1    2    0    0 -0.11681279743E+02 -0.56312166458E+02  0.18489745967E+03  0.21337186359E+03  0.89626832998E+02 0.  0.
        -13    1    3    3    0    0  0.14931243761E+02 -0.28129702633E+02  0.24834291055E+02  0.40385198064E+02  0.00000000000E+00 0.  1.
         14    1    3    3    0    0  0.14229747035E+02  0.54834932666E+02  0.79637408529E+02  0.97731634482E+02  0.00000000000E+00 0. -1.
        -11    1    4    4    0    0  0.19421648961E+02  0.15867162157E+02  0.26143991782E+02  0.36228104968E+02  0.00000000000E+00 0.  1.
         11    1    4    4    0    0 -0.31102928704E+02 -0.72179328616E+02  0.15875346789E+03  0.17714375863E+03  0.00000000000E+00 0. -1.
          1    1    1    2  501    0 -0.17479711053E+02  0.29606936425E+02  0.41412218855E+02  0.53824556232E+02  0.00000000000E+00 0. -1.
<scales pt_clust_5="13000.00000" pt_clust_6="13000.00000" pt_clust_7="13000.00000" pt_clust_8="13000.00000" pt_clust_9="13000.00000"></scales>
<clustering>
<clus scale="   81.230">  5  6 -1 -1</clus>
<clus scale="   89.627">  7  8 -1 -1</clus>
<clus scale="   34.382">  7  9 -1 -1</clus>
<clus scale="   90.343">  1  5  2 -1</clus>
<clus scale="  142.049">  2  5  1 -1</clus>
</clustering>
</event>
<event>
 9    2  0.4178938E-005  0.3715870E+03  0.7546771E-02  0.1092724E+00
         21   -1    0    0  501  502  0.00000000000E+00  0.00000000000E+00  0.62909198542E+02  0.62909198542E+02  0.00000000000E+00 0.  1.
          2   -1    0    0  502    0 -0.00000000000E+00 -0.00000000000E+00 -0.10494277372E+04  0.10494277372E+04  0.00000000000E+00 0. -1.
         24    2    1    2    0    0  0.54576434778E+02 -0.86882128614E+02 -0.37551395322E+03  0.39721210046E+03  0.78991342460E+02 0.  0.
         23    2    1    2    0    0 -0.38312582193E+02 -0.22706410678E+02 -0.43427251937E+01  0.98429794341E+02  0.87670577229E+02 0.  0.
        -11    1    3    3    0    0 -0.15246200937E+02 -0.31246075879E+02 -0.60363540039E+02  0.69660037805E+02  0.00000000000E+00 0.  1.
         12    1    3    3    0    0  0.69822635715E+02 -0.55636052735E+02 -0.31515041318E+03  0.32755206266E+03  0.00000000000E+00 0. -1.
        -13    1    4    4    0    0  0.18432172539E+02 -0.15109453344E+02  0.24622817724E+02  0.34268406989E+02  0.00000000000E+00 0.  1.
         13    1    4    4    0    0 -0.56744754732E+02 -0.75969573338E+01 -0.28965542918E+02  0.64161387352E+02  0.00000000000E+00 0. -1.
          1    1    1    2  501    0 -0.16263852585E+02  0.10958853929E+03 -0.60666186021E+03  0.61669504091E+03  0.00000000000E+00 0. -1.
<scales pt_clust_5="13000.00000" pt_clust_6="13000.00000" pt_clust_7="13000.00000" pt_clust_8="13000.00000" pt_clust_9="13000.00000"></scales>
<clustering>
<clus scale="   78.991">  5  6 -1 -1</clus>
<clus scale="   87.671">  7  8 -1 -1</clus>
<clus scale="  110.789">  7  9 -1 -1</clus>
<clus scale="  129.486">  2  5  1 -1</clus>
<clus scale="  371.587">  1  5  2 -1</clus>
</clustering>
</event>
<event>
 9    2  0.4178938E-005  0.3881548E+03  0.7546771E-02  0.1105558E+00
         21   -1    0    0  501  502  0.00000000000E+00  0.00000000000E+00  0.73850191700E+02  0.73850191700E+02  0.00000000000E+00 0. -1.
          2   -1    0    0  502    0 -0.00000000000E+00 -0.00000000000E+00 -0.78196077045E+03  0.78196077045E+03  0.00000000000E+00 0. -1.
         24    2    1    2    0    0 -0.70422391220E+01  0.12610575555E+02 -0.20358989878E+03  0.21925357808E+03  0.80091602987E+02 0.  0.
         23    2    1    2    0    0  0.60564060368E+02  0.16478972686E+03 -0.31795383423E+03  0.37360750182E+03  0.87545789286E+02 0.  0.
        -13    1    3    3    0    0 -0.42770527348E+02 -0.18992123576E+01 -0.10870929834E+03  0.11683593866E+03  0.00000000000E+00 0.  1.
         14    1    3    3    0    0  0.35728288226E+02  0.14509787912E+02 -0.94880600439E+02  0.10241763942E+03  0.00000000000E+00 0. -1.
        -13    1    4    4    0    0  0.42637495326E+02  0.15438365086E+02 -0.84245321025E+02  0.95674308144E+02  0.00000000000E+00 0.  1.
         13    1    4    4    0    0  0.17926565042E+02  0.14935136178E+03 -0.23370851321E+03  0.27793319367E+03  0.00000000000E+00 0. -1.
          1    1    1    2  501    0 -0.53521821246E+02 -0.17740030242E+03 -0.18656684574E+03  0.26294988225E+03  0.00000000000E+00 0. -1.
<scales pt_clust_5="13000.00000" pt_clust_6="13000.00000" pt_clust_7="13000.00000" pt_clust_8="13000.00000" pt_clust_9="13000.00000"></scales>
<clustering>
<clus scale="   80.092">  5  6 -1 -1</clus>
<clus scale="   81.384">  2  5  1 -1</clus>
<clus scale="   87.546">  7  8 -1 -1</clus>
<clus scale="  181.390">  7  9 -1 -1</clus>
<clus scale="  388.155">  1  5  2 -1</clus>
</clustering>
</event>
<event>
 9    2  0.4178938E-005  0.2268033E+03  0.7546771E-02  0.1167084E+00
          2   -1    0    0  502    0 -0.00000000000E+00  0.00000000000E+00  0.71115453221E+03  0.71115453221E+03  0.00000000000E+00 0. -1.
         21   -1    0    0  501  502  0.00000000000E+00 -0.00000000000E+00 -0.61377560969E+02  0.61377560969E+02  0.00000000000E+00 0. -1.
         24    2    1    2    0    0  0.40172971140E+02 -0.19324120742E+02  0.48151749488E+03  0.49012989407E+03  0.79880698158E+02 0.  0.
         23    2    1    2    0    0  0.52462277099E+02  0.10432219113E+02  0.15518989373E+03  0.18842789878E+03  0.92520528583E+02 0.  0.
        -11    1    3    3    0    0  0.26388744399E+02  0.17040478452E+02  0.69359097884E+02  0.76140844467E+02  0.00000000000E+00 0.  1.
         12    1    3    3    0    0  0.13784226741E+02 -0.36364599195E+02  0.41215839699E+03  0.41398904961E+03  0.00000000000E+00 0. -1.
        -13    1    4    4    0    0 -0.39463718618E+00 -0.36232187579E+02  0.57092547415E+02  0.67620160645E+02  0.00000000000E+00 0.  1.
         13    1    4    4    0    0  0.52856914286E+02  0.46664406692E+02  0.98097346310E+02  0.12080773813E+03  0.00000000000E+00 0. -1.
          1    1    1    2  501    0 -0.92635248239E+02  0.88919016296E+01  0.13069582633E+02  0.93974300323E+02  0.00000000000E+00 0. -1.
<scales pt_clust_5="13000.00000" pt_clust_6="13000.00000" pt_clust_7="13000.00000" pt_clust_8="13000.00000" pt_clust_9="13000.00000"></scales>
<clustering>
<clus scale="   79.881">  5  6 -1 -1</clus>
<clus scale="   91.478">  1  5  2 -1</clus>
<clus scale="   92.521">  7  8 -1 -1</clus>
<clus scale="   83.204">  7  9 -1 -1</clus>
<clus scale="  226.803">  2  5  1 -1</clus>
</clustering>
</event>
<event>
 9    2  0.4178938E-005  0.3332654E+03  0.7546771E-02  0.1091343E+00
         21   -1    0    0  501  502  0.00000000000E+00  0.00000000000E+00  0.87320418184E+03  0.87320418184E+03  0.00000000000E+00 0.  1.
         -3   -1    0    0    0  501 -0.00000000000E+00 -0.00000000000E+00 -0.78935692550E+02  0.78935692550E+02  0.00000000000E+00 0.  1.
         24    2    1    2    0    0 -0.50640341814E+02 -0.16060799372E+03  0.22004608083E+03  0.28821429732E+03  0.79295848706E+02 0.  0.
         23    2    1    2    0    0  0.31146824116E+02 -0.41845769269E+02  0.87765207731E+02  0.13666081292E+03  0.90841912355E+02 0.  0.
        -11    1    3    3    0    0 -0.65600169003E+02 -0.12744214316E+03  0.14035340296E+03  0.20060897225E+03  0.00000000000E+00 0.  1.
         12    1    3    3    0    0  0.14959827188E+02 -0.33165850566E+02  0.79692677876E+02  0.87605325068E+02  0.00000000000E+00 0. -1.
        -11    1    4    4    0    0  0.42097428453E+02 -0.65901958991E+02  0.68418378124E+02  0.10390541924E+03  0.00000000000E+00 0.  1.
         11    1    4    4    0    0 -0.10950604337E+02  0.24056189722E+02  0.19346829607E+02  0.32755393680E+02  0.00000000000E+00 0. -1.
         -4    1    1    2    0  502  0.19493517699E+02  0.20245376299E+03  0.48645720073E+03  0.52726476416E+03  0.00000000000E+00 0.  1.
<scales pt_clust_5="13000.00000" pt_clust_6="13000.00000" pt_clust_7="13000.00000" pt_clust_8="13000.00000" pt_clust_9="13000.00000"></scales>
<clustering>
<clus scale="   79.296">  5  6 -1 -1</clus>
<clus scale="   90.842">  7  8 -1 -1</clus>
<clus scale="  186.138">  2  5  1 -1</clus>
<clus scale="  129.439">  7  9 -1 -1</clus>
<clus scale="  333.265">  1  5  2 -1</clus>
</clustering>
</event>
<event>
 9    2  0.4178938E-005  0.2362977E+03  0.7546771E-02  0.1164962E+00
         -3   -1    0    0    0  501 -0.00000000000E+00  0.00000000000E+00  0.18280197816E+03  0.18280197816E+03  0.00000000000E+00 0.  1.
         21   -1    0    0  501  502  0.00000000000E+00 -0.00000000000E+00 -0.14684311809E+03  0.14684311809E+03  0.00000000000E+00 0. -1.
         24    2    1    2    0    0  0.18142807161E+02 -0.21820557840E+02 -0.19003782810E+02  0.87039484517E+02  0.80058915230E+02 0.  0.
         23    2    1    2    0    0 -0.22402376905E+02 -0.61672114291E+02 -0.36570698263E+02  0.11863979880E+03  0.91829568859E+02 0.  0.
        -11    1    3    3    0    0  0.48246353849E+02 -0.18617382174E+02 -0.81119156897E+00  0.51720166381E+02  0.00000000000E+00 0.  1.
         12    1    3    3    0    0 -0.30103546688E+02 -0.32031756665E+01 -0.18192591241E+02  0.35319318136E+02  0.00000000000E+00 0. -1.
        -11    1    4    4    0    0 -0.49671196653E+02 -0.33402263166E+02  0.66638821450E+01  0.60227454594E+02  0.00000000000E+00 0.  1.
         11    1    4    4    0    0  0.27268819749E+02 -0.28269851125E+02 -0.43234580408E+02  0.58412344210E+02  0.00000000000E+00 0. -1.
         -4    1    1    2    0  502  0.42595697438E+01  0.83492672131E+02  0.91533341143E+02  0.12396581293E+03  0.00000000000E+00 0.  1.
<scales pt_clust_5="13000.00000" pt_clust_6="13000.00000" pt_clust_7="13000.00000" pt_clust_8="13000.00000" pt_clust_9="13000.00000"></scales>
<clustering>
<clus scale="   80.059">  5  6 -1 -1</clus>
<clus scale="   84.940">  1  5  2 -1</clus>
<clus scale="   91.830">  7  8 -1 -1</clus>
<clus scale="   69.890">  7  9 -1 -1</clus>
<clus scale="  236.298">  2  5  1 -1</clus>
</clustering>
</event>
<event>
 9    2  0.4178938E-005  0.2255289E+03  0.7546771E-02  0.1165601E+00
         21   -1    0    0  501  502  0.00000000000E+00  0.00000000000E+00  0.13167271499E+03  0.13167271499E+03  0.00000000000E+00 0.  1.
         -1   -1    0    0    0  501 -0.00000000000E+00 -0.00000000000E+00 -0.21387106761E+03  0.21387106761E+03  0.00000000000E+00 0.  1.
         24    2    1    2    0    0  0.54956255587E+01 -0.52431312568E+02  0.19371291502E+02  0.98198537696E+02  0.80550986544E+02 0.  0.
         23    2    1    2    0    0 -0.18266543718E+02  0.18840283345E+02  0.38985172750E+02  0.10226902308E+03  0.90832188633E+02 0.  0.
        -13    1    3    3    0    0  0.36145848928E+02 -0.97761680360E+01 -0.89855374560E+01  0.38507606256E+02  0.00000000000E+00 0.  1.
         14    1    3    3    0    0 -0.30650223369E+02 -0.42655144532E+02  0.28356828958E+02  0.59690931440E+02  0.00000000000E+00 0. -1.
        -13    1    4    4    0    0 -0.17593115718E+02 -0.26454436186E+02  0.46533544904E+02  0.56344704417E+02  0.00000000000E+00 0.  1.
         13    1    4    4    0    0 -0.67342800087E+00  0.45294719530E+02 -0.75483721543E+01  0.45924318664E+02  0.00000000000E+00 0. -1.
         -2    1    1    2    0  502  0.12770918160E+02  0.33591029223E+02 -0.14055481686E+03  0.14507622182E+03  0.00000000000E+00 0.  1.
<scales pt_clust_5="13000.00000" pt_clust_6="13000.00000" pt_clust_7="13000.00000" pt_clust_8="13000.00000" pt_clust_9="13000.00000"></scales>
<clustering>
<clus scale="   80.551">  5  6 -1 -1</clus>
<clus scale="   90.832">  7  8 -1 -1</clus>
<clus scale="   35.937">  7  9 -1 -1</clus>
<clus scale="   96.269">  2  5  1 -1</clus>
<clus scale="  225.529">  1  5  2 -1</clus>
</clustering>
</event>
<event>
 9    2  0.4178938E-005  0.1659705E+03  0.7546771E-02  0.1189605E+00
         -3   -1    0    0    0  501 -0.00000000000E+00  0.00000000000E+00  0.11030527231E+03  0.11030527231E+03  0.00000000000E+00 0.  1.
         21   -1    0    0  501  502  0.00000000000E+00 -0.00000000000E+00 -0.21308775116E+03  0.21308775116E+03  0.00000000000E+00 0.  1.
         24    2    1    2    0    0 -0.71514364357E+02  0.89667605927E+02 -0.41899246720E+02  0.14660789687E+03  0.81140277828E+02 0.  0.
         23    2    1    2    0    0  0.45926951869E+02 -0.84906052947E+02 -0.68395354381E+02  0.14969601356E+03  0.91720495197E+02 0.  0.
        -13    1    3    3    0    0 -0.41531021394E+02  0.57302843781E+02  0.17225505403E+02  0.72836527099E+02  0.00000000000E+00 0.  1.
         14    1    3    3    0    0 -0.29983342963E+02  0.32364762147E+02 -0.59124752122E+02  0.73771369769E+02  0.00000000000E+00 0. -1.
        -13    1    4    4    0    0  0.24092248072E+02 -0.96488438717E+02 -0.74471557253E+02  0.12424358359E+03  0.00000000000E+00 0.  1.
         13    1    4    4    0    0  0.21834703797E+02  0.11582385769E+02  0.60762028724E+01  0.25452429970E+02  0.00000000000E+00 0. -1.
         -4    1    1    2    0  502  0.25587412489E+02 -0.47615529799E+01  0.75121222486E+01  0.27089113041E+02  0.00000000000E+00 0.  1.
<scales pt_clust_5="13000.00000" pt_clust_6="13000.00000" pt_clust_7="13000.00000" pt_clust_8="13000.00000" pt_clust_9="13000.00000"></scales>
<clustering>
<clus scale="   81.140">  5  6 -1 -1</clus>
<clus scale="   91.720">  7  8 -1 -1</clus>
<clus scale="   26.027">  7  9 -1 -1</clus>
<clus scale="  140.493">  1  5  2 -1</clus>
<clus scale="  165.971">  2  5  1 -1</clus>
</clustering>
</event>
<event>
 9    2  0.4178938E-005  0.4387766E+03  0.7546771E-02  0.1059506E+00
         21   -1    0    0  501  502  0.00000000000E+00  0.00000000000E+00  0.52009383794E+02  0.52009383794E+02  0.00000000000E+00 0. -1.
          2   -1    0    0  502    0 -0.00000000000E+00 -0.00000000000E+00 -0.20562921669E+04  0.20562921669E+04  0.00000000000E+00 0. -1.
         24    2    1    2    0    0 -0.17320972096E+03  0.27060608363E+02 -0.88774702291E+03  0.90864451232E+03  0.82499631107E+02 0.  0.
         23    2    1    2    0    0  0.18559022462E+03  0.10508550862E+03 -0.98834576171E+03  0.10151345497E+04  0.90466091774E+02 0.  0.
        -13    1    3    3    0    0 -0.83753814199E+02  0.54026441668E+02 -0.49537375374E+03  0.50530061714E+03  0.00000000000E+00 0.  1.
         14    1    3    3    0    0 -0.89455906757E+02 -0.26965833305E+02 -0.39237326917E+03  0.40334389518E+03  0.00000000000E+00 0. -1.
        -11    1    4    4    0    0  0.16858002781E+03  0.71728460913E+02 -0.91053544149E+03  0.92878360671E+03  0.00000000000E+00 0.  1.
         11    1    4    4    0    0  0.17010196810E+02  0.33357047706E+02 -0.77810320217E+02  0.86350943014E+02  0.00000000000E+00 0. -1.
          1    1    1    2  501    0 -0.12380503661E+02 -0.13214611698E+03 -0.12818999849E+03  0.18452248865E+03  0.00000000000E+00 0. -1.
<scales pt_clust_5="13000.00000" pt_clust_6="13000.00000" pt_clust_7="13000.00000" pt_clust_8="13000.00000" pt_clust_9="13000.00000"></scales>
<clustering>
<clus scale="   82.500">  5  6 -1 -1</clus>
<clus scale="   90.466">  7  8 -1 -1</clus>
<clus scale="  132.725">  7  9 -1 -1</clus>
<clus scale="  193.753">  2  5  1 -1</clus>
<clus scale="  438.777">  1  5  2 -1</clus>
</clustering>
</event>
<event>
 9    2  0.4316753E-005  0.1683968E+03  0.7546771E-02  0.1206864E+00
          2   -1    0    0  502    0 -0.00000000000E+00  0.00000000000E+00  0.96562606426E+03  0.96562606426E+03  0.00000000000E+00 0. -1.
         21   -1    0    0  501  502  0.00000000000E+00 -0.00000000000E+00 -0.43372901975E+02  0.43372901975E+02  0.00000000000E+00 0. -1.
         24    2    1    2    0    0 -0.25773664630E+02  0.32350851791E+02  0.78865306471E+03  0.79404205492E+03  0.82572810855E+02 0.  0.
         23    2    1    2    0    0 -0.44572247645E+01  0.18933509799E+02  0.12323652253E+03  0.15453012831E+03  0.91181003636E+02 0.  0.
        -11    1    3    3    0    0  0.23600912812E+02  0.27020711277E+01  0.92174624188E+02  0.95186478127E+02  0.00000000000E+00 0.  1.
         12    1    3    3    0    0 -0.49374577441E+02  0.29648780664E+02  0.69647844053E+03  0.69885557679E+03  0.00000000000E+00 0. -1.
        -13    1    4    4    0    0  0.71963658371E+01 -0.29188192304E+02  0.90021621310E+02  0.94908537838E+02  0.00000000000E+00 0.  1.
         13    1    4    4    0    0 -0.11653590602E+02  0.48121702104E+02  0.33214901219E+02  0.59621590470E+02  0.00000000000E+00 0. -1.
          1    1    1    2  501    0  0.30230889394E+02 -0.51284361590E+02  0.10363575042E+02  0.60426783010E+02  0.00000000000E+00 0. -1.
<scales pt_clust_5="13000.00000" pt_clust_6="13000.00000" pt_clust_7="13000.00000" pt_clust_8="13000.00000" pt_clust_9="13000.00000"></scales>
<clustering>
<clus scale="   82.573">  5  6 -1 -1</clus>
<clus scale="   91.181">  7  8 -1 -1</clus>
<clus scale="   59.531">  7  9 -1 -1</clus>
<clus scale="   92.353">  1  5  2 -1</clus>
<clus scale="  168.397">  2  5  1 -1</clus>
</clustering>
</event>
<event>
 9    2  0.4178938E-005  0.2223417E+03  0.7546771E-02  0.1168367E+00
          2   -1    0    0  502    0 -0.00000000000E+00  0.00000000000E+00  0.97406479285E+03  0.97406479285E+03  0.00000000000E+00 0. -1.
         21   -1    0    0  501  502  0.00000000000E+00 -0.00000000000E+00 -0.17335454674E+03  0.17335454674E+03  0.00000000000E+00 0.  1.
         24    2    1    2    0    0 -0.45957417346E+02  0.17718383016E+02  0.89927968336E+03  0.90420801858E+03  0.80387602719E+02 0.  0.
         23    2    1    2    0    0  0.42773662892E+02  0.57970662815E+02 -0.11741090831E+03  0.16514744342E+03  0.91094306597E+02 0.  0.
        -13    1    3    3    0    0  0.64598442713E+01 -0.23219823946E+02  0.14374179342E+03  0.14574838931E+03  0.00000000000E+00 0.  1.
         14    1    3    3    0    0 -0.52417261618E+02  0.40938206963E+02  0.75553788994E+03  0.75845962927E+03  0.00000000000E+00 0. -1.
        -11    1    4    4    0    0  0.20553683279E+02  0.71585875439E+02 -0.42317295612E+02  0.85660638374E+02  0.00000000000E+00 0.  1.
         11    1    4    4    0    0  0.22219979613E+02 -0.13615212624E+02 -0.75093612698E+02  0.79486805049E+02  0.00000000000E+00 0. -1.
          1    1    1    2  501    0  0.31837544546E+01 -0.75689045832E+02  0.18841471060E+02  0.78063877581E+02  0.00000000000E+00 0. -1.
<scales pt_clust_5="13000.00000" pt_clust_6="13000.00000" pt_clust_7="13000.00000" pt_clust_8="13000.00000" pt_clust_9="13000.00000"></scales>
<clustering>
<clus scale="   80.388">  5  6 -1 -1</clus>
<clus scale="   91.094">  7  8 -1 -1</clus>
<clus scale="   75.756">  7  9 -1 -1</clus>
<clus scale="   94.277">  1  5  2 -1</clus>
<clus scale="  222.342">  2  5  1 -1</clus>
</clustering>
</event>
<event>
 9    2  0.4178938E-005  0.1975060E+03  0.7546771E-02  0.1174344E+00
          2   -1    0    0  502    0 -0.00000000000E+00  0.00000000000E+00  0.85739014151E+03  0.85739014151E+03  0.00000000000E+00 0. -1.
         21   -1    0    0  501  502  0.00000000000E+00 -0.00000000000E+00 -0.60633813793E+02  0.60633813793E+02  0.00000000000E+00 0. -1.
         24    2    1    2    0    0  0.60624398937E+02 -0.63007901325E+02  0.67689655231E+03  0.68699369870E+03  0.78269318033E+02 0.  0.
         23    2    1    2    0    0  0.16888724115E+02 -0.56645552281E+01  0.51560522474E+02  0.10697793504E+03  0.92024317000E+02 0.  0.
        -13    1    3    3    0    0  0.61788197812E+01 -0.40997025478E+02  0.11901681665E+03  0.12603149034E+03  0.00000000000E+00 0.  1.
         14    1    3    3    0    0  0.54445579155E+02 -0.22010875847E+02  0.55787973566E+03  0.56096220836E+03  0.00000000000E+00 0. -1.
        -13    1    4    4    0    0 -0.15234106429E+02 -0.24240469628E+02  0.62117877708E+02  0.68398165892E+02  0.00000000000E+00 0.  1.
         13    1    4    4    0    0  0.32122830544E+02  0.18575914399E+02 -0.10557355234E+02  0.38579769148E+02  0.00000000000E+00 0. -1.
          1    1    1    2  501    0 -0.77513123052E+02  0.68672456553E+02  0.68299252930E+02  0.12405232156E+03  0.00000000000E+00 0. -1.
<scales pt_clust_5="13000.00000" pt_clust_6="13000.00000" pt_clust_7="13000.00000" pt_clust_8="13000.00000" pt_clust_9="13000.00000"></scales>
<clustering>
<clus scale="   78.269">  5  6 -1 -1</clus>
<clus scale="   92.024">  7  8 -1 -1</clus>
<clus scale="  103.558">  7  9 -1 -1</clus>
<clus scale="  117.352">  1  5  2 -1</clus>
<clus scale="  197.506">  2  5  1 -1</clus>
</clustering>
</event>
<event>
 9    2  0.4178938E-005  0.1415508E+03  0.7546771E-02  0.1231126E+00
         -1   -1    0    0    0  501 -0.00000000000E+00  0.00000000000E+00  0.25732394135E+03  0.25732394135E+03  0.00000000000E+00 0.  1.
         21   -1    0    0  501  502  0.00000000000E+00 -0.00000000000E+00 -0.61768940015E+02  0.61768940015E+02  0.00000000000E+00 0.  1.
         24    2    1    2    0    0 -0.24283119910E+02 -0.43503204083E+02  0.23428479102E+02  0.96238279601E+02  0.78934872834E+02 0.  0.
         23    2    1    2    0    0  0.37307528477E+02  0.23112575211E+02  0.79705874735E+02  0.12731932530E+03  0.89056955454E+02 0.  0.
        -13    1    3    3    0    0 -0.20997143922E+02  0.20137036505E+02  0.26582670604E+01  0.29213809677E+02  0.00000000000E+00 0.  1.
         14    1    3    3    0    0 -0.32859759882E+01 -0.63640240588E+02  0.20770212042E+02  0.67024469924E+02  0.00000000000E+00 0. -1.
        -11    1    4    4    0    0  0.63365492017E+02  0.11796722031E+02  0.32402203437E+02  0.72140494986E+02  0.00000000000E+00 0.  1.
         11    1    4    4    0    0 -0.26057963540E+02  0.11315853179E+02  0.47303671299E+02  0.55178830319E+02  0.00000000000E+00 0. -1.
         -2    1    1    2    0  502 -0.13024408567E+02  0.20390628873E+02  0.92420647500E+02  0.95535276462E+02  0.00000000000E+00 0.  1.
<scales pt_clust_5="13000.00000" pt_clust_6="13000.00000" pt_clust_7="13000.00000" pt_clust_8="13000.00000" pt_clust_9="13000.00000"></scales>
<clustering>
<clus scale="   78.935">  5  6 -1 -1</clus>
<clus scale="   89.057">  7  8 -1 -1</clus>
<clus scale="   24.195">  7  9 -1 -1</clus>
<clus scale="   93.343">  1  5  2 -1</clus>
<clus scale="  141.551">  2  5  1 -1</clus>
</clustering>
</event>
<event>
 9    2  0.8405167E-005  0.3354382E+03  0.7546771E-02  0.1082937E+00
         -1   -1    0    0    0  501 -0.00000000000E+00  0.00000000000E+00  0.77388262400E+03  0.77388262400E+03  0.00000000000E+00 0.  1.
         21   -1    0    0  501  502  0.00000000000E+00 -0.00000000000E+00 -0.10382261527E+03  0.10382261527E+03  0.00000000000E+00 0.  1.
         24    2    1    2    0    0  0.12890367487E+03 -0.17052884531E+03  0.22609588385E+03  0.32126751229E+03  0.79982631120E+02 0.  0.
         23    2    1    2    0    0  0.11333482305E+02 -0.16148532213E+02  0.18919694902E+03  0.21086397591E+03  0.90988504247E+02 0.  0.
        -11    1    3    3    0    0  0.10233598091E+03 -0.14816949342E+03  0.22267409954E+03  0.28637494020E+03  0.00000000000E+00 0.  1.
         12    1    3    3    0    0  0.26567693964E+02 -0.22359351889E+02  0.34217843166E+01  0.34892572094E+02  0.00000000000E+00 0. -1.
        -13    1    4    4    0    0 -0.32492370661E+02 -0.32820234463E+02  0.91229419785E+02  0.10225325900E+03  0.00000000000E+00 0.  1.
         13    1    4    4    0    0  0.43825852967E+02  0.16671702251E+02  0.97967529234E+02  0.10861071691E+03  0.00000000000E+00 0. -1.
         -2    1    1    2    0  502 -0.14023715718E+03  0.18667737753E+03  0.25476717585E+03  0.34557375107E+03  0.00000000000E+00 0.  1.
<scales pt_clust_5="13000.00000" pt_clust_6="13000.00000" pt_clust_7="13000.00000" pt_clust_8="13000.00000" pt_clust_9="13000.00000"></scales>
<clustering>
<clus scale="   79.983">  5  6 -1 -1</clus>
<clus scale="   90.989">  7  8 -1 -1</clus>
<clus scale="  228.240">  1  5  2 -1</clus>
<clus scale="  105.204">  7  9 -1 -1</clus>
<clus scale="  335.438">  2  5  1 -1</clus>
</clustering>
</event>
<event>
 9    2  0.4178938E-005  0.2107946E+03  0.7546771E-02  0.1163409E+00
         21   -1    0    0  501  502  0.00000000000E+00  0.00000000000E+00  0.70960217013E+03  0.70960217013E+03  0.00000000000E+00 0. -1.
          2   -1    0    0  502    0 -0.00000000000E+00 -0.00000000000E+00 -0.33614213120E+03  0.33614213120E+03  0.00000000000E+00 0. -1.
         24    2    1    2    0    0 -0.13669823583E+02  0.93794928789E+02 -0.30820943893E+03  0.33222651480E+03  0.79981536310E+02 0.  0.
         23    2    1    2    0    0  0.36427485160E+02 -0.17411769806E+02  0.17311079155E+03  0.19875159148E+03  0.88908478570E+02 0.  0.
        -13    1    3    3    0    0 -0.24358689042E+02  0.41063567940E+02 -0.52691098649E+02  0.71104952153E+02  0.00000000000E+00 0.  1.
         14    1    3    3    0    0  0.10688865460E+02  0.52731360848E+02 -0.25551834028E+03  0.26112156265E+03  0.00000000000E+00 0. -1.
        -11    1    4    4    0    0  0.43044522799E+02  0.57200560072E+01  0.16881655003E+03  0.17431172522E+03  0.00000000000E+00 0. -1.
         11    1    4    4    0    0 -0.66170376394E+01 -0.23131825813E+02  0.42942415151E+01  0.24439866259E+02  0.00000000000E+00 0.  1.
          1    1    1    2  501    0 -0.22757661577E+02 -0.76383158983E+02  0.50855868631E+03  0.51476619504E+03  0.00000000000E+00 0. -1.
<scales pt_clust_5="13000.00000" pt_clust_6="13000.00000" pt_clust_7="13000.00000" pt_clust_8="13000.00000" pt_clust_9="13000.00000"></scales>
<clustering>
<clus scale="   79.982">  5  6 -1 -1</clus>
<clus scale="   88.908">  7  8 -1 -1</clus>
<clus scale="   79.701">  7  9 -1 -1</clus>
<clus scale="  124.022">  2  5  1 -1</clus>
<clus scale="  210.795">  1  5  2 -1</clus>
</clustering>
</event>
<event>
 9    2  0.4178938E-005  0.2381879E+03  0.7546771E-02  0.1142803E+00
          2   -1    0    0  502    0 -0.00000000000E+00  0.00000000000E+00  0.11852384627E+03  0.11852384627E+03  0.00000000000E+00 0. -1.
         21   -1    0    0  501  502  0.00000000000E+00 -0.00000000000E+00 -0.36365546789E+03  0.36365546789E+03  0.00000000000E+00 0. -1.
         24    2    1    2    0    0 -0.11154504788E+03 -0.18717619562E+02  0.94608147355E+00  0.13970635733E+03  0.82001976924E+02 0.  0.
         23    2    1    2    0    0  0.10434163027E+03  0.64462969963E+02 -0.25283286364E+03  0.29567382754E+03  0.91955995192E+02 0.  0.
        -11    1    3    3    0    0 -0.96799840033E+01  0.19244150175E+02  0.19936489815E+02  0.29351371900E+02  0.00000000000E+00 0.  1.
         12    1    3    3    0    0 -0.10186506388E+03 -0.37961769736E+02 -0.18990408341E+02  0.11035498543E+03  0.00000000000E+00 0. -1.
        -13    1    4    4    0    0  0.64553095261E+02 -0.84816848747E+01 -0.74546317061E+02  0.98975726688E+02  0.00000000000E+00 0.  1.
         13    1    4    4    0    0  0.39788535008E+02  0.72944654838E+02 -0.17828654658E+03  0.19669810085E+03  0.00000000000E+00 0. -1.
          1    1    1    2  501    0  0.72034176116E+01 -0.45745350402E+02  0.67551605411E+01  0.46799129293E+02  0.00000000000E+00 0. -1.
<scales pt_clust_5="13000.00000" pt_clust_6="13000.00000" pt_clust_7="13000.00000" pt_clust_8="13000.00000" pt_clust_9="13000.00000"></scales>
<clustering>
<clus scale="   82.002">  5  6 -1 -1</clus>
<clus scale="   91.956">  7  8 -1 -1</clus>
<clus scale="   46.309">  7  9 -1 -1</clus>
<clus scale="  139.703">  1  5  2 -1</clus>
<clus scale="  238.188">  2  5  1 -1</clus>
</clustering>
</event>
<event>
 9    2  0.4178938E-005  0.1929167E+03  0.7546771E-02  0.1190479E+00
          2   -1    0    0  502    0 -0.00000000000E+00  0.00000000000E+00  0.20658807708E+03  0.20658807708E+03  0.00000000000E+00 0. -1.
         21   -1    0    0  501  502  0.00000000000E+00 -0.00000000000E+00 -0.97962088383E+02  0.97962088383E+02  0.00000000000E+00 0. -1.
         24    2    1    2    0    0 -0.24864642905E+02  0.17542222395E+02  0.57707384882E+02  0.10502683262E+03  0.82307431419E+02 0.  0.
         23    2    1    2    0    0 -0.45397359254E+02 -0.56591917686E+01 -0.21806368598E+02  0.97705471067E+02  0.83533793678E+02 0.  0.
        -13    1    3    3    0    0  0.17790417045E+02  0.35171406096E+02  0.15086543586E+02  0.42203442309E+02  0.00000000000E+00 0.  1.
         14    1    3    3    0    0 -0.42655059950E+02 -0.17629183701E+02  0.42620841296E+02  0.62823390310E+02  0.00000000000E+00 0. -1.
        -11    1    4    4    0    0 -0.19356405984E+02  0.18286014392E+02  0.26673904763E+02  0.37690130940E+02  0.00000000000E+00 0.  1.
         11    1    4    4    0    0 -0.26040953270E+02 -0.23945206161E+02 -0.48480273361E+02  0.60015340126E+02  0.00000000000E+00 0. -1.
          1    1    1    2  501    0  0.70262002159E+02 -0.11883030626E+02  0.72724972414E+02  0.10181786178E+03  0.00000000000E+00 0. -1.
<scales pt_clust_5="13000.00000" pt_clust_6="13000.00000" pt_clust_7="13000.00000" pt_clust_8="13000.00000" pt_clust_9="13000.00000"></scales>
<clustering>
<clus scale="   82.307">  5  6 -1 -1</clus>
<clus scale="   83.534">  7  8 -1 -1</clus>
<clus scale="   71.260">  7  9 -1 -1</clus>
<clus scale="   87.752">  1  5  2 -1</clus>
<clus scale="  192.917">  2  5  1 -1</clus>
</clustering>
</event>
<event>
 9    2  0.4178938E-005  0.1885354E+03  0.7546771E-02  0.1194943E+00
         21   -1    0    0  501  502  0.00000000000E+00  0.00000000000E+00  0.38334879966E+02  0.38334879966E+02  0.00000000000E+00 0.  1.
          2   -1    0    0  502    0 -0.00000000000E+00 -0.00000000000E+00 -0.48874237404E+03  0.48874237404E+03  0.00000000000E+00 0. -1.
         24    2    1    2    0    0  0.22976921773E+02 -0.13948686642E+02 -0.14082154605E+03  0.16460094850E+03  0.80871871641E+02 0.  0.
         23    2    1    2    0    0 -0.61585655626E+02 -0.18355496671E+02 -0.28592656563E+03  0.30685292045E+03  0.90967008418E+02 0.  0.
        -13    1    3    3    0    0 -0.23852120295E+02  0.12716628329E+02 -0.73845266835E+02  0.78636885191E+02  0.00000000000E+00 0.  1.
         14    1    3    3    0    0  0.46829042068E+02 -0.26665314972E+02 -0.66976279215E+02  0.85964063312E+02  0.00000000000E+00 0. -1.
        -13    1    4    4    0    0 -0.19668276682E+02 -0.49536196987E+02 -0.19325654144E+03  0.20047136137E+03  0.00000000000E+00 0.  1.
         13    1    4    4    0    0 -0.41917378944E+02  0.31180700316E+02 -0.92670024187E+02  0.10638155908E+03  0.00000000000E+00 0. -1.
          1    1    1    2  501    0  0.38608733854E+02  0.32304183314E+02 -0.23659382396E+02  0.55623385053E+02  0.00000000000E+00 0. -1.
<scales pt_clust_5="13000.00000" pt_clust_6="13000.00000" pt_clust_7="13000.00000" pt_clust_8="13000.00000" pt_clust_9="13000.00000"></scales>
<clustering>
<clus scale="   80.872">  5  6 -1 -1</clus>
<clus scale="   85.222">  2  5  1 -1</clus>
<clus scale="   90.967">  7  8 -1 -1</clus>
<clus scale="   51.451">  7  9 -1 -1</clus>
<clus scale="  188.535">  1  5  2 -1</clus>
</clustering>
</event>
<event>
 9    2  0.4178938E-005  0.3806842E+03  0.7546771E-02  0.1098799E+00
          2   -1    0    0  502    0 -0.00000000000E+00  0.00000000000E+00  0.14782337937E+04  0.14782337937E+04  0.00000000000E+00 0. -1.
         21   -1    0    0  501  502  0.00000000000E+00 -0.00000000000E+00 -0.10925066870E+03  0.10925066870E+03  0.00000000000E+00 0. -1.
         24    2    1    2    0    0 -0.63430515005E+02  0.14997250828E+02  0.11371131697E+04  0.11417444366E+04  0.79408124006E+02 0.  0.
         23    2    1    2    0    0 -0.88286551413E+00  0.52412390696E+02  0.30801105426E+03  0.32541655502E+03  0.90979594314E+02 0.  0.
        -13    1    3    3    0    0 -0.46657791257E+02 -0.10264131734E+02  0.27646676842E+03  0.28056403177E+03  0.00000000000E+00 0.  1.
         14    1    3    3    0    0 -0.16772723748E+02  0.25261382562E+02  0.86064640126E+03  0.86118040486E+03  0.00000000000E+00 0. -1.
        -11    1    4    4    0    0  0.78779704289E+01  0.76097043256E+02  0.26187892941E+03  0.27282484506E+03  0.00000000000E+00 0. -1.
         11    1    4    4    0    0 -0.87608359430E+01 -0.23684652560E+02  0.46132124851E+02  0.52591709960E+02  0.00000000000E+00 0.  1.
          1    1    1    2  501    0  0.64313380520E+02 -0.67409641524E+02 -0.76141098891E+02  0.12032347080E+03  0.00000000000E+00 0. -1.
<scales pt_clust_5="13000.00000" pt_clust_6="13000.00000" pt_clust_7="13000.00000" pt_clust_8="13000.00000" pt_clust_9="13000.00000"></scales>
<clustering>
<clus scale="   79.408">  5  6 -1 -1</clus>
<clus scale="   90.980">  7  8 -1 -1</clus>
<clus scale="   93.168">  7  9 -1 -1</clus>
<clus scale="  102.733">  1  5  2 -1</clus>
<clus scale="  380.684">  2  5  1 -1</clus>
</clustering>
</event>
<event>
 9    2  0.4178938E-005  0.1793995E+03  0.7546771E-02  0.1190665E+00
         21   -1    0    0  501  502  0.00000000000E+00  0.00000000000E+00  0.27068364459E+02  0.27068364459E+02  0.00000000000E+00 0. -1.
          2   -1    0    0  502    0 -0.00000000000E+00 -0.00000000000E+00 -0.82092631726E+03  0.82092631726E+03  0.00000000000E+00 0. -1.
         24    2    1    2    0    0 -0.13384520351E+02 -0.70925977208E+02 -0.41205801823E+03  0.42614713496E+03  0.81239957035E+02 0.  0.
         23    2    1    2    0    0  0.41116020490E+02  0.41055279084E+01 -0.26739222878E+03  0.28648458399E+03  0.94167034326E+02 0.  0.
        -11    1    3    3    0    0  0.26226012178E+02 -0.53649257560E+02 -0.16811519299E+03  0.17840617889E+03  0.00000000000E+00 0.  1.
         12    1    3    3    0    0 -0.39610532529E+02 -0.17276719647E+02 -0.24394282524E+03  0.24774095607E+03  0.00000000000E+00 0. -1.
        -11    1    4    4    0    0 -0.16339564793E+02 -0.26691006114E+02 -0.45565008702E+02  0.55277130922E+02  0.00000000000E+00 0.  1.
         11    1    4    4    0    0  0.57455585284E+02  0.30796534023E+02 -0.22182722008E+03  0.23120745307E+03  0.00000000000E+00 0. -1.
          1    1    1    2  501    0 -0.27731500140E+02  0.66820449299E+02 -0.11440770579E+03  0.13536296277E+03  0.00000000000E+00 0. -1.
<scales pt_clust_5="13000.00000" pt_clust_6="13000.00000" pt_clust_7="13000.00000" pt_clust_8="13000.00000" pt_clust_9="13000.00000"></scales>
<clustering>
<clus scale="   81.240">  5  6 -1 -1</clus>
<clus scale="   94.167">  7  8 -1 -1</clus>
<clus scale="   72.346">  7  9 -1 -1</clus>
<clus scale="  108.672">  2  5  1 -1</clus>
<clus scale="  179.399">  1  5  2 -1</clus>
</clustering>
</event>
<event>
 9    2  0.4178938E-005  0.1872993E+03  0.7546771E-02  0.1197939E+00
         21   -1    0    0  501  502  0.00000000000E+00  0.00000000000E+00  0.68950489138E+02  0.68950489138E+02  0.00000000000E+00 0.  1.
         -3   -1    0    0    0  501 -0.00000000000E+00 -0.00000000000E+00 -0.31031862981E+03  0.31031862981E+03  0.00000000000E+00 0.  1.
         24    2    1    2    0    0  0.17176093867E+01  0.27885091345E+00 -0.15046045092E+03  0.17107390143E+03  0.81393516436E+02 0.  0.
         23    2    1    2    0    0  0.89233759675E+01  0.64259031785E+02 -0.87584790636E+02  0.14270162600E+03  0.92107593103E+02 0.  0.
        -13    1    3    3    0    0 -0.34755389701E+02 -0.19569302042E+02 -0.74353901229E+02  0.84376521164E+02  0.00000000000E+00 0.  1.
         14    1    3    3    0    0  0.36472999088E+02  0.19848152956E+02 -0.76106549696E+02  0.86697380265E+02  0.00000000000E+00 0. -1.
        -13    1    4    4    0    0  0.19427947672E+02  0.18019258636E+02  0.14453684918E+02  0.30183569044E+02  0.00000000000E+00 0. -1.
         13    1    4    4    0    0 -0.10504571704E+02  0.46239773149E+02 -0.10203847555E+03  0.11251805695E+03  0.00000000000E+00 0.  1.
         -4    1    1    2    0  502 -0.10640985354E+02 -0.64537882698E+02 -0.33228991159E+01  0.65493591526E+02  0.00000000000E+00 0.  1.
<scales pt_clust_5="13000.00000" pt_clust_6="13000.00000" pt_clust_7="13000.00000" pt_clust_8="13000.00000" pt_clust_9="13000.00000"></scales>
<clustering>
<clus scale="   81.394">  5  6 -1 -1</clus>
<clus scale="   81.412">  2  5  1 -1</clus>
<clus scale="   92.108">  7  8 -1 -1</clus>
<clus scale="   65.283">  7  9 -1 -1</clus>
<clus scale="  187.299">  1  5  2 -1</clus>
</clustering>
</event>
<event>
 9    2  0.4178938E-005  0.1404039E+03  0.7546771E-02  0.1236268E+00
          2   -1    0    0  502    0 -0.00000000000E+00  0.00000000000E+00  0.39370104966E+02  0.39370104966E+02  0.00000000000E+00 0. -1.
         21   -1    0    0  501  502  0.00000000000E+00 -0.00000000000E+00 -0.56186335663E+03  0.56186335663E+03  0.00000000000E+00 0.  1.
         24    2    1    2    0    0  0.13231986962E+02  0.24557694909E+02 -0.33295012616E+02  0.92285360909E+02  0.81423977518E+02 0.  0.
         23    2    1    2    0    0  0.21347770535E+02 -0.13792508958E+01 -0.25832958855E+03  0.27435625582E+03  0.89886312345E+02 0.  0.
        -13    1    3    3    0    0 -0.13285837274E+02 -0.24636284741E+02 -0.21181792169E+02  0.35101685392E+02  0.00000000000E+00 0.  1.
         14    1    3    3    0    0  0.26517824235E+02  0.49193979650E+02 -0.12113220447E+02  0.57183675517E+02  0.00000000000E+00 0. -1.
        -13    1    4    4    0    0  0.35483413405E+02 -0.30895862954E+02 -0.21482273577E+03  0.21991460793E+03  0.00000000000E+00 0.  1.
         13    1    4    4    0    0 -0.14135642870E+02  0.29516612058E+02 -0.43506852777E+02  0.54441647893E+02  0.00000000000E+00 0. -1.
          1    1    1    2  501    0 -0.34579757497E+02 -0.23178444014E+02 -0.23086865050E+03  0.23459184487E+03  0.00000000000E+00 0. -1.
<scales pt_clust_5="13000.00000" pt_clust_6="13000.00000" pt_clust_7="13000.00000" pt_clust_8="13000.00000" pt_clust_9="13000.00000"></scales>
<clustering>
<clus scale="   81.424">  5  6 -1 -1</clus>
<clus scale="   86.070">  1  5  2 -1</clus>
<clus scale="   89.886">  7  8 -1 -1</clus>
<clus scale="   37.061">  7  9 -1 -1</clus>
<clus scale="  140.404">  2  5  1 -1</clus>
</clustering>
</event>
<event>
 9    2  0.4178938E-005  0.2696693E+03  0.7546771E-02  0.1143173E+00
         -3   -1    0    0    0  501 -0.00000000000E+00  0.00000000000E+00  0.15686891330E+03  0.15686891330E+03  0.00000000000E+00 0.  1.
         21   -1    0    0  501  502  0.00000000000E+00 -0.00000000000E+00 -0.98388521456E+03  0.98388521456E+03  0.00000000000E+00 0.  1.
         24    2    1    2    0    0  0.28643198266E+01 -0.51874737052E+02  0.12159213744E+03  0.15455967749E+03  0.80030327670E+02 0.  0.
         23    2    1    2    0    0  0.18870981511E+02 -0.77194917607E+02 -0.28909123673E+03  0.31381484124E+03  0.92686796163E+02 0.  0.
        -11    1    3    3    0    0  0.25128299084E+02 -0.18249275246E+02  0.10741156010E+03  0.11181104912E+03  0.00000000000E+00 0.  1.
         12    1    3    3    0    0 -0.22263979257E+02 -0.33625461805E+02  0.14180577337E+02  0.42748628371E+02  0.00000000000E+00 0. -1.
        -13    1    4    4    0    0 -0.34477194639E+02 -0.49247272972E+02 -0.17087809239E+03  0.18114439904E+03  0.00000000000E+00 0.  1.
         13    1    4    4    0    0  0.53348176150E+02 -0.27947644635E+02 -0.11821314434E+03  0.13267044220E+03  0.00000000000E+00 0. -1.
         -4    1    1    2    0  502 -0.21735301338E+02  0.12906965466E+03 -0.65951720197E+03  0.67237960913E+03  0.00000000000E+00 0.  1.
<scales pt_clust_5="13000.00000" pt_clust_6="13000.00000" pt_clust_7="13000.00000" pt_clust_8="13000.00000" pt_clust_9="13000.00000"></scales>
<clustering>
<clus scale="   80.030">  5  6 -1 -1</clus>
<clus scale="   92.687">  7  8 -1 -1</clus>
<clus scale="   95.415">  1  5  2 -1</clus>
<clus scale="  113.236">  7  9 -1 -1</clus>
<clus scale="  269.669">  2  5  1 -1</clus>
</clustering>
</event>
<event>
 9    2  0.4178938E-005  0.3897411E+03  0.7546771E-02  0.1102892E+00
         21   -1    0    0  501  502  0.00000000000E+00  0.00000000000E+00  0.39861938471E+03  0.39861938471E+03  0.00000000000E+00 0. -1.
          4   -1    0    0  502    0 -0.00000000000E+00 -0.00000000000E+00 -0.17188121253E+03  0.17188121253E+03  0.00000000000E+00 0. -1.
         24    2    1    2    0    0  0.15837188045E+02  0.32306256758E+02 -0.43272209975E+02  0.96365882646E+02  0.78226519999E+02 0.  0.
         23    2    1    2    0    0 -0.10669821173E+03 -0.27896049641E+02  0.33366534812E+03  0.36310710431E+03  0.91386578273E+02 0.  0.
        -13    1    3    3    0    0  0.49902148282E+01  0.56420037391E+02 -0.17107543303E+02  0.59167481788E+02  0.00000000000E+00 0.  1.
         14    1    3    3    0    0  0.10846973217E+02 -0.24113780633E+02 -0.26164666672E+02  0.37198400858E+02  0.00000000000E+00 0. -1.
        -13    1    4    4    0    0 -0.46774662732E+02 -0.35837694116E+02  0.65034680586E+02  0.87759438650E+02  0.00000000000E+00 0.  1.
         13    1    4    4    0    0 -0.59923548999E+02  0.79416444748E+01  0.26863066754E+03  0.27534766566E+03  0.00000000000E+00 0. -1.
          3    1    1    2  501    0  0.90861023686E+02 -0.44102071170E+01 -0.63654965967E+02  0.11102761028E+03  0.00000000000E+00 0. -1.
<scales pt_clust_5="13000.00000" pt_clust_6="13000.00000" pt_clust_7="13000.00000" pt_clust_8="13000.00000" pt_clust_9="13000.00000"></scales>
<clustering>
<clus scale="   78.227">  5  6 -1 -1</clus>
<clus scale="   86.104">  2  5  1 -1</clus>
<clus scale="   91.387">  7  8 -1 -1</clus>
<clus scale="  106.968">  7  9 -1 -1</clus>
<clus scale="  389.741">  1  5  2 -1</clus>
</clustering>
</event>
<event>
 9    2  0.4178938E-005  0.1476175E+03  0.7546771E-02  0.1226312E+00
          2   -1    0    0  502    0 -0.00000000000E+00  0.00000000000E+00  0.95383982136E+03  0.95383982136E+03  0.00000000000E+00 0. -1.
         21   -1    0    0  501  502  0.00000000000E+00 -0.00000000000E+00 -0.28077969730E+02  0.28077969730E+02  0.00000000000E+00 0. -1.
         24    2    1    2    0    0 -0.40191601353E+02 -0.11519357543E+00  0.73553494225E+03  0.74113321228E+03  0.81556170760E+02 0.  0.
         23    2    1    2    0    0  0.49467927637E+02  0.30583485898E+02  0.16154557620E+03  0.19792450486E+03  0.98461723310E+02 0.  0.
        -11    1    3    3    0    0  0.36812745092E+00 -0.32749352352E+02  0.16439697590E+03  0.16762762685E+03  0.00000000000E+00 0.  1.
         12    1    3    3    0    0 -0.40559728804E+02  0.32634158776E+02  0.57113796634E+03  0.57350558543E+03  0.00000000000E+00 0. -1.
        -11    1    4    4    0    0 -0.55969564514E+01 -0.31137741008E+02  0.43931431505E+02  0.54137376282E+02  0.00000000000E+00 0.  1.
         11    1    4    4    0    0  0.55064884089E+02  0.61721226906E+02  0.11761414470E+03  0.14378712857E+03  0.00000000000E+00 0. -1.
          1    1    1    2  501    0 -0.92763262841E+01 -0.30468292323E+02  0.28681333180E+02  0.42860073955E+02  0.00000000000E+00 0. -1.
<scales pt_clust_5="13000.00000" pt_clust_6="13000.00000" pt_clust_7="13000.00000" pt_clust_8="13000.00000" pt_clust_9="13000.00000"></scales>
<clustering>
<clus scale="   81.556">  5  6 -1 -1</clus>
<clus scale="   90.922">  1  5  2 -1</clus>
<clus scale="   98.462">  7  8 -1 -1</clus>
<clus scale="   34.406">  7  9 -1 -1</clus>
<clus scale="  147.618">  2  5  1 -1</clus>
</clustering>
</event>
<event>
 9    2  0.4178938E-005  0.1625135E+03  0.7546771E-02  0.1214887E+00
         21   -1    0    0  501  502  0.00000000000E+00  0.00000000000E+00  0.87639880616E+02  0.87639880616E+02  0.00000000000E+00 0.  1.
          2   -1    0    0  502    0 -0.00000000000E+00 -0.00000000000E+00 -0.51190135523E+03  0.51190135523E+03  0.00000000000E+00 0. -1.
         24    2    1    2    0    0  0.16145738912E+02 -0.28534320617E+02 -0.42831121735E+03  0.43697729621E+03  0.80148400844E+02 0.  0.
         23    2    1    2    0    0 -0.48634590464E+02 -0.42511808100E+01  0.25419421878E+02  0.11170061527E+03  0.97198171356E+02 0.  0.
        -11    1    3    3    0    0 -0.30130927639E+02  0.18016567575E+01 -0.11987002301E+03  0.12361205922E+03  0.00000000000E+00 0.  1.
         12    1    3    3    0    0  0.46276666551E+02 -0.30335977375E+02 -0.30844119434E+03  0.31336523699E+03  0.00000000000E+00 0. -1.
        -11    1    4    4    0    0 -0.43915897981E+02  0.37867648782E+02 -0.69064748856E+01  0.58397468396E+02  0.00000000000E+00 0. -1.
         11    1    4    4    0    0 -0.47186924830E+01 -0.42118829592E+02  0.32325896764E+02  0.53303146872E+02  0.00000000000E+00 0.  1.
          1    1    1    2  501    0  0.32488851552E+02  0.32785501427E+02 -0.21369679143E+02  0.50863324367E+02  0.00000000000E+00 0. -1.
<scales pt_clust_5="13000.00000" pt_clust_6="13000.00000" pt_clust_7="13000.00000" pt_clust_8="13000.00000" pt_clust_9="13000.00000"></scales>
<clustering>
<clus scale="   80.148">  5  6 -1 -1</clus>
<clus scale="   86.595">  2  5  1 -1</clus>
<clus scale="   97.198">  7  8 -1 -1</clus>
<clus scale="   44.487">  7  9 -1 -1</clus>
<clus scale="  162.513">  1  5  2 -1</clus>
</clustering>
</event>
<event>
 9    2  0.4178938E-005  0.2966083E+03  0.7546771E-02  0.1135746E+00
         -3   -1    0    0    0  501 -0.00000000000E+00  0.00000000000E+00  0.96819132976E+02  0.96819132976E+02  0.00000000000E+00 0.  1.
         21   -1    0    0  501  502  0.00000000000E+00 -0.00000000000E+00 -0.42264339471E+03  0.42264339471E+03  0.00000000000E+00 0.  1.
         24    2    1    2    0    0  0.19693842872E+02 -0.34568022862E+02 -0.10290034141E+02  0.86405551156E+02  0.76008149670E+02 0.  0.
         23    2    1    2    0    0  0.75989878424E+02 -0.38445203371E+02 -0.28122816875E+03  0.30790422427E+03  0.91995832165E+02 0.  0.
        -11    1    3    3    0    0  0.27284470568E+02  0.17388958826E+02 -0.10107842866E+02  0.33896706486E+02  0.00000000000E+00 0.  1.
         12    1    3    3    0    0 -0.75906276961E+01 -0.51956981687E+02 -0.18219127441E+00  0.52508844669E+02  0.00000000000E+00 0. -1.
        -11    1    4    4    0    0  0.31095515680E+02 -0.65520667584E+02 -0.17536887588E+03  0.18977389600E+03  0.00000000000E+00 0.  1.
         11    1    4    4    0    0  0.44894362743E+02  0.27075464213E+02 -0.10585929287E+03  0.11813032826E+03  0.00000000000E+00 0. -1.
         -4    1    1    2    0  502 -0.95683721295E+02  0.73013226232E+02 -0.34306058838E+02  0.12515275226E+03  0.00000000000E+00 0.  1.
<scales pt_clust_5="13000.00000" pt_clust_6="13000.00000" pt_clust_7="13000.00000" pt_clust_8="13000.00000" pt_clust_9="13000.00000"></scales>
<clustering>
<clus scale="   76.008">  5  6 -1 -1</clus>
<clus scale="   85.791">  1  5  2 -1</clus>
<clus scale="   91.996">  7  8 -1 -1</clus>
<clus scale="   92.826">  7  9 -1 -1</clus>
<clus scale="  296.608">  2  5  1 -1</clus>
</clustering>
</event>
<event>
 9    2  0.4178938E-005  0.5322147E+03  0.7546771E-02  0.1068756E+00
          2   -1    0    0  502    0 -0.00000000000E+00  0.00000000000E+00  0.16488679791E+04  0.16488679791E+04  0.00000000000E+00 0. -1.
         21   -1    0    0  501  502  0.00000000000E+00 -0.00000000000E+00 -0.57949427630E+02  0.57949427630E+02  0.00000000000E+00 0. -1.
         24    2    1    2    0    0 -0.25778517639E+02  0.11527327448E+02  0.26820931711E+03  0.28105018836E+03  0.79092094050E+02 0.  0.
         23    2    1    2    0    0 -0.36179961091E+02  0.22743823444E+03  0.39251969574E+03  0.46337646062E+03  0.87228966746E+02 0.  0.
        -13    1    3    3    0    0 -0.27049311236E+01 -0.29407039803E+02  0.52063556263E+02  0.59855697583E+02  0.00000000000E+00 0.  1.
         14    1    3    3    0    0 -0.23073586516E+02  0.40934367251E+02  0.21614576085E+03  0.22119449077E+03  0.00000000000E+00 0. -1.
        -11    1    4    4    0    0 -0.32413610841E+02  0.16035226882E+03  0.19387143845E+03  0.25367228254E+03  0.00000000000E+00 0. -1.
         11    1    4    4    0    0 -0.37663502495E+01  0.67085965625E+02  0.19864825730E+03  0.20970417808E+03  0.00000000000E+00 0.  1.
          1    1    1    2  501    0  0.61958478730E+02 -0.23896556189E+03  0.93018953859E+03  0.96239075773E+03  0.00000000000E+00 0. -1.
<scales pt_clust_5="13000.00000" pt_clust_6="13000.00000" pt_clust_7="13000.00000" pt_clust_8="13000.00000" pt_clust_9="13000.00000"></scales>
<clustering>
<clus scale="   79.092">  5  6 -1 -1</clus>
<clus scale="   83.982">  1  5  2 -1</clus>
<clus scale="   87.229">  7  8 -1 -1</clus>
<clus scale="  235.220">  7  9 -1 -1</clus>
<clus scale="  532.215">  2  5  1 -1</clus>
</clustering>
</event>
<event>
 9    2  0.4178938E-005  0.1818754E+03  0.7546771E-02  0.1188901E+00
          2   -1    0    0  502    0 -0.00000000000E+00  0.00000000000E+00  0.92836630159E+03  0.92836630159E+03  0.00000000000E+00 0. -1.
         21   -1    0    0  501  502  0.00000000000E+00 -0.00000000000E+00 -0.25206412809E+02  0.25206412809E+02  0.00000000000E+00 0. -1.
         24    2    1    2    0    0 -0.52410410727E+02 -0.53007939121E+02  0.49477650579E+03  0.50652055200E+03  0.78756499105E+02 0.  0.
         23    2    1    2    0    0  0.11533486988E+02  0.21837017659E+02  0.11333089773E+03  0.14755505340E+03  0.91207043274E+02 0.  0.
        -13    1    3    3    0    0 -0.40489764666E+02 -0.30888503398E+02  0.11332097988E+03  0.12423834016E+03  0.00000000000E+00 0.  1.
         14    1    3    3    0    0 -0.11920646061E+02 -0.22119435723E+02  0.38145552592E+03  0.38228221184E+03  0.00000000000E+00 0. -1.
        -11    1    4    4    0    0 -0.35827501579E+02  0.44894563800E+01  0.78064357645E+02  0.86010516930E+02  0.00000000000E+00 0.  1.
         11    1    4    4    0    0  0.47360988567E+02  0.17347561279E+02  0.35266540083E+02  0.61544536474E+02  0.00000000000E+00 0. -1.
          1    1    1    2  501    0  0.40876923738E+02  0.31170921462E+02  0.29505248526E+03  0.29949710900E+03  0.00000000000E+00 0. -1.
<scales pt_clust_5="13000.00000" pt_clust_6="13000.00000" pt_clust_7="13000.00000" pt_clust_8="13000.00000" pt_clust_9="13000.00000"></scales>
<clustering>
<clus scale="   78.756">  5  6 -1 -1</clus>
<clus scale="   91.207">  7  8 -1 -1</clus>
<clus scale="   51.406">  7  9 -1 -1</clus>
<clus scale="  108.440">  1  5  2 -1</clus>
<clus scale="  181.875">  2  5  1 -1</clus>
</clustering>
</event>
<event>
 9    2  0.4858285E-005  0.5041972E+03  0.7546771E-02  0.1051249E+00
         21   -1    0    0  501  502  0.00000000000E+00  0.00000000000E+00  0.17179638854E+03  0.17179638854E+03  0.00000000000E+00 0.  1.
          2   -1    0    0  502    0 -0.00000000000E+00 -0.00000000000E+00 -0.10583893651E+04  0.10583893651E+04  0.00000000000E+00 0. -1.
         24    2    1    2    0    0 -0.12314493546E+03 -0.67624793880E+02  0.48038676529E+02  0.16822949289E+03  0.79092730125E+02 0.  0.
         23    2    1    2    0    0 -0.91125677324E+02 -0.12819270193E+03 -0.20145316431E+03  0.27340880904E+03  0.97117153761E+02 0.  0.
        -11    1    3    3    0    0 -0.86795318607E+02 -0.47284876613E+02  0.70023335348E+02  0.12113031983E+03  0.00000000000E+00 0.  1.
         12    1    3    3    0    0 -0.36349616855E+02 -0.20339917267E+02 -0.21984658818E+02  0.47099173064E+02  0.00000000000E+00 0. -1.
        -11    1    4    4    0    0 -0.10468969697E+03 -0.10634633289E+03 -0.13158038669E+03  0.19895445039E+03  0.00000000000E+00 0.  1.
         11    1    4    4    0    0  0.13564019645E+02 -0.21846369046E+02 -0.69872777620E+02  0.74454358648E+02  0.00000000000E+00 0. -1.
          1    1    1    2  501    0  0.21427061279E+03  0.19581749581E+03 -0.73317848879E+03  0.78854745171E+03  0.00000000000E+00 0. -1.
<scales pt_clust_5="13000.00000" pt_clust_6="13000.00000" pt_clust_7="13000.00000" pt_clust_8="13000.00000" pt_clust_9="13000.00000"></scales>
<clustering>
<clus scale="   79.093">  5  6 -1 -1</clus>
<clus scale="   97.117">  7  8 -1 -1</clus>
<clus scale="  161.225">  2  5  1 -1</clus>
<clus scale="  187.924">  7  9 -1 -1</clus>
<clus scale="  504.197">  1  5  2 -1</clus>
</clustering>
</event>
<event>
 9    2  0.4178938E-005  0.1066015E+04  0.7546771E-02  0.9892733E-01
          2   -1    0    0  502    0 -0.00000000000E+00  0.00000000000E+00  0.27808902470E+04  0.27808902470E+04  0.00000000000E+00 0. -1.
         21   -1    0    0  501  502  0.00000000000E+00 -0.00000000000E+00 -0.14220558374E+03  0.14220558374E+03  0.00000000000E+00 0. -1.
         24    2    1    2    0    0  0.71821554733E+02  0.23266798326E+02  0.47383317937E+02  0.12109109944E+03  0.81964601606E+02 0.  0.
         23    2    1    2    0    0  0.16966973884E+03 -0.49408711635E+03  0.14567468952E+04  0.15501246983E+04  0.88685764199E+02 0.  0.
        -11    1    3    3    0    0  0.83073006018E+01 -0.24379397692E+02  0.30494021749E+02  0.39915556335E+02  0.00000000000E+00 0.  1.
         12    1    3    3    0    0  0.63514254132E+02  0.47646196018E+02  0.16889296188E+02  0.81175543106E+02  0.00000000000E+00 0. -1.
        -13    1    4    4    0    0  0.51516168654E+01 -0.52196925173E+02  0.22938446748E+03  0.23530467924E+03  0.00000000000E+00 0.  1.
         13    1    4    4    0    0  0.16451812198E+03 -0.44189019117E+03  0.12273624277E+04  0.13148200190E+04  0.00000000000E+00 0. -1.
          1    1    1    2  501    0 -0.24149129358E+03  0.47082031802E+03  0.11345544502E+04  0.12518800330E+04  0.00000000000E+00 0. -1.
<scales pt_clust_5="13000.00000" pt_clust_6="13000.00000" pt_clust_7="13000.00000" pt_clust_8="13000.00000" pt_clust_9="13000.00000"></scales>
<clustering>
<clus scale="   81.965">  5  6 -1 -1</clus>
<clus scale="   88.686">  7  8 -1 -1</clus>
<clus scale="  111.436">  1  5  2 -1</clus>
<clus scale="  524.835">  7  9 -1 -1</clus>
<clus scale=" 1066.015">  2  5  1 -1</clus>
</clustering>
</event>
<event>
 9    2  0.4178938E-005  0.4641720E+03  0.7546771E-02  0.1082247E+00
          2   -1    0    0  502    0 -0.00000000000E+00  0.00000000000E+00  0.30334767071E+03  0.30334767071E+03  0.00000000000E+00 0. -1.
         21   -1    0    0  501  502  0.00000000000E+00 -0.00000000000E+00 -0.38463106762E+03  0.38463106762E+03  0.00000000000E+00 0.  1.
         24    2    1    2    0    0  0.25960985834E+02  0.25179249623E+02 -0.19172410528E+03  0.21084900559E+03  0.79945001194E+02 0.  0.
         23    2    1    2    0    0  0.23017623716E+02  0.12628148836E+03 -0.11978338571E+03  0.19723262157E+03  0.89865578591E+02 0.  0.
        -13    1    3    3    0    0  0.50514057071E+02  0.28758917986E+02 -0.16209785815E+03  0.17220470651E+03  0.00000000000E+00 0.  1.
         14    1    3    3    0    0 -0.24553071238E+02 -0.35796683628E+01 -0.29626247129E+02  0.38644299085E+02  0.00000000000E+00 0. -1.
        -13    1    4    4    0    0 -0.28609697584E+02  0.50821226370E+02 -0.76167446303E+02  0.95931182219E+02  0.00000000000E+00 0.  1.
         13    1    4    4    0    0  0.51627321301E+02  0.75460261989E+02 -0.43615939405E+02  0.10130143935E+03  0.00000000000E+00 0. -1.
          1    1    1    2  501    0 -0.48978609550E+02 -0.15146073798E+03  0.23022409409E+03  0.27989711117E+03  0.00000000000E+00 0. -1.
<scales pt_clust_5="13000.00000" pt_clust_6="13000.00000" pt_clust_7="13000.00000" pt_clust_8="13000.00000" pt_clust_9="13000.00000"></scales>
<clustering>
<clus scale="   79.945">  5  6 -1 -1</clus>
<clus scale="   87.745">  1  5  2 -1</clus>
<clus scale="   89.866">  7  8 -1 -1</clus>
<clus scale="  132.270">  7  9 -1 -1</clus>
<clus scale="  464.172">  2  5  1 -1</clus>
</clustering>
</event>
<event>
 9    2  0.4178938E-005  0.1859273E+03  0.7546771E-02  0.1191962E+00
          2   -1    0    0  502    0 -0.00000000000E+00  0.00000000000E+00  0.34122176407E+03  0.34122176407E+03  0.00000000000E+00 0. -1.
         21   -1    0    0  501  502  0.00000000000E+00 -0.00000000000E+00 -0.87186749288E+02  0.87186749288E+02  0.00000000000E+00 0. -1.
         24    2    1    2    0    0 -0.47014514796E+02 -0.21707654088E+02  0.21973881560E+03  0.23934457492E+03  0.79492714218E+02 0.  0.
         23    2    1    2    0    0  0.24623609581E+02 -0.55731109926E+02  0.19404799865E+02  0.10708913388E+03  0.85902605175E+02 0.  0.
        -13    1    3    3    0    0 -0.38098599018E+02  0.17119566828E+02  0.50771280183E+02  0.65744244668E+02  0.00000000000E+00 0.  1.
         14    1    3    3    0    0 -0.89159157787E+01 -0.38827220916E+02  0.16896753542E+03  0.17360033025E+03  0.00000000000E+00 0. -1.
        -13    1    4    4    0    0 -0.28437064396E+02 -0.89861922098E+00  0.10242327584E+02  0.30238707352E+02  0.00000000000E+00 0.  1.
         13    1    4    4    0    0  0.53060673977E+02 -0.54832490705E+02  0.91624722819E+01  0.76850426532E+02  0.00000000000E+00 0. -1.
          1    1    1    2  501    0  0.22390905216E+02  0.77438764014E+02  0.14891399315E+02  0.81974804555E+02  0.00000000000E+00 0. -1.
<scales pt_clust_5="13000.00000" pt_clust_6="13000.00000" pt_clust_7="13000.00000" pt_clust_8="13000.00000" pt_clust_9="13000.00000"></scales>
<clustering>
<clus scale="   79.493">  5  6 -1 -1</clus>
<clus scale="   85.903">  7  8 -1 -1</clus>
<clus scale="   80.611">  7  9 -1 -1</clus>
<clus scale="   94.872">  1  5  2 -1</clus>
<clus scale="  185.927">  2  5  1 -1</clus>
</clustering>
</event>
<event>
 9    2  0.4178938E-005  0.1569685E+03  0.7546771E-02  0.1211559E+00
         21   -1    0    0  501  502  0.00000000000E+00  0.00000000000E+00  0.16811757282E+03  0.16811757282E+03  0.00000000000E+00 0. -1.
          2   -1    0    0  502    0 -0.00000000000E+00 -0.00000000000E+00 -0.73252368898E+03  0.73252368898E+03  0.00000000000E+00 0. -1.
         24    2    1    2    0    0  0.18684462161E+02  0.60254505847E+02 -0.69120439084E+03  0.69885695113E+03  0.81595426473E+02 0.  0.
         23    2    1    2    0    0 -0.12513272289E+02 -0.11701260443E+02  0.11854438638E+03  0.15214936436E+03  0.93825135507E+02 0.  0.
        -11    1    3    3    0    0 -0.27781862853E+02  0.68709336141E+01 -0.12431235242E+03  0.12756411171E+03  0.00000000000E+00 0.  1.
         12    1    3    3    0    0  0.46466325014E+02  0.53383572233E+02 -0.56689203842E+03  0.57129283942E+03  0.00000000000E+00 0. -1.
        -13    1    4    4    0    0  0.38811192915E+02 -0.71045771985E+00  0.29378500189E+02  0.48681718530E+02  0.00000000000E+00 0. -1.
         13    1    4    4    0    0 -0.51324465204E+02 -0.10990802723E+02  0.89165886188E+02  0.10346764583E+03  0.00000000000E+00 0.  1.
          1    1    1    2  501    0 -0.61711898714E+01 -0.48553245404E+02  0.82538882974E+01  0.49634946315E+02  0.00000000000E+00 0. -1.
<scales pt_clust_5="13000.00000" pt_clust_6="13000.00000" pt_clust_7="13000.00000" pt_clust_8="13000.00000" pt_clust_9="13000.00000"></scales>
<clustering>
<clus scale="   81.595">  5  6 -1 -1</clus>
<clus scale="   93.825">  7  8 -1 -1</clus>
<clus scale="   48.944">  7  9 -1 -1</clus>
<clus scale="  103.138">  2  5  1 -1</clus>
<clus scale="  156.968">  1  5  2 -1</clus>
</clustering>
</event>
<event>
 9    2  0.4178938E-005  0.5710664E+03  0.7546771E-02  0.1042985E+00
          2   -1    0    0  502    0 -0.00000000000E+00  0.00000000000E+00  0.89927105003E+03  0.89927105003E+03  0.00000000000E+00 0. -1.
         21   -1    0    0  501  502  0.00000000000E+00 -0.00000000000E+00 -0.17358681911E+03  0.17358681911E+03  0.00000000000E+00 0. -1.
         24    2    1    2    0    0  0.10727173123E+03  0.45483418887E+02  0.38028070746E+03  0.40545959413E+03  0.78791498838E+02 0.  0.
         23    2    1    2    0    0  0.14020123122E+03  0.16433255500E+03  0.21491401846E+03  0.31769394139E+03  0.89887881243E+02 0.  0.
        -11    1    3    3    0    0 -0.48040771715E+01  0.26429136646E+02  0.66568960855E+02  0.71784434042E+02  0.00000000000E+00 0.  1.
         12    1    3    3    0    0  0.11207580840E+03  0.19054282241E+02  0.31371174661E+03  0.33367516009E+03  0.00000000000E+00 0. -1.
        -11    1    4    4    0    0  0.69310905646E+02  0.30367672996E+02  0.10938813572E+03  0.13301113277E+03  0.00000000000E+00 0.  1.
         11    1    4    4    0    0  0.70890325573E+02  0.13396488200E+03  0.10552588275E+03  0.18468280862E+03  0.00000000000E+00 0. -1.
          1    1    1    2  501    0 -0.24747296245E+03 -0.20981597388E+03  0.13048950499E+03  0.34970433362E+03  0.00000000000E+00 0. -1.
<scales pt_clust_5="13000.00000" pt_clust_6="13000.00000" pt_clust_7="13000.00000" pt_clust_8="13000.00000" pt_clust_9="13000.00000"></scales>
<clustering>
<clus scale="   78.791">  5  6 -1 -1</clus>
<clus scale="   89.888">  7  8 -1 -1</clus>
<clus scale="  140.656">  1  5  2 -1</clus>
<clus scale="  272.204">  7  9 -1 -1</clus>
<clus scale="  571.066">  2  5  1 -1</clus>
</clustering>
</event>
<event>
 9    2  0.4178938E-005  0.2675092E+03  0.7546771E-02  0.1146530E+00
         -1   -1    0    0    0  501 -0.00000000000E+00  0.00000000000E+00  0.42371284613E+02  0.42371284613E+02  0.00000000000E+00 0.  1.
         21   -1    0    0  501  502  0.00000000000E+00 -0.00000000000E+00 -0.98187378555E+03  0.98187378555E+03  0.00000000000E+00 0.  1.
         24    2    1    2    0    0  0.37217656949E+02  0.14235334850E+02 -0.69009008606E+02  0.11357493640E+03  0.80927277006E+02 0.  0.
         23    2    1    2    0    0  0.24404317440E+01 -0.98943949076E+02 -0.27044222735E+03  0.30337297920E+03  0.95395520920E+02 0.  0.
        -13    1    3    3    0    0  0.15336097313E+02  0.24309002661E+02  0.10420443336E+02  0.30573013108E+02  0.00000000000E+00 0.  1.
         14    1    3    3    0    0  0.21881559636E+02 -0.10073667811E+02 -0.79429451942E+02  0.83001923297E+02  0.00000000000E+00 0. -1.
        -11    1    4    4    0    0 -0.36931936715E+02 -0.67312608060E+02 -0.21538244142E+03  0.22865815364E+03  0.00000000000E+00 0.  1.
         11    1    4    4    0    0  0.39372368459E+02 -0.31631341016E+02 -0.55059785925E+02  0.74714825561E+02  0.00000000000E+00 0. -1.
         -2    1    1    2    0  502 -0.39658088693E+02  0.84708614227E+02 -0.60005126499E+03  0.60729715456E+03  0.00000000000E+00 0.  1.
<scales pt_clust_5="13000.00000" pt_clust_6="13000.00000" pt_clust_7="13000.00000" pt_clust_8="13000.00000" pt_clust_9="13000.00000"></scales>
<clustering>
<clus scale="   80.927">  5  6 -1 -1</clus>
<clus scale="   90.205">  1  5  2 -1</clus>
<clus scale="   95.396">  7  8 -1 -1</clus>
<clus scale="   93.287">  7  9 -1 -1</clus>
<clus scale="  267.509">  2  5  1 -1</clus>
</clustering>
</event>
<event>
 9    2  0.4178938E-005  0.3475948E+03  0.7546771E-02  0.1078537E+00
          2   -1    0    0  502    0 -0.00000000000E+00  0.00000000000E+00  0.45985239256E+03  0.45985239256E+03  0.00000000000E+00 0. -1.
         21   -1    0    0  501  502  0.00000000000E+00 -0.00000000000E+00 -0.78602614137E+03  0.78602614137E+03  0.00000000000E+00 0. -1.
         24    2    1    2    0    0  0.64079566204E+02 -0.20717879984E+03  0.38805893411E+03  0.45155461583E+03  0.79262783395E+02 0.  0.
         23    2    1    2    0    0  0.87540276731E+01 -0.87379763450E+01 -0.96101273831E+02  0.13552863462E+03  0.94760596974E+02 0.  0.
        -11    1    3    3    0    0 -0.16885965366E+02 -0.22333805693E+02  0.63129269589E+02  0.69059679857E+02  0.00000000000E+00 0.  1.
         12    1    3    3    0    0  0.80965531570E+02 -0.18484499414E+03  0.32492966452E+03  0.38249493597E+03  0.00000000000E+00 0. -1.
        -11    1    4    4    0    0  0.17953620724E+02  0.38305563254E+02 -0.67644256092E+02  0.79783419678E+02  0.00000000000E+00 0.  1.
         11    1    4    4    0    0 -0.91995930507E+01 -0.47043539599E+02 -0.28457017739E+02  0.55745214942E+02  0.00000000000E+00 0. -1.
          1    1    1    2  501    0 -0.72833593877E+02  0.21591677618E+03 -0.61813140909E+03  0.65879528348E+03  0.00000000000E+00 0. -1.
<scales pt_clust_5="13000.00000" pt_clust_6="13000.00000" pt_clust_7="13000.00000" pt_clust_8="13000.00000" pt_clust_9="13000.00000"></scales>
<clustering>
<clus scale="   79.263">  5  6 -1 -1</clus>
<clus scale="   94.761">  7  8 -1 -1</clus>
<clus scale="  227.870">  7  9 -1 -1</clus>
<clus scale="  230.894">  1  5  2 -1</clus>
<clus scale="  347.595">  2  5  1 -1</clus>
</clustering>
</event>
<event>
 9    2  0.4178938E-005  0.6430615E+03  0.7546771E-02  0.1033737E+00
         -1   -1    0    0    0  501 -0.00000000000E+00  0.00000000000E+00  0.55965309973E+03  0.55965309973E+03  0.00000000000E+00 0.  1.
         21   -1    0    0  501  502  0.00000000000E+00 -0.00000000000E+00 -0.26682802845E+03  0.26682802845E+03  0.00000000000E+00 0.  1.
         24    2    1    2    0    0 -0.22039923769E+02 -0.10063433487E+03  0.35291274066E+02  0.13376779250E+03  0.77687326438E+02 0.  0.
         23    2    1    2    0    0  0.11660061341E+03 -0.13985495533E+03 -0.11887545796E+03  0.23613831435E+03  0.92058771556E+02 0.  0.
        -11    1    3    3    0    0 -0.50323859000E+02 -0.62608337816E+02  0.12909594906E+02  0.81356944322E+02  0.00000000000E+00 0.  1.
         12    1    3    3    0    0  0.28283935231E+02 -0.38025997058E+02  0.22381679160E+02  0.52410848175E+02  0.00000000000E+00 0. -1.
        -11    1    4    4    0    0  0.17403414085E+02 -0.88137361884E+02 -0.35421961173E+02  0.96570123304E+02  0.00000000000E+00 0. -1.
         11    1    4    4    0    0  0.99197199320E+02 -0.51717593447E+02 -0.83453496786E+02  0.13956819104E+03  0.00000000000E+00 0.  1.
         -2    1    1    2    0  502 -0.94560689636E+02  0.24048929021E+03  0.37640925518E+03  0.45657502134E+03  0.00000000000E+00 0.  1.
<scales pt_clust_5="13000.00000" pt_clust_6="13000.00000" pt_clust_7="13000.00000" pt_clust_8="13000.00000" pt_clust_9="13000.00000"></scales>
<clustering>
<clus scale="   77.687">  5  6 -1 -1</clus>
<clus scale="   92.059">  7  8 -1 -1</clus>
<clus scale="  129.029">  1  5  2 -1</clus>
<clus scale="  190.148">  7  9 -1 -1</clus>
<clus scale="  643.062">  2  5  1 -1</clus>
</clustering>
</event>
<event>
 9    2  0.4178938E-005  0.6108823E+03  0.7546771E-02  0.9907865E-01
          2   -1    0    0  502    0 -0.00000000000E+00  0.00000000000E+00  0.15971043603E+04  0.15971043603E+04  0.00000000000E+00 0. -1.
         21   -1    0    0  501  502  0.00000000000E+00 -0.00000000000E+00 -0.27454819125E+03  0.27454819125E+03  0.00000000000E+00 0. -1.
         24    2    1    2    0    0  0.85943022080E+02 -0.55212302746E+03  0.10721111193E+04  0.12114254184E+04  0.76832620590E+02 0.  0.
         23    2    1    2    0    0 -0.91152799776E+02  0.14571478790E+03  0.13589695803E+03  0.23795226506E+03  0.92799056699E+02 0.  0.
        -11    1    3    3    0    0 -0.13533961872E+02 -0.93698821614E+02  0.19425855402E+03  0.21609956757E+03  0.00000000000E+00 0.  1.
         12    1    3    3    0    0  0.99476983952E+02 -0.45842420584E+03  0.87785256531E+03  0.99532585080E+03  0.00000000000E+00 0. -1.
        -11    1    4    4    0    0 -0.48457064992E+02  0.10308480687E+02  0.15822024797E+02  0.52006618717E+02  0.00000000000E+00 0. -1.
         11    1    4    4    0    0 -0.42695734784E+02  0.13540630721E+03  0.12007493323E+03  0.18594564634E+03  0.00000000000E+00 0.  1.
          1    1    1    2  501    0  0.52097776964E+01  0.40640823956E+03  0.11454809172E+03  0.42227486816E+03  0.00000000000E+00 0. -1.
<scales pt_clust_5="13000.00000" pt_clust_6="13000.00000" pt_clust_7="13000.00000" pt_clust_8="13000.00000" pt_clust_9="13000.00000"></scales>
<clustering>
<clus scale="   76.833">  5  6 -1 -1</clus>
<clus scale="   92.799">  7  8 -1 -1</clus>
<clus scale="  406.442">  7  9 -1 -1</clus>
<clus scale="  564.030">  1  5  2 -1</clus>
<clus scale="  610.882">  2  5  1 -1</clus>
</clustering>
</event>
<event>
 9    2  0.4178938E-005  0.2244782E+03  0.7546771E-02  0.1170215E+00
          2   -1    0    0  502    0 -0.00000000000E+00  0.00000000000E+00  0.69595356339E+03  0.69595356339E+03  0.00000000000E+00 0. -1.
         21   -1    0    0  501  502  0.00000000000E+00 -0.00000000000E+00 -0.39403978554E+02  0.39403978554E+02  0.00000000000E+00 0.  1.
         24    2    1    2    0    0  0.30000642502E+02 -0.54686492105E+01  0.31209310363E+03  0.32421192935E+03  0.82348801562E+02 0.  0.
         23    2    1    2    0    0  0.73513589231E+02 -0.17486006191E+01  0.14038466069E+03  0.18220764547E+03  0.89913668063E+02 0.  0.
        -13    1    3    3    0    0 -0.79393272584E+01  0.23392389788E+02  0.33796567574E+02  0.41862212043E+02  0.00000000000E+00 0.  1.
         14    1    3    3    0    0  0.37939969760E+02 -0.28861038999E+02  0.27829653606E+03  0.28234971730E+03  0.00000000000E+00 0. -1.
        -11    1    4    4    0    0  0.35790278577E+02 -0.44342077082E+02  0.52307660058E+02  0.77351503808E+02  0.00000000000E+00 0. -1.
         11    1    4    4    0    0  0.37723310654E+02  0.42593476463E+02  0.88077000627E+02  0.10485614166E+03  0.00000000000E+00 0.  1.
          1    1    1    2  501    0 -0.10351423173E+03  0.72172498296E+01  0.20407182051E+03  0.22893796713E+03  0.00000000000E+00 0. -1.
<scales pt_clust_5="13000.00000" pt_clust_6="13000.00000" pt_clust_7="13000.00000" pt_clust_8="13000.00000" pt_clust_9="13000.00000"></scales>
<clustering>
<clus scale="   82.349">  5  6 -1 -1</clus>
<clus scale="   87.814">  1  5  2 -1</clus>
<clus scale="   89.914">  7  8 -1 -1</clus>
<clus scale="   86.418">  7  9 -1 -1</clus>
<clus scale="  224.478">  2  5  1 -1</clus>
</clustering>
</event>
<event>
 9    2  0.6051942E-005  0.3092824E+03  0.7546771E-02  0.1097587E+00
         21   -1    0    0  501  502  0.00000000000E+00  0.00000000000E+00  0.82742745820E+02  0.82742745820E+02  0.00000000000E+00 0. -1.
          2   -1    0    0  502    0 -0.00000000000E+00 -0.00000000000E+00 -0.77677892912E+03  0.77677892912E+03  0.00000000000E+00 0. -1.
         24    2    1    2    0    0 -0.18053344753E+03  0.17103286404E+02 -0.26524597470E+03  0.33082832211E+03  0.78785173313E+02 0.  0.
         23    2    1    2    0    0 -0.20999048994E+02  0.69393016053E+01 -0.83170424160E+02  0.12788613160E+03  0.94596137527E+02 0.  0.
        -11    1    3    3    0    0 -0.19724246290E+02 -0.14999251941E+02 -0.85263588999E+01  0.26205385831E+02  0.00000000000E+00 0.  1.
         12    1    3    3    0    0 -0.16080920124E+03  0.32102538345E+02 -0.25671961580E+03  0.30462293628E+03  0.00000000000E+00 0. -1.
        -13    1    4    4    0    0  0.68760064074E+01  0.30541160088E+02  0.56840825112E+01  0.31817459321E+02  0.00000000000E+00 0. -1.
         13    1    4    4    0    0 -0.27875055401E+02 -0.23601858483E+02 -0.88854506671E+02  0.96068672278E+02  0.00000000000E+00 0.  1.
          1    1    1    2  501    0  0.20153249652E+03 -0.24042588010E+02 -0.34561978445E+03  0.40080722123E+03  0.00000000000E+00 0. -1.
<scales pt_clust_5="13000.00000" pt_clust_6="13000.00000" pt_clust_7="13000.00000" pt_clust_8="13000.00000" pt_clust_9="13000.00000"></scales>
<clustering>
<clus scale="   78.785">  5  6 -1 -1</clus>
<clus scale="   94.596">  7  8 -1 -1</clus>
<clus scale="  197.717">  2  5  1 -1</clus>
<clus scale="   61.730">  7  9 -1 -1</clus>
<clus scale="  309.282">  1  5  2 -1</clus>
</clustering>
</event>
<event>
 9    2  0.4178938E-005  0.5419362E+03  0.7546771E-02  0.1028248E+00
          2   -1    0    0  502    0 -0.00000000000E+00  0.00000000000E+00  0.10453643880E+04  0.10453643880E+04  0.00000000000E+00 0. -1.
         21   -1    0    0  501  502  0.00000000000E+00 -0.00000000000E+00 -0.33341703009E+03  0.33341703009E+03  0.00000000000E+00 0.  1.
         24    2    1    2    0    0  0.12115926584E+03 -0.20773849900E+03  0.79140303643E+03  0.83105151772E+03  0.80579199330E+02 0.  0.
         23    2    1    2    0    0 -0.20535905523E+03  0.25190806113E+03  0.93824993668E+02  0.35007680508E+03  0.90114522630E+02 0.  0.
        -13    1    3    3    0    0  0.21454226709E+02  0.16305372552E+01  0.58183173850E+02  0.62034056894E+02  0.00000000000E+00 0.  1.
         14    1    3    3    0    0  0.99705039133E+02 -0.20936903625E+03  0.73321986258E+03  0.76901746082E+03  0.00000000000E+00 0. -1.
        -13    1    4    4    0    0 -0.20789685935E+03  0.21075714265E+03  0.82203232913E+02  0.30724102722E+03  0.00000000000E+00 0.  1.
         13    1    4    4    0    0  0.25378041223E+01  0.41150918478E+02  0.11621760755E+02  0.42835777854E+02  0.00000000000E+00 0. -1.
          1    1    1    2  501    0  0.84199789389E+02 -0.44169562128E+02 -0.17328067215E+03  0.19765309533E+03  0.00000000000E+00 0. -1.
<scales pt_clust_5="13000.00000" pt_clust_6="13000.00000" pt_clust_7="13000.00000" pt_clust_8="13000.00000" pt_clust_9="13000.00000"></scales>
<clustering>
<clus scale="   80.579">  5  6 -1 -1</clus>
<clus scale="   90.115">  7  8 -1 -1</clus>
<clus scale="   95.082">  7  9 -1 -1</clus>
<clus scale="  253.629">  1  5  2 -1</clus>
<clus scale="  541.936">  2  5  1 -1</clus>
</clustering>
</event>
<event>
 9    2  0.4178938E-005  0.4328100E+03  0.7546771E-02  0.1089171E+00
          2   -1    0    0  502    0 -0.00000000000E+00  0.00000000000E+00  0.13629712011E+04  0.13629712011E+04  0.00000000000E+00 0. -1.
         21   -1    0    0  501  502  0.00000000000E+00 -0.00000000000E+00 -0.50198291105E+02  0.50198291105E+02  0.00000000000E+00 0. -1.
         24    2    1    2    0    0  0.40878663432E+02 -0.85501487950E+01  0.24554665376E+03  0.26152008885E+03  0.79720935327E+02 0.  0.
         23    2    1    2    0    0 -0.45825042731E+02 -0.19679936726E+03  0.46168294095E+03  0.51221559357E+03  0.91562824534E+02 0.  0.
        -13    1    3    3    0    0  0.50597186234E+02  0.23156428020E+02  0.17356559632E+03  0.18226714361E+03  0.00000000000E+00 0.  1.
         14    1    3    3    0    0 -0.97185228022E+01 -0.31706576815E+02  0.71981057441E+02  0.79252945239E+02  0.00000000000E+00 0. -1.
        -11    1    4    4    0    0 -0.44710651659E+02 -0.27695100076E+02  0.10192786626E+03  0.11469677790E+03  0.00000000000E+00 0.  1.
         11    1    4    4    0    0 -0.11143910716E+01 -0.16910426718E+03  0.35975507469E+03  0.39751881567E+03  0.00000000000E+00 0. -1.
          1    1    1    2  501    0  0.49463792991E+01  0.20534951606E+03  0.60554331526E+03  0.63943380977E+03  0.00000000000E+00 0. -1.
<scales pt_clust_5="13000.00000" pt_clust_6="13000.00000" pt_clust_7="13000.00000" pt_clust_8="13000.00000" pt_clust_9="13000.00000"></scales>
<clustering>
<clus scale="   79.721">  5  6 -1 -1</clus>
<clus scale="   89.998">  1  5  2 -1</clus>
<clus scale="   91.563">  7  8 -1 -1</clus>
<clus scale="  202.481">  7  9 -1 -1</clus>
<clus scale="  432.810">  2  5  1 -1</clus>
</clustering>
</event>
<event>
 9    2  0.4178938E-005  0.2284527E+03  0.7546771E-02  0.1168966E+00
         -1   -1    0    0    0  501 -0.00000000000E+00  0.00000000000E+00  0.19306169749E+03  0.19306169749E+03  0.00000000000E+00 0.  1.
         21   -1    0    0  501  502  0.00000000000E+00 -0.00000000000E+00 -0.13203725788E+03  0.13203725788E+03  0.00000000000E+00 0.  1.
         24    2    1    2    0    0  0.32967603704E+02 -0.92118536513E+00 -0.88921721068E+01  0.86186885649E+02  0.79128989988E+02 0.  0.
         23    2    1    2    0    0  0.35998111250E+02 -0.70975605576E+02  0.11632803663E+02  0.12348927878E+03  0.93706345854E+02 0.  0.
        -11    1    3    3    0    0 -0.16887400932E+02  0.19921718595E+02 -0.17544278975E+02  0.31462055031E+02  0.00000000000E+00 0.  1.
         12    1    3    3    0    0  0.49855004636E+02 -0.20842903961E+02  0.86521068686E+01  0.54724830617E+02  0.00000000000E+00 0. -1.
        -13    1    4    4    0    0  0.18767865952E+02 -0.92759082285E+02  0.13760265721E+02  0.95633807053E+02  0.00000000000E+00 0.  1.
         13    1    4    4    0    0  0.17230245298E+02  0.21783476709E+02 -0.21274620581E+01  0.27855471731E+02  0.00000000000E+00 0. -1.
         -2    1    1    2    0  502 -0.68965714955E+02  0.71896790941E+02  0.58283808051E+02  0.11542279094E+03  0.00000000000E+00 0.  1.
<scales pt_clust_5="13000.00000" pt_clust_6="13000.00000" pt_clust_7="13000.00000" pt_clust_8="13000.00000" pt_clust_9="13000.00000"></scales>
<clustering>
<clus scale="   79.129">  5  6 -1 -1</clus>
<clus scale="   85.727">  1  5  2 -1</clus>
<clus scale="   93.706">  7  8 -1 -1</clus>
<clus scale="   87.392">  7  9 -1 -1</clus>
<clus scale="  228.453">  2  5  1 -1</clus>
</clustering>
</event>
<event>
 9    2  0.4178938E-005  0.2855584E+03  0.7546771E-02  0.1137638E+00
         21   -1    0    0  501  502  0.00000000000E+00  0.00000000000E+00  0.32124195859E+02  0.32124195859E+02  0.00000000000E+00 0. -1.
          2   -1    0    0  502    0 -0.00000000000E+00 -0.00000000000E+00 -0.11560422655E+04  0.11560422655E+04  0.00000000000E+00 0. -1.
         24    2    1    2    0    0 -0.39534560531E+02  0.19384342245E+02 -0.18106821762E+03  0.20302209069E+03  0.80582477474E+02 0.  0.
         23    2    1    2    0    0 -0.78806490560E+02  0.57031898131E+02 -0.32776169760E+03  0.35413130909E+03  0.92293842204E+02 0.  0.
        -13    1    3    3    0    0  0.24794129034E+02  0.89831885383E+01 -0.45078382800E+02  0.52225540750E+02  0.00000000000E+00 0.  1.
         14    1    3    3    0    0 -0.64328689565E+02  0.10401153707E+02 -0.13598983482E+03  0.15079654994E+03  0.00000000000E+00 0. -1.
        -11    1    4    4    0    0 -0.93864949117E+02  0.29957301405E+02 -0.28326505141E+03  0.29991191696E+03  0.00000000000E+00 0.  1.
         11    1    4    4    0    0  0.15058458558E+02  0.27074596726E+02 -0.44496646186E+02  0.54219392138E+02  0.00000000000E+00 0. -1.
          1    1    1    2  501    0  0.11834105109E+03 -0.76416240376E+02 -0.61508815441E+03  0.63101306156E+03  0.00000000000E+00 0. -1.
<scales pt_clust_5="13000.00000" pt_clust_6="13000.00000" pt_clust_7="13000.00000" pt_clust_8="13000.00000" pt_clust_9="13000.00000"></scales>
<clustering>
<clus scale="   80.582">  5  6 -1 -1</clus>
<clus scale="   91.827">  2  5  1 -1</clus>
<clus scale="   92.294">  7  8 -1 -1</clus>
<clus scale="  112.656">  7  9 -1 -1</clus>
<clus scale="  285.558">  1  5  2 -1</clus>
</clustering>
</event>
<event>
 9    2  0.4178938E-005  0.1815599E+03  0.7546771E-02  0.1200255E+00
          2   -1    0    0  502    0 -0.00000000000E+00  0.00000000000E+00  0.17464012463E+03  0.17464012463E+03  0.00000000000E+00 0. -1.
         21   -1    0    0  501  502  0.00000000000E+00 -0.00000000000E+00 -0.10996224975E+03  0.10996224975E+03  0.00000000000E+00 0.  1.
         24    2    1    2    0    0 -0.82294670246E+01 -0.29668423090E+02 -0.15045778233E+02  0.86310056193E+02  0.79215597588E+02 0.  0.
         23    2    1    2    0    0 -0.19328307012E+02 -0.79460991198E+01  0.10902927032E+03  0.14321870934E+03  0.90484766539E+02 0.  0.
        -13    1    3    3    0    0 -0.40682096589E+02 -0.11178456105E+02  0.72541486742E+01  0.42809035690E+02  0.00000000000E+00 0.  1.
         14    1    3    3    0    0  0.32452629564E+02 -0.18489966985E+02 -0.22299926907E+02  0.43501020502E+02  0.00000000000E+00 0. -1.
        -11    1    4    4    0    0 -0.41745241195E+02 -0.35988051088E+02  0.51657135597E+02  0.75539821562E+02  0.00000000000E+00 0.  1.
         11    1    4    4    0    0  0.22416934183E+02  0.28041951968E+02  0.57372134720E+02  0.67678887776E+02  0.00000000000E+00 0. -1.
          1    1    1    2  501    0  0.27557774037E+02  0.37614522209E+02 -0.29305617206E+02  0.55073608841E+02  0.00000000000E+00 0. -1.
<scales pt_clust_5="13000.00000" pt_clust_6="13000.00000" pt_clust_7="13000.00000" pt_clust_8="13000.00000" pt_clust_9="13000.00000"></scales>
<clustering>
<clus scale="   79.216">  5  6 -1 -1</clus>
<clus scale="   84.989">  1  5  2 -1</clus>
<clus scale="   90.485">  7  8 -1 -1</clus>
<clus scale="   43.972">  7  9 -1 -1</clus>
<clus scale="  181.560">  2  5  1 -1</clus>
</clustering>
</event>
<event>
 9    2  0.4178938E-005  0.2776826E+03  0.7546771E-02  0.1127224E+00
         21   -1    0    0  501  502  0.00000000000E+00  0.00000000000E+00  0.82816363207E+02  0.82816363207E+02  0.00000000000E+00 0. -1.
          2   -1    0    0  502    0 -0.00000000000E+00 -0.00000000000E+00 -0.11310468771E+04  0.11310468771E+04  0.00000000000E+00 0. -1.
         24    2    1    2    0    0 -0.46370781097E+02 -0.88013280855E+02 -0.87960894854E+03  0.88899272235E+03  0.81850907686E+02 0.  0.
         23    2    1    2    0    0 -0.16792143257E+02  0.30789199899E+01 -0.19427977189E+03  0.21595888303E+03  0.92747795503E+02 0.  0.
        -11    1    3    3    0    0  0.21590183451E+02 -0.10170854821E+02 -0.11653088638E+03  0.11894969437E+03  0.00000000000E+00 0.  1.
         12    1    3    3    0    0 -0.67960964548E+02 -0.77842426034E+02 -0.76307806216E+03  0.77004302798E+03  0.00000000000E+00 0. -1.
        -13    1    4    4    0    0 -0.20291824858E+02  0.40246693569E+02 -0.15643771157E+03  0.16280144993E+03  0.00000000000E+00 0.  1.
         13    1    4    4    0    0  0.34996816012E+01 -0.37167773579E+02 -0.37842060320E+02  0.53157433097E+02  0.00000000000E+00 0. -1.
          1    1    1    2  501    0  0.63162924354E+02  0.84934360865E+02  0.25658206507E+02  0.10891163496E+03  0.00000000000E+00 0. -1.
<scales pt_clust_5="13000.00000" pt_clust_6="13000.00000" pt_clust_7="13000.00000" pt_clust_8="13000.00000" pt_clust_9="13000.00000"></scales>
<clustering>
<clus scale="   81.851">  5  6 -1 -1</clus>
<clus scale="   92.748">  7  8 -1 -1</clus>
<clus scale="  105.846">  7  9 -1 -1</clus>
<clus scale="  128.826">  2  5  1 -1</clus>
<clus scale="  277.683">  1  5  2 -1</clus>
</clustering>
</event>
<event>
 9    2  0.4178938E-005  0.4343534E+03  0.7546771E-02  0.1080315E+00
          2   -1    0    0  502    0 -0.00000000000E+00  0.00000000000E+00  0.11894041449E+04  0.11894041449E+04  0.00000000000E+00 0. -1.
         21   -1    0    0  501  502  0.00000000000E+00 -0.00000000000E+00 -0.64247141137E+02  0.64247141137E+02  0.00000000000E+00 0. -1.
         24    2    1    2    0    0 -0.63218070318E+02 -0.46311175017E+02  0.16557973677E+03  0.20034628722E+03  0.81121737086E+02 0.  0.
         23    2    1    2    0    0  0.17156505577E+03  0.18729822662E+02  0.18003251710E+03  0.26578368651E+03  0.91890620761E+02 0.  0.
        -11    1    3    3    0    0 -0.30536892486E+02 -0.60189452088E+02  0.65078712110E+02  0.93757723496E+02  0.00000000000E+00 0.  1.
         12    1    3    3    0    0 -0.32681177832E+02  0.13878277071E+02  0.10050102466E+03  0.10658856372E+03  0.00000000000E+00 0. -1.
        -13    1    4    4    0    0  0.14223865015E+03  0.55760841038E+01  0.18482425578E+03  0.23328723033E+03  0.00000000000E+00 0.  1.
         13    1    4    4    0    0  0.29326405614E+02  0.13153738559E+02 -0.47917386833E+01  0.32496456175E+02  0.00000000000E+00 0. -1.
          1    1    1    2  501    0 -0.10834698545E+03  0.27581352354E+02  0.77954474987E+03  0.78752131229E+03  0.00000000000E+00 0. -1.
<scales pt_clust_5="13000.00000" pt_clust_6="13000.00000" pt_clust_7="13000.00000" pt_clust_8="13000.00000" pt_clust_9="13000.00000"></scales>
<clustering>
<clus scale="   81.122">  5  6 -1 -1</clus>
<clus scale="   91.891">  7  8 -1 -1</clus>
<clus scale="  111.803">  7  9 -1 -1</clus>
<clus scale="  112.792">  1  5  2 -1</clus>
<clus scale="  434.353">  2  5  1 -1</clus>
</clustering>
</event>
<event>
 9    2  0.4178938E-005  0.3263454E+03  0.7546771E-02  0.1127895E+00
          2   -1    0    0  502    0 -0.00000000000E+00  0.00000000000E+00  0.10864646868E+04  0.10864646868E+04  0.00000000000E+00 0. -1.
         21   -1    0    0  501  502  0.00000000000E+00 -0.00000000000E+00 -0.38388013143E+02  0.38388013143E+02  0.00000000000E+00 0. -1.
         24    2    1    2    0    0 -0.16882999770E+02 -0.14349997686E+02  0.14596437357E+03  0.16552590387E+03  0.74848302504E+02 0.  0.
         23    2    1    2    0    0 -0.89210091121E+02 -0.86072510519E+02  0.26999632826E+03  0.31055023520E+03  0.90424078017E+02 0.  0.
        -13    1    3    3    0    0  0.21374013839E+01 -0.41412001608E+02  0.10488458110E+03  0.11278429729E+03  0.00000000000E+00 0.  1.
         14    1    3    3    0    0 -0.19020401154E+02  0.27062003922E+02  0.41079792467E+02  0.52741606588E+02  0.00000000000E+00 0. -1.
        -11    1    4    4    0    0 -0.63417352148E+02 -0.89674244143E+02  0.26071032300E+03  0.28290122505E+03  0.00000000000E+00 0. -1.
         11    1    4    4    0    0 -0.25792738973E+02  0.36017336234E+01  0.92860052642E+01  0.27649010156E+02  0.00000000000E+00 0.  1.
          1    1    1    2  501    0  0.10609309089E+03  0.10042250821E+03  0.63211597187E+03  0.64877656091E+03  0.00000000000E+00 0. -1.
<scales pt_clust_5="13000.00000" pt_clust_6="13000.00000" pt_clust_7="13000.00000" pt_clust_8="13000.00000" pt_clust_9="13000.00000"></scales>
<clustering>
<clus scale="   74.848">  5  6 -1 -1</clus>
<clus scale="   78.059">  1  5  2 -1</clus>
<clus scale="   90.424">  7  8 -1 -1</clus>
<clus scale="  130.861">  7  9 -1 -1</clus>
<clus scale="  326.345">  2  5  1 -1</clus>
</clustering>
</event>
<event>
 9    2  0.4178938E-005  0.4503336E+03  0.7546771E-02  0.1057089E+00
          2   -1    0    0  502    0 -0.00000000000E+00  0.00000000000E+00  0.60642494724E+03  0.60642494724E+03  0.00000000000E+00 0. -1.
         21   -1    0    0  501  502  0.00000000000E+00 -0.00000000000E+00 -0.17283637115E+03  0.17283637115E+03  0.00000000000E+00 0. -1.
         24    2    1    2    0    0  0.66269637234E+01 -0.17447804637E+03  0.17682075391E+03  0.26086948057E+03  0.79377588570E+02 0.  0.
         23    2    1    2    0    0  0.93065155741E+02 -0.94330921483E+02  0.75179220471E+02  0.17902301168E+03  0.94009986495E+02 0.  0.
        -11    1    3    3    0    0  0.11860221122E+02 -0.26154594394E+02  0.76541815395E+02  0.81751924485E+02  0.00000000000E+00 0.  1.
         12    1    3    3    0    0 -0.52332573988E+01 -0.14832345197E+03  0.10027893851E+03  0.17911755608E+03  0.00000000000E+00 0. -1.
        -11    1    4    4    0    0  0.33213203780E+02 -0.57178061748E+02  0.85220220947E+02  0.10786534990E+03  0.00000000000E+00 0.  1.
         11    1    4    4    0    0  0.59851951961E+02 -0.37152859735E+02 -0.10041000476E+02  0.71157661784E+02  0.00000000000E+00 0. -1.
          1    1    1    2  501    0 -0.99692119464E+02  0.26880896785E+03  0.18158860171E+03  0.33936882613E+03  0.00000000000E+00 0. -1.
<scales pt_clust_5="13000.00000" pt_clust_6="13000.00000" pt_clust_7="13000.00000" pt_clust_8="13000.00000" pt_clust_9="13000.00000"></scales>
<clustering>
<clus scale="   79.378">  5  6 -1 -1</clus>
<clus scale="   94.010">  7  8 -1 -1</clus>
<clus scale="  191.800">  1  5  2 -1</clus>
<clus scale="  178.990">  7  9 -1 -1</clus>
<clus scale="  450.334">  2  5  1 -1</clus>
</clustering>
</event>
<event>
 9    2  0.4178938E-005  0.1889010E+03  0.7546771E-02  0.1188175E+00
          2   -1    0    0  502    0 -0.00000000000E+00  0.00000000000E+00  0.14606697820E+03  0.14606697820E+03  0.00000000000E+00 0. -1.
         21   -1    0    0  501  502  0.00000000000E+00 -0.00000000000E+00 -0.42559731611E+03  0.42559731611E+03  0.00000000000E+00 0. -1.
         24    2    1    2    0    0  0.56209270075E+02  0.40368854637E+00  0.10461228711E+03  0.14358818047E+03  0.80710531827E+02 0.  0.
         23    2    1    2    0    0  0.67822476726E+01 -0.51976762522E+02 -0.25198733881E+03  0.27285777426E+03  0.90587876262E+02 0.  0.
        -11    1    3    3    0    0 -0.80312427985E+00 -0.31150549653E+02  0.48223513119E+02  0.57415232907E+02  0.00000000000E+00 0.  1.
         12    1    3    3    0    0  0.57012394355E+02  0.31554238199E+02  0.56388773996E+02  0.86172947561E+02  0.00000000000E+00 0. -1.
        -11    1    4    4    0    0 -0.33958518405E+02 -0.62891646889E+01 -0.43347384081E+02  0.55423192541E+02  0.00000000000E+00 0.  1.
         11    1    4    4    0    0  0.40740766078E+02 -0.45687597833E+02 -0.20863995473E+03  0.21743458172E+03  0.00000000000E+00 0. -1.
          1    1    1    2  501    0 -0.62991517748E+02  0.51573073975E+02 -0.13215528621E+03  0.15521833958E+03  0.00000000000E+00 0. -1.
<scales pt_clust_5="13000.00000" pt_clust_6="13000.00000" pt_clust_7="13000.00000" pt_clust_8="13000.00000" pt_clust_9="13000.00000"></scales>
<clustering>
<clus scale="   80.711">  5  6 -1 -1</clus>
<clus scale="   90.588">  7  8 -1 -1</clus>
<clus scale="   81.411">  7  9 -1 -1</clus>
<clus scale="   98.356">  1  5  2 -1</clus>
<clus scale="  188.901">  2  5  1 -1</clus>
</clustering>
</event>
<event>
 9    2  0.4178938E-005  0.3351331E+03  0.7546771E-02  0.1122736E+00
         21   -1    0    0  501  502  0.00000000000E+00  0.00000000000E+00  0.16111607550E+03  0.16111607550E+03  0.00000000000E+00 0. -1.
          2   -1    0    0  502    0 -0.00000000000E+00 -0.00000000000E+00 -0.41187288983E+03  0.41187288983E+03  0.00000000000E+00 0. -1.
         24    2    1    2    0    0  0.16614966325E+02  0.12251804753E+02 -0.22199772932E+03  0.23662413216E+03  0.79257960306E+02 0.  0.
         23    2    1    2    0    0  0.14123522453E+03 -0.24726830631E+02 -0.46384805577E+02  0.17704447963E+03  0.92921433367E+02 0.  0.
        -11    1    3    3    0    0  0.41906448744E+02  0.11969159113E+02 -0.19424756320E+03  0.19907668630E+03  0.00000000000E+00 0.  1.
         12    1    3    3    0    0 -0.25291482419E+02  0.28264563922E+00 -0.27750166122E+02  0.37547445869E+02  0.00000000000E+00 0. -1.
        -13    1    4    4    0    0  0.60326390151E+02  0.34297088704E+02 -0.29835170730E+02  0.75536091074E+02  0.00000000000E+00 0.  1.
         13    1    4    4    0    0  0.80908834381E+02 -0.59023919335E+02 -0.16549634847E+02  0.10150838856E+03  0.00000000000E+00 0. -1.
          1    1    1    2  501    0 -0.15785019086E+03  0.12475025878E+02  0.17625720570E+02  0.15932035353E+03  0.00000000000E+00 0. -1.
<scales pt_clust_5="13000.00000" pt_clust_6="13000.00000" pt_clust_7="13000.00000" pt_clust_8="13000.00000" pt_clust_9="13000.00000"></scales>
<clustering>
<clus scale="   79.258">  5  6 -1 -1</clus>
<clus scale="   81.902">  2  5  1 -1</clus>
<clus scale="   92.921">  7  8 -1 -1</clus>
<clus scale="  152.380">  7  9 -1 -1</clus>
<clus scale="  335.133">  1  5  2 -1</clus>
</clustering>
</event>
<event>
 9    2  0.4178938E-005  0.4170080E+03  0.7546771E-02  0.1064627E+00
          4   -1    0    0  502    0 -0.00000000000E+00  0.00000000000E+00  0.36096258356E+03  0.36096258356E+03  0.00000000000E+00 0. -1.
         21   -1    0    0  501  502  0.00000000000E+00 -0.00000000000E+00 -0.26036034816E+03  0.26036034816E+03  0.00000000000E+00 0. -1.
         24    2    1    2    0    0  0.15748603280E+03  0.84439750350E+02  0.43054366818E+02  0.20036278068E+03  0.79747372456E+02 0.  0.
         23    2    1    2    0    0 -0.19299325633E+03  0.41845741042E+02 -0.80344660469E+02  0.23063637999E+03  0.87979612835E+02 0.  0.
        -11    1    3    3    0    0  0.12389160816E+03  0.77275036426E+02  0.64757118197E+02  0.15973116848E+03  0.00000000000E+00 0.  1.
         12    1    3    3    0    0  0.33594424637E+02  0.71647139238E+01 -0.21702751379E+02  0.40631612197E+02  0.00000000000E+00 0. -1.
        -13    1    4    4    0    0 -0.91408898240E+02  0.49189175042E+02 -0.76078366933E+02  0.12869762832E+03  0.00000000000E+00 0.  1.
         13    1    4    4    0    0 -0.10158435809E+03 -0.73434340005E+01 -0.42662935363E+01  0.10193875167E+03  0.00000000000E+00 0. -1.
          3    1    1    2  501    0  0.35507223535E+02 -0.12628549139E+03  0.13789252905E+03  0.19032377105E+03  0.00000000000E+00 0. -1.
<scales pt_clust_5="13000.00000" pt_clust_6="13000.00000" pt_clust_7="13000.00000" pt_clust_8="13000.00000" pt_clust_9="13000.00000"></scales>
<clustering>
<clus scale="   79.747">  5  6 -1 -1</clus>
<clus scale="   87.980">  7  8 -1 -1</clus>
<clus scale="  131.182">  7  9 -1 -1</clus>
<clus scale="  195.682">  1  5  2 -1</clus>
<clus scale="  417.008">  2  5  1 -1</clus>
</clustering>
</event>
<event>
 9    2  0.4178938E-005  0.2575353E+03  0.7546771E-02  0.1151151E+00
         21   -1    0    0  501  502  0.00000000000E+00  0.00000000000E+00  0.54284908289E+02  0.54284908289E+02  0.00000000000E+00 0. -1.
          2   -1    0    0  502    0 -0.00000000000E+00 -0.00000000000E+00 -0.66434967733E+03  0.66434967733E+03  0.00000000000E+00 0. -1.
         24    2    1    2    0    0 -0.18682103151E+02 -0.39593154625E+02 -0.31119142907E+03  0.32410993630E+03  0.79312712793E+02 0.  0.
         23    2    1    2    0    0 -0.69689503756E+02 -0.52627711864E+02 -0.18347738145E+03  0.22238965472E+03  0.90370935776E+02 0.  0.
        -13    1    3    3    0    0 -0.45936015914E+02 -0.46574846107E+01 -0.16687684069E+03  0.17314643998E+03  0.00000000000E+00 0.  1.
         14    1    3    3    0    0  0.27253912763E+02 -0.34935670015E+02 -0.14431458838E+03  0.15096349631E+03  0.00000000000E+00 0. -1.
        -11    1    4    4    0    0 -0.56331261278E+02  0.12669812549E+02 -0.69493681375E+02  0.90349913660E+02  0.00000000000E+00 0.  1.
         11    1    4    4    0    0 -0.13358242477E+02 -0.65297524413E+02 -0.11398370007E+03  0.13203974106E+03  0.00000000000E+00 0. -1.
          1    1    1    2  501    0  0.88371606907E+02  0.92220866489E+02 -0.11539595853E+03  0.17213499461E+03  0.00000000000E+00 0. -1.
<scales pt_clust_5="13000.00000" pt_clust_6="13000.00000" pt_clust_7="13000.00000" pt_clust_8="13000.00000" pt_clust_9="13000.00000"></scales>
<clustering>
<clus scale="   79.313">  5  6 -1 -1</clus>
<clus scale="   90.371">  7  8 -1 -1</clus>
<clus scale="   90.593">  2  5  1 -1</clus>
<clus scale="  110.664">  7  9 -1 -1</clus>
<clus scale="  257.535">  1  5  2 -1</clus>
</clustering>
</event>
<event>
 9    2  0.4178938E-005  0.5508565E+03  0.7546771E-02  0.1041691E+00
         21   -1    0    0  501  502  0.00000000000E+00  0.00000000000E+00  0.87544746763E+02  0.87544746763E+02  0.00000000000E+00 0. -1.
          2   -1    0    0  502    0 -0.00000000000E+00 -0.00000000000E+00 -0.14646606020E+04  0.14646606020E+04  0.00000000000E+00 0. -1.
         24    2    1    2    0    0  0.13803375256E+03 -0.33614598507E+02 -0.37238411386E+03  0.40637433931E+03  0.79290083384E+02 0.  0.
         23    2    1    2    0    0  0.10632454756E+03 -0.15846034946E+03 -0.59475209631E+03  0.63135353292E+03  0.91992585031E+02 0.  0.
        -13    1    3    3    0    0  0.94443922262E+02 -0.12114036704E+02 -0.14233851624E+03  0.17125027750E+03  0.00000000000E+00 0.  1.
         14    1    3    3    0    0  0.43589830296E+02 -0.21500561803E+02 -0.23004559761E+03  0.23512406182E+03  0.00000000000E+00 0. -1.
        -13    1    4    4    0    0  0.36960111472E+02 -0.10128399078E+03 -0.43382610556E+03  0.44702302681E+03  0.00000000000E+00 0.  1.
         13    1    4    4    0    0  0.69364436088E+02 -0.57176358678E+02 -0.16092599075E+03  0.18433050611E+03  0.00000000000E+00 0. -1.
          1    1    1    2  501    0 -0.24435830012E+03  0.19207494796E+03 -0.40997964502E+03  0.51447747648E+03  0.00000000000E+00 0. -1.
<scales pt_clust_5="13000.00000" pt_clust_6="13000.00000" pt_clust_7="13000.00000" pt_clust_8="13000.00000" pt_clust_9="13000.00000"></scales>
<clustering>
<clus scale="   79.290">  5  6 -1 -1</clus>
<clus scale="   91.993">  7  8 -1 -1</clus>
<clus scale="  162.697">  2  5  1 -1</clus>
<clus scale="  256.484">  7  9 -1 -1</clus>
<clus scale="  550.856">  1  5  2 -1</clus>
</clustering>
</event>
<event>
 9    2  0.4178938E-005  0.3227601E+03  0.7546771E-02  0.1122945E+00
         21   -1    0    0  501  502  0.00000000000E+00  0.00000000000E+00  0.74793206042E+02  0.74793206042E+02  0.00000000000E+00 0. -1.
          2   -1    0    0  502    0 -0.00000000000E+00 -0.00000000000E+00 -0.82353000393E+03  0.82353000393E+03  0.00000000000E+00 0. -1.
         24    2    1    2    0    0 -0.24929057720E+02 -0.35103931300E+02 -0.95090184047E+01  0.91705720402E+02  0.80410035518E+02 0.  0.
         23    2    1    2    0    0  0.36483186893E+02 -0.11133792017E+03 -0.53606954962E+03  0.55591451766E+03  0.89124819907E+02 0.  0.
        -11    1    3    3    0    0 -0.35669328489E+01 -0.23010331789E+02 -0.43758147266E+02  0.49567870957E+02  0.00000000000E+00 0.  1.
         12    1    3    3    0    0 -0.21362124871E+02 -0.12093599511E+02  0.34249128862E+02  0.42137849446E+02  0.00000000000E+00 0. -1.
        -11    1    4    4    0    0  0.15797276257E+01 -0.76067014928E+02 -0.45147058252E+03  0.45783662281E+03  0.00000000000E+00 0. -1.
         11    1    4    4    0    0  0.34903459267E+02 -0.35270905239E+02 -0.84598967100E+02  0.98077894857E+02  0.00000000000E+00 0.  1.
          1    1    1    2  501    0 -0.11554129173E+02  0.14644185147E+03 -0.20315822986E+03  0.25070297191E+03  0.00000000000E+00 0. -1.
<scales pt_clust_5="13000.00000" pt_clust_6="13000.00000" pt_clust_7="13000.00000" pt_clust_8="13000.00000" pt_clust_9="13000.00000"></scales>
<clustering>
<clus scale="   80.410">  5  6 -1 -1</clus>
<clus scale="   89.125">  7  8 -1 -1</clus>
<clus scale="   91.211">  2  5  1 -1</clus>
<clus scale="  137.437">  7  9 -1 -1</clus>
<clus scale="  322.760">  1  5  2 -1</clus>
</clustering>
</event>
<event>
 9    2  0.4178938E-005  0.2063556E+03  0.7546771E-02  0.1173398E+00
          2   -1    0    0  502    0 -0.00000000000E+00  0.00000000000E+00  0.10729575841E+04  0.10729575841E+04  0.00000000000E+00 0. -1.
         21   -1    0    0  501  502  0.00000000000E+00 -0.00000000000E+00 -0.32889470953E+02  0.32889470953E+02  0.00000000000E+00 0.  1.
         24    2    1    2    0    0  0.67778771443E+02 -0.29537866210E+01  0.70161022217E+03  0.70944275915E+03  0.80308392723E+02 0.  0.
         23    2    1    2    0    0 -0.95280776696E+02 -0.72882748784E+01  0.34207514739E+03  0.36683497637E+03  0.91765723845E+02 0.  0.
        -13    1    3    3    0    0  0.13284484702E+02 -0.20022119795E+02  0.51503649758E+02  0.56832990008E+02  0.00000000000E+00 0.  1.
         14    1    3    3    0    0  0.54494286741E+02  0.17068333174E+02  0.65010657241E+03  0.65260976914E+03  0.00000000000E+00 0. -1.
        -13    1    4    4    0    0  0.45011298498E+01 -0.26029453558E+02  0.11662478070E+03  0.11957897848E+03  0.00000000000E+00 0. -1.
         13    1    4    4    0    0 -0.99781906546E+02  0.18741178679E+02  0.22545036669E+03  0.24725599789E+03  0.00000000000E+00 0.  1.
          1    1    1    2  501    0  0.27502005253E+02  0.10242061499E+02 -0.36172563623E+01  0.29569319578E+02  0.00000000000E+00 0. -1.
<scales pt_clust_5="13000.00000" pt_clust_6="13000.00000" pt_clust_7="13000.00000" pt_clust_8="13000.00000" pt_clust_9="13000.00000"></scales>
<clustering>
<clus scale="   80.308">  5  6 -1 -1</clus>
<clus scale="   91.766">  7  8 -1 -1</clus>
<clus scale="   29.347">  7  9 -1 -1</clus>
<clus scale="  105.129">  1  5  2 -1</clus>
<clus scale="  206.356">  2  5  1 -1</clus>
</clustering>
</event>
<event>
 9    2  0.4178938E-005  0.3010504E+03  0.7546771E-02  0.1126419E+00
         21   -1    0    0  501  502  0.00000000000E+00  0.00000000000E+00  0.21443605323E+03  0.21443605323E+03  0.00000000000E+00 0.  1.
         -1   -1    0    0    0  501 -0.00000000000E+00 -0.00000000000E+00 -0.19077152248E+03  0.19077152248E+03  0.00000000000E+00 0.  1.
         24    2    1    2    0    0 -0.34327309275E+01 -0.62002316365E+02 -0.12046750549E+01  0.10313170647E+03  0.82332416225E+02 0.  0.
         23    2    1    2    0    0  0.10963062739E+02  0.21005590548E+02 -0.12053521177E+03  0.15081489584E+03  0.87492696566E+02 0.  0.
        -13    1    3    3    0    0  0.11499889442E+02 -0.79220442636E+02 -0.41082211788E+01  0.80156119353E+02  0.00000000000E+00 0.  1.
         14    1    3    3    0    0 -0.14932620369E+02  0.17218126270E+02  0.29035461240E+01  0.22975587118E+02  0.00000000000E+00 0. -1.
        -11    1    4    4    0    0  0.21501689182E+02 -0.54466125547E+01  0.44537632642E+01  0.22623532730E+02  0.00000000000E+00 0.  1.
         11    1    4    4    0    0 -0.10538626443E+02  0.26452203103E+02 -0.12498897503E+03  0.12819136311E+03  0.00000000000E+00 0. -1.
         -2    1    1    2    0  502 -0.75303318113E+01  0.40996725818E+02  0.14540441757E+03  0.15126097340E+03  0.00000000000E+00 0.  1.
<scales pt_clust_5="13000.00000" pt_clust_6="13000.00000" pt_clust_7="13000.00000" pt_clust_8="13000.00000" pt_clust_9="13000.00000"></scales>
<clustering>
<clus scale="   82.332">  5  6 -1 -1</clus>
<clus scale="   87.493">  7  8 -1 -1</clus>
<clus scale="   41.683">  7  9 -1 -1</clus>
<clus scale="  103.125">  2  5  1 -1</clus>
<clus scale="  301.050">  1  5  2 -1</clus>
</clustering>
</event>
<event>
 9    2  0.4178938E-005  0.1989272E+03  0.7546771E-02  0.1188406E+00
          2   -1    0    0  502    0 -0.00000000000E+00  0.00000000000E+00  0.21247387435E+02  0.21247387435E+02  0.00000000000E+00 0. -1.
         21   -1    0    0  501  502  0.00000000000E+00 -0.00000000000E+00 -0.94481964802E+03  0.94481964802E+03  0.00000000000E+00 0. -1.
         24    2    1    2    0    0  0.21621448903E+02  0.15692106216E+02 -0.24462417191E+03  0.25857673758E+03  0.79417973301E+02 0.  0.
         23    2    1    2    0    0  0.59745543328E+02  0.67663904137E+01 -0.46427155090E+03  0.47681522907E+03  0.90495169575E+02 0.  0.
        -13    1    3    3    0    0 -0.19318471960E+02 -0.15320050811E+02 -0.35394386836E+02  0.43135483482E+02  0.00000000000E+00 0.  1.
         14    1    3    3    0    0  0.40939920864E+02  0.31012157028E+02 -0.20922978508E+03  0.21544125410E+03  0.00000000000E+00 0. -1.
        -11    1    4    4    0    0  0.72667568136E+02 -0.21358729399E+02 -0.36714173638E+03  0.37487307902E+03  0.00000000000E+00 0.  1.
         11    1    4    4    0    0 -0.12922024808E+02  0.28125119813E+02 -0.97129814518E+02  0.10194215006E+03  0.00000000000E+00 0. -1.
          1    1    1    2  501    0 -0.81366992232E+02 -0.22458496630E+02 -0.21467653777E+03  0.23067506880E+03  0.00000000000E+00 0. -1.
<scales pt_clust_5="13000.00000" pt_clust_6="13000.00000" pt_clust_7="13000.00000" pt_clust_8="13000.00000" pt_clust_9="13000.00000"></scales>
<clustering>
<clus scale="   79.418">  5  6 -1 -1</clus>
<clus scale="   83.791">  1  5  2 -1</clus>
<clus scale="   90.495">  7  8 -1 -1</clus>
<clus scale="   70.583">  7  9 -1 -1</clus>
<clus scale="  198.927">  2  5  1 -1</clus>
</clustering>
</event>
<event>
 9    2  0.4178938E-005  0.1819645E+03  0.7546771E-02  0.1200041E+00
          2   -1    0    0  502    0 -0.00000000000E+00  0.00000000000E+00  0.53800328269E+03  0.53800328269E+03  0.00000000000E+00 0. -1.
         21   -1    0    0  501  502  0.00000000000E+00 -0.00000000000E+00 -0.42666636222E+02  0.42666636222E+02  0.00000000000E+00 0.  1.
         24    2    1    2    0    0 -0.36122269461E+02 -0.33879148013E+01  0.30816994503E+03  0.31962884871E+03  0.76665439332E+02 0.  0.
         23    2    1    2    0    0  0.66693463463E+01 -0.55629696505E-01  0.21705058745E+02  0.92943218104E+02  0.90126849168E+02 0.  0.
        -13    1    3    3    0    0 -0.10752269653E+02 -0.38987326202E+02  0.12831211577E+03  0.13453483549E+03  0.00000000000E+00 0.  1.
         14    1    3    3    0    0 -0.25369999809E+02  0.35599411400E+02  0.17985782927E+03  0.18509401322E+03  0.00000000000E+00 0. -1.
        -13    1    4    4    0    0  0.69147447118E+01 -0.27850866296E+02 -0.25351109929E+02  0.38290510867E+02  0.00000000000E+00 0.  1.
         13    1    4    4    0    0 -0.24539836553E+00  0.27795236600E+02  0.47056168674E+02  0.54652707236E+02  0.00000000000E+00 0. -1.
          1    1    1    2  501    0  0.29452923115E+02  0.34435444978E+01  0.16546164268E+03  0.16809785209E+03  0.00000000000E+00 0. -1.
<scales pt_clust_5="13000.00000" pt_clust_6="13000.00000" pt_clust_7="13000.00000" pt_clust_8="13000.00000" pt_clust_9="13000.00000"></scales>
<clustering>
<clus scale="   76.665">  5  6 -1 -1</clus>
<clus scale="   84.817">  1  5  2 -1</clus>
<clus scale="   90.127">  7  8 -1 -1</clus>
<clus scale="    2.731">  7  9 -1 -1</clus>
<clus scale="  181.964">  2  5  1 -1</clus>
</clustering>
</event>
<event>
 9    2  0.4178938E-005  0.2954836E+03  0.7546771E-02  0.1136356E+00
          2   -1    0    0  502    0 -0.00000000000E+00  0.00000000000E+00  0.61275495927E+03  0.61275495927E+03  0.00000000000E+00 0. -1.
         21   -1    0    0  501  502  0.00000000000E+00 -0.00000000000E+00 -0.65284948172E+02  0.65284948172E+02  0.00000000000E+00 0. -1.
         24    2    1    2    0    0 -0.21724922116E+02 -0.21355327229E+02  0.48922331248E+02  0.98505321927E+02  0.79886680437E+02 0.  0.
         23    2    1    2    0    0 -0.12203221229E+02 -0.11494957522E+03  0.30089368644E+03  0.33705315023E+03  0.98516455950E+02 0.  0.
        -13    1    3    3    0    0  0.15922876323E+02  0.22473922929E+02  0.18786973557E+02  0.33340149635E+02  0.00000000000E+00 0.  1.
         14    1    3    3    0    0 -0.37647798439E+02 -0.43829250158E+02  0.30135357690E+02  0.65165172292E+02  0.00000000000E+00 0. -1.
        -13    1    4    4    0    0  0.94062894210E+01 -0.12246044895E+03  0.28125330886E+03  0.30690139065E+03  0.00000000000E+00 0. -1.
         13    1    4    4    0    0 -0.21609510650E+02  0.75108737266E+01  0.19640377574E+02  0.30151759583E+02  0.00000000000E+00 0.  1.
          1    1    1    2  501    0  0.33928143345E+02  0.13630490245E+03  0.19765399341E+03  0.24248143528E+03  0.00000000000E+00 0. -1.
<scales pt_clust_5="13000.00000" pt_clust_6="13000.00000" pt_clust_7="13000.00000" pt_clust_8="13000.00000" pt_clust_9="13000.00000"></scales>
<clustering>
<clus scale="   79.887">  5  6 -1 -1</clus>
<clus scale="   85.498">  1  5  2 -1</clus>
<clus scale="   98.516">  7  8 -1 -1</clus>
<clus scale="  130.024">  7  9 -1 -1</clus>
<clus scale="  295.484">  2  5  1 -1</clus>
</clustering>
</event>
<event>
 9    2  0.4178938E-005  0.1434188E+03  0.7546771E-02  0.1221145E+00
          2   -1    0    0  502    0 -0.00000000000E+00  0.00000000000E+00  0.12171371358E+04  0.12171371358E+04  0.00000000000E+00 0. -1.
         21   -1    0    0  501  502  0.00000000000E+00 -0.00000000000E+00 -0.60898140186E+02  0.60898140186E+02  0.00000000000E+00 0.  1.
         24    2    1    2    0    0 -0.57894677397E+02  0.46182528313E+02  0.11260775495E+04  0.11314792587E+04  0.81914869537E+02 0.  0.
         23    2    1    2    0    0  0.54232282771E+02 -0.15411210569E+02  0.90820586604E+01  0.10907765409E+03  0.92934411963E+02 0.  0.
        -11    1    3    3    0    0 -0.15169542600E+02  0.34434550499E+02  0.15917917994E+03  0.16356608639E+03  0.00000000000E+00 0.  1.
         12    1    3    3    0    0 -0.42725134797E+02  0.11747977814E+02  0.96689836958E+03  0.96791317235E+03  0.00000000000E+00 0. -1.
        -11    1    4    4    0    0 -0.11635359748E+02  0.22865264355E+02  0.19448644183E+02  0.32193969483E+02  0.00000000000E+00 0. -1.
         11    1    4    4    0    0  0.65867642519E+02 -0.38276474924E+02 -0.10366585522E+02  0.76883684609E+02  0.00000000000E+00 0.  1.
          1    1    1    2  501    0  0.36623946262E+01 -0.30771317744E+02  0.21079387451E+02  0.37478363164E+02  0.00000000000E+00 0. -1.
<scales pt_clust_5="13000.00000" pt_clust_6="13000.00000" pt_clust_7="13000.00000" pt_clust_8="13000.00000" pt_clust_9="13000.00000"></scales>
<clustering>
<clus scale="   81.915">  5  6 -1 -1</clus>
<clus scale="   92.934">  7  8 -1 -1</clus>
<clus scale="   30.989">  7  9 -1 -1</clus>
<clus scale="  110.429">  1  5  2 -1</clus>
<clus scale="  143.419">  2  5  1 -1</clus>
</clustering>
</event>
<event>
 9    2  0.4178938E-005  0.2804055E+03  0.7546771E-02  0.1143227E+00
         21   -1    0    0  501  502  0.00000000000E+00  0.00000000000E+00  0.87513472616E+02  0.87513472616E+02  0.00000000000E+00 0. -1.
          2   -1    0    0  502    0 -0.00000000000E+00 -0.00000000000E+00 -0.39071965483E+03  0.39071965483E+03  0.00000000000E+00 0. -1.
         24    2    1    2    0    0  0.80921594818E+01  0.23777898492E+02 -0.40290378233E+02  0.93847923378E+02  0.80952125620E+02 0.  0.
         23    2    1    2    0    0  0.11762835873E+03 -0.25527147261E+02 -0.11451154851E+03  0.18987933882E+03  0.91941299454E+02 0.  0.
        -13    1    3    3    0    0  0.26909887866E+02  0.46764805456E+02 -0.18620798114E+02  0.57077344163E+02  0.00000000000E+00 0.  1.
         14    1    3    3    0    0 -0.18817728384E+02 -0.22986906964E+02 -0.21669580119E+02  0.36770579215E+02  0.00000000000E+00 0. -1.
        -11    1    4    4    0    0  0.63550103947E+02  0.72874668832E+01 -0.59618827475E+01  0.64243808505E+02  0.00000000000E+00 0. -1.
         11    1    4    4    0    0  0.54078254786E+02 -0.32814614144E+02 -0.10854966576E+03  0.12563553032E+03  0.00000000000E+00 0.  1.
          1    1    1    2  501    0 -0.12572051821E+03  0.17492487685E+01 -0.14840425547E+03  0.19450586524E+03  0.00000000000E+00 0. -1.
<scales pt_clust_5="13000.00000" pt_clust_6="13000.00000" pt_clust_7="13000.00000" pt_clust_8="13000.00000" pt_clust_9="13000.00000"></scales>
<clustering>
<clus scale="   80.952">  5  6 -1 -1</clus>
<clus scale="   84.759">  2  5  1 -1</clus>
<clus scale="   91.941">  7  8 -1 -1</clus>
<clus scale="  122.278">  7  9 -1 -1</clus>
<clus scale="  280.406">  1  5  2 -1</clus>
</clustering>
</event>
<event>
 9    2  0.4178938E-005  0.2038324E+03  0.7546771E-02  0.1184703E+00
         -1   -1    0    0    0  501 -0.00000000000E+00  0.00000000000E+00  0.50439099613E+02  0.50439099613E+02  0.00000000000E+00 0.  1.
         21   -1    0    0  501  502  0.00000000000E+00 -0.00000000000E+00 -0.49145533069E+03  0.49145533069E+03  0.00000000000E+00 0.  1.
         24    2    1    2    0    0 -0.24808657325E+01 -0.28255515577E+02 -0.43345029799E+02  0.95027534267E+02  0.79667507839E+02 0.  0.
         23    2    1    2    0    0 -0.20075307294E+02  0.69120624877E+02 -0.37443205543E+03  0.39472482090E+03  0.10211582323E+03 0.  0.
        -13    1    3    3    0    0  0.33722397527E+02 -0.17606790455E+02 -0.42832486038E+02  0.57287180288E+02  0.00000000000E+00 0.  1.
         14    1    3    3    0    0 -0.36203263260E+02 -0.10648725122E+02 -0.51254376144E+00  0.37740353979E+02  0.00000000000E+00 0. -1.
        -11    1    4    4    0    0 -0.43072402544E+02 -0.62915227923E+01 -0.97235986403E+02  0.10653474631E+03  0.00000000000E+00 0. -1.
         11    1    4    4    0    0  0.22997095250E+02  0.75412147669E+02 -0.27719606903E+03  0.28819007459E+03  0.00000000000E+00 0.  1.
         -2    1    1    2    0  502  0.22556173027E+02 -0.40865109301E+02 -0.23239145845E+02  0.52142075135E+02  0.00000000000E+00 0.  1.
<scales pt_clust_5="13000.00000" pt_clust_6="13000.00000" pt_clust_7="13000.00000" pt_clust_8="13000.00000" pt_clust_9="13000.00000"></scales>
<clustering>
<clus scale="   79.668">  5  6 -1 -1</clus>
<clus scale="   84.566">  1  5  2 -1</clus>
<clus scale="  102.116">  7  8 -1 -1</clus>
<clus scale="   61.216">  7  9 -1 -1</clus>
<clus scale="  203.832">  2  5  1 -1</clus>
</clustering>
</event>
<event>
 9    2  0.4178938E-005  0.1642077E+03  0.7546771E-02  0.1206332E+00
         21   -1    0    0  501  502  0.00000000000E+00  0.00000000000E+00  0.57269419121E+02  0.57269419121E+02  0.00000000000E+00 0.  1.
         -1   -1    0    0    0  501 -0.00000000000E+00 -0.00000000000E+00 -0.50205844779E+03  0.50205844779E+03  0.00000000000E+00 0.  1.
         24    2    1    2    0    0  0.36153046118E+02 -0.49044267126E+02 -0.18402264923E+02  0.10241449760E+03  0.80235298241E+02 0.  0.
         23    2    1    2    0    0  0.27044734511E+02  0.28777990842E+02 -0.26434483385E+03  0.28180692032E+03  0.89316060911E+02 0.  0.
        -13    1    3    3    0    0  0.43978698773E+02 -0.54584602352E+02  0.11480593021E+02  0.71031040931E+02  0.00000000000E+00 0.  1.
         14    1    3    3    0    0 -0.78256526552E+01  0.55403352255E+01 -0.29882857944E+02  0.31383456673E+02  0.00000000000E+00 0. -1.
        -11    1    4    4    0    0  0.57119299766E+02  0.34731932058E+02 -0.18830847633E+03  0.19982243059E+03  0.00000000000E+00 0.  1.
         11    1    4    4    0    0 -0.30074565256E+02 -0.59539412161E+01 -0.76036357527E+02  0.81984489736E+02  0.00000000000E+00 0. -1.
         -2    1    1    2    0  502 -0.63197780629E+02  0.20266276285E+02 -0.16204192989E+03  0.17510644898E+03  0.00000000000E+00 0.  1.
<scales pt_clust_5="13000.00000" pt_clust_6="13000.00000" pt_clust_7="13000.00000" pt_clust_8="13000.00000" pt_clust_9="13000.00000"></scales>
<clustering>
<clus scale="   80.235">  5  6 -1 -1</clus>
<clus scale="   89.316">  7  8 -1 -1</clus>
<clus scale="   66.368">  7  9 -1 -1</clus>
<clus scale="  100.748">  2  5  1 -1</clus>
<clus scale="  164.208">  1  5  2 -1</clus>
</clustering>
</event>
<event>
 9    2  0.4178938E-005  0.1976437E+03  0.7546771E-02  0.1175476E+00
         21   -1    0    0  501  502  0.00000000000E+00  0.00000000000E+00  0.40979977880E+02  0.40979977880E+02  0.00000000000E+00 0. -1.
          2   -1    0    0  502    0 -0.00000000000E+00 -0.00000000000E+00 -0.61720974979E+03  0.61720974979E+03  0.00000000000E+00 0. -1.
         24    2    1    2    0    0 -0.58752995926E+02 -0.54246874457E+02 -0.15111191972E+03  0.18937397733E+03  0.81443557683E+02 0.  0.
         23    2    1    2    0    0 -0.26693197791E+02 -0.89226964542E+01 -0.24742842240E+03  0.26177715450E+03  0.80711294667E+02 0.  0.
        -11    1    3    3    0    0 -0.12697001641E+02 -0.57930524867E+02 -0.11945335452E+03  0.13336515087E+03  0.00000000000E+00 0.  1.
         12    1    3    3    0    0 -0.46055994285E+02  0.36836504097E+01 -0.31658565204E+02  0.56008826454E+02  0.00000000000E+00 0. -1.
        -11    1    4    4    0    0  0.18672165567E+02  0.18607589529E+02 -0.13375178279E+03  0.13632472833E+03  0.00000000000E+00 0.  1.
         11    1    4    4    0    0 -0.45365363358E+02 -0.27530285983E+02 -0.11367663961E+03  0.12545242617E+03  0.00000000000E+00 0. -1.
          1    1    1    2  501    0  0.85446193717E+02  0.63169570911E+02 -0.17768942979E+03  0.20703859584E+03  0.00000000000E+00 0. -1.
<scales pt_clust_5="13000.00000" pt_clust_6="13000.00000" pt_clust_7="13000.00000" pt_clust_8="13000.00000" pt_clust_9="13000.00000"></scales>
<clustering>
<clus scale="   80.711">  7  8 -1 -1</clus>
<clus scale="   81.444">  5  6 -1 -1</clus>
<clus scale="  106.261">  7  9 -1 -1</clus>
<clus scale="  114.139">  2  5  1 -1</clus>
<clus scale="  197.644">  1  5  2 -1</clus>
</clustering>
</event>
<event>
 9    2  0.4178938E-005  0.1693166E+03  0.7546771E-02  0.1208704E+00
         21   -1    0    0  501  502  0.00000000000E+00  0.00000000000E+00  0.73863010417E+02  0.73863010417E+02  0.00000000000E+00 0. -1.
          2   -1    0    0  502    0 -0.00000000000E+00 -0.00000000000E+00 -0.22443087572E+03  0.22443087572E+03  0.00000000000E+00 0. -1.
         24    2    1    2    0    0  0.98503709392E+01 -0.33511719878E+02 -0.62837465910E+02  0.10759847785E+03  0.80055106877E+02 0.  0.
         23    2    1    2    0    0 -0.42887308945E+02 -0.88248698487E+00 -0.99083209816E+02  0.14167207666E+03  0.91724559345E+02 0.  0.
        -13    1    3    3    0    0  0.19843218884E+02 -0.33093212946E+02 -0.79383385752E+02  0.88264579601E+02  0.00000000000E+00 0.  1.
         14    1    3    3    0    0 -0.99928479451E+01 -0.41850693189E+00  0.16545919842E+02  0.19333898250E+02  0.00000000000E+00 0. -1.
        -11    1    4    4    0    0 -0.24025590855E+02  0.14729595031E+02  0.99784044090E+01  0.29895794692E+02  0.00000000000E+00 0.  1.
         11    1    4    4    0    0 -0.18861718090E+02 -0.15612082016E+02 -0.10906161423E+03  0.11177628197E+03  0.00000000000E+00 0. -1.
          1    1    1    2  501    0  0.33036938006E+02  0.34394206863E+02  0.11352810426E+02  0.49023331620E+02  0.00000000000E+00 0. -1.
<scales pt_clust_5="13000.00000" pt_clust_6="13000.00000" pt_clust_7="13000.00000" pt_clust_8="13000.00000" pt_clust_9="13000.00000"></scales>
<clustering>
<clus scale="   80.055">  5  6 -1 -1</clus>
<clus scale="   87.343">  2  5  1 -1</clus>
<clus scale="   91.725">  7  8 -1 -1</clus>
<clus scale="   45.529">  7  9 -1 -1</clus>
<clus scale="  169.317">  1  5  2 -1</clus>
</clustering>
</event>
<event>
 9    2  0.4178938E-005  0.2555601E+03  0.7546771E-02  0.1134820E+00
         21   -1    0    0  501  502  0.00000000000E+00  0.00000000000E+00  0.70706871808E+02  0.70706871808E+02  0.00000000000E+00 0. -1.
          2   -1    0    0  502    0 -0.00000000000E+00 -0.00000000000E+00 -0.76283810284E+03  0.76283810284E+03  0.00000000000E+00 0. -1.
         24    2    1    2    0    0 -0.14531252203E+02 -0.11096432484E+03 -0.48666842151E+03  0.50563351489E+03  0.79340155058E+02 0.  0.
         23    2    1    2    0    0  0.23191755233E+02 -0.85554806416E+01 -0.18273159003E+03  0.20594139559E+03  0.91705892194E+02 0.  0.
        -11    1    3    3    0    0  0.25203866348E+02 -0.11643535616E+02 -0.66537274714E+02  0.72097265738E+02  0.00000000000E+00 0.  1.
         12    1    3    3    0    0 -0.39735118552E+02 -0.99320789221E+02 -0.42013114680E+03  0.43353624915E+03  0.00000000000E+00 0. -1.
        -11    1    4    4    0    0  0.15766635986E+02 -0.49197305113E+02 -0.12201774009E+03  0.13250392649E+03  0.00000000000E+00 0. -1.
         11    1    4    4    0    0  0.74251192463E+01  0.40641824472E+02 -0.60713849945E+02  0.73437469097E+02  0.00000000000E+00 0.  1.
          1    1    1    2  501    0 -0.86605030291E+01  0.11951980548E+03 -0.22731219492E+02  0.12197006417E+03  0.00000000000E+00 0. -1.
<scales pt_clust_5="13000.00000" pt_clust_6="13000.00000" pt_clust_7="13000.00000" pt_clust_8="13000.00000" pt_clust_9="13000.00000"></scales>
<clustering>
<clus scale="   79.340">  5  6 -1 -1</clus>
<clus scale="   91.706">  7  8 -1 -1</clus>
<clus scale="  119.833">  7  9 -1 -1</clus>
<clus scale="  137.183">  2  5  1 -1</clus>
<clus scale="  255.560">  1  5  2 -1</clus>
</clustering>
</event>
<event>
 9    2  0.4178938E-005  0.3121314E+03  0.7546771E-02  0.1119059E+00
         -1   -1    0    0    0  501 -0.00000000000E+00  0.00000000000E+00  0.32009731384E+03  0.32009731384E+03  0.00000000000E+00 0.  1.
         21   -1    0    0  501  502  0.00000000000E+00 -0.00000000000E+00 -0.14183239941E+03  0.14183239941E+03  0.00000000000E+00 0.  1.
         24    2    1    2    0    0 -0.74061465468E+02  0.17194066775E+02  0.71056436883E+02  0.13189989992E+03  0.81042148144E+02 0.  0.
         23    2    1    2    0    0 -0.74071698268E+02  0.73224876981E+02  0.49714079317E+02  0.14720578478E+03  0.91375895603E+02 0.  0.
        -13    1    3    3    0    0 -0.50765433308E+02  0.49463944564E+02  0.39763099664E+02  0.81270628924E+02  0.00000000000E+00 0.  1.
         14    1    3    3    0    0 -0.23296032160E+02 -0.32269877789E+02  0.31293337219E+02  0.50629270992E+02  0.00000000000E+00 0. -1.
        -13    1    4    4    0    0 -0.15723473662E+01  0.57675844614E+02  0.44518929728E+02  0.72875993526E+02  0.00000000000E+00 0. -1.
         13    1    4    4    0    0 -0.72499350902E+02  0.15549032367E+02  0.51951495893E+01  0.74329791255E+02  0.00000000000E+00 0.  1.
         -2    1    1    2    0  502  0.14813316374E+03 -0.90418943756E+02  0.57494398229E+02  0.18282402855E+03  0.00000000000E+00 0.  1.
<scales pt_clust_5="13000.00000" pt_clust_6="13000.00000" pt_clust_7="13000.00000" pt_clust_8="13000.00000" pt_clust_9="13000.00000"></scales>
<clustering>
<clus scale="   81.042">  5  6 -1 -1</clus>
<clus scale="   91.376">  7  8 -1 -1</clus>
<clus scale="  111.124">  1  5  2 -1</clus>
<clus scale="  134.523">  7  9 -1 -1</clus>
<clus scale="  312.131">  2  5  1 -1</clus>
</clustering>
</event>
<event>
 9    2  0.4178938E-005  0.3937143E+03  0.7546771E-02  0.1096049E+00
         21   -1    0    0  501  502  0.00000000000E+00  0.00000000000E+00  0.38117920692E+03  0.38117920692E+03  0.00000000000E+00 0.  1.
          2   -1    0    0  502    0 -0.00000000000E+00 -0.00000000000E+00 -0.16149455606E+03  0.16149455606E+03  0.00000000000E+00 0. -1.
         24    2    1    2    0    0 -0.35534572017E+02 -0.47755411259E+02  0.22215776483E+02  0.10221385478E+03  0.80067760496E+02 0.  0.
         23    2    1    2    0    0  0.63926438633E+01  0.13296065705E+03  0.27704750182E+03  0.32028526931E+03  0.90044062859E+02 0.  0.
        -11    1    3    3    0    0 -0.18895210882E+02  0.21431629762E+02  0.50781029959E+01  0.29019491356E+02  0.00000000000E+00 0.  1.
         12    1    3    3    0    0 -0.16639361135E+02 -0.69187041020E+02  0.17137673487E+02  0.73194363422E+02  0.00000000000E+00 0. -1.
        -13    1    4    4    0    0  0.31949691852E+02  0.83178927156E+02  0.96869993969E+02  0.13161805523E+03  0.00000000000E+00 0. -1.
         13    1    4    4    0    0 -0.25557047988E+02  0.49781729894E+02  0.18017750785E+03  0.18866721408E+03  0.00000000000E+00 0.  1.
          1    1    1    2  501    0  0.29141928154E+02 -0.85205245792E+02 -0.79578627446E+02  0.12017463889E+03  0.00000000000E+00 0. -1.
<scales pt_clust_5="13000.00000" pt_clust_6="13000.00000" pt_clust_7="13000.00000" pt_clust_8="13000.00000" pt_clust_9="13000.00000"></scales>
<clustering>
<clus scale="   80.068">  5  6 -1 -1</clus>
<clus scale="   90.044">  7  8 -1 -1</clus>
<clus scale="   90.051">  7  9 -1 -1</clus>
<clus scale="   99.770">  2  5  1 -1</clus>
<clus scale="  393.714">  1  5  2 -1</clus>
</clustering>
</event>
<event>
 9    2  0.4178938E-005  0.2203084E+03  0.7546771E-02  0.1165265E+00
         21   -1    0    0  501  502  0.00000000000E+00  0.00000000000E+00  0.43221003459E+03  0.43221003459E+03  0.00000000000E+00 0.  1.
         -3   -1    0    0    0  501 -0.00000000000E+00 -0.00000000000E+00 -0.61308770670E+02  0.61308770670E+02  0.00000000000E+00 0.  1.
         24    2    1    2    0    0  0.27098468155E+02  0.62662362627E+02  0.99886485779E+02  0.14425560928E+03  0.78558717546E+02 0.  0.
         23    2    1    2    0    0  0.14603190815E+02 -0.74784404518E+02  0.28151081018E+03  0.30458502514E+03  0.87850674148E+02 0.  0.
        -11    1    3    3    0    0  0.45479884843E+02  0.69045387668E+02  0.68696266386E+02  0.10749354631E+03  0.00000000000E+00 0.  1.
         12    1    3    3    0    0 -0.18381416688E+02 -0.63830250409E+01  0.31190219394E+02  0.36762062972E+02  0.00000000000E+00 0. -1.
        -13    1    4    4    0    0  0.41534726686E+02 -0.70749439582E+02  0.24904720407E+03  0.26221198786E+03  0.00000000000E+00 0.  1.
         13    1    4    4    0    0 -0.26931535871E+02 -0.40349649362E+01  0.32463606108E+02  0.42373037275E+02  0.00000000000E+00 0. -1.
         -4    1    1    2    0  502 -0.41701658970E+02  0.12122041891E+02 -0.10496032043E+02  0.44678170834E+02  0.00000000000E+00 0.  1.
<scales pt_clust_5="13000.00000" pt_clust_6="13000.00000" pt_clust_7="13000.00000" pt_clust_8="13000.00000" pt_clust_9="13000.00000"></scales>
<clustering>
<clus scale="   78.559">  5  6 -1 -1</clus>
<clus scale="   87.851">  7  8 -1 -1</clus>
<clus scale="   43.428">  7  9 -1 -1</clus>
<clus scale="  104.079">  2  5  1 -1</clus>
<clus scale="  220.308">  1  5  2 -1</clus>
</clustering>
</event>
<event>
 9    2  0.4178938E-005  0.3952802E+03  0.7546771E-02  0.1075403E+00
          2   -1    0    0  502    0 -0.00000000000E+00  0.00000000000E+00  0.49015342168E+03  0.49015342168E+03  0.00000000000E+00 0. -1.
         21   -1    0    0  501  502  0.00000000000E+00 -0.00000000000E+00 -0.16497587466E+03  0.16497587466E+03  0.00000000000E+00 0. -1.
         24    2    1    2    0    0  0.15070006544E+03 -0.51065417759E+01  0.70371032576E+02  0.18483921734E+03  0.80478988246E+02 0.  0.
         23    2    1    2    0    0  0.10016105080E+03 -0.53177683326E+01  0.13478985913E+03  0.19200252371E+03  0.92930878762E+02 0.  0.
        -11    1    3    3    0    0  0.60743888607E+02  0.35169348989E+02  0.14949344203E+02  0.71764796408E+02  0.00000000000E+00 0.  1.
         12    1    3    3    0    0  0.89956176830E+02 -0.40275890765E+02  0.55421688373E+02  0.11307442093E+03  0.00000000000E+00 0. -1.
        -11    1    4    4    0    0  0.86104038881E+02 -0.26046686283E+02  0.14001003657E+03  0.16641858585E+03  0.00000000000E+00 0. -1.
         11    1    4    4    0    0  0.14057011918E+02  0.20728917951E+02 -0.52201774375E+01  0.25583937851E+02  0.00000000000E+00 0.  1.
          1    1    1    2  501    0 -0.25086111624E+03  0.10424310108E+02  0.12001665531E+03  0.27828755530E+03  0.00000000000E+00 0. -1.
<scales pt_clust_5="13000.00000" pt_clust_6="13000.00000" pt_clust_7="13000.00000" pt_clust_8="13000.00000" pt_clust_9="13000.00000"></scales>
<clustering>
<clus scale="   80.479">  5  6 -1 -1</clus>
<clus scale="   92.931">  7  8 -1 -1</clus>
<clus scale="  170.920">  1  5  2 -1</clus>
<clus scale="  168.252">  7  9 -1 -1</clus>
<clus scale="  395.280">  2  5  1 -1</clus>
</clustering>
</event>
<event>
 9    2  0.4178938E-005  0.2276021E+03  0.7546771E-02  0.1161529E+00
         -3   -1    0    0    0  501 -0.00000000000E+00  0.00000000000E+00  0.54040938509E+02  0.54040938509E+02  0.00000000000E+00 0.  1.
         21   -1    0    0  501  502  0.00000000000E+00 -0.00000000000E+00 -0.53194232086E+03  0.53194232086E+03  0.00000000000E+00 0.  1.
         24    2    1    2    0    0  0.59776042822E+02  0.78583763561E+01 -0.92402685097E+02  0.13830929292E+03  0.83404285983E+02 0.  0.
         23    2    1    2    0    0  0.11913583914E+02  0.28685326540E+02 -0.68599991773E+02  0.12071887116E+03  0.94352029875E+02 0.  0.
        -11    1    3    3    0    0  0.57247754863E+02 -0.83446202057E+01 -0.15800780780E+02  0.59971683289E+02  0.00000000000E+00 0.  1.
         12    1    3    3    0    0  0.25282879588E+01  0.16202996562E+02 -0.76601904317E+02  0.78337609630E+02  0.00000000000E+00 0. -1.
        -11    1    4    4    0    0  0.45220724882E+02  0.83525576127E+01 -0.67505898639E+02  0.81680631294E+02  0.00000000000E+00 0.  1.
         11    1    4    4    0    0 -0.33307140968E+02  0.20332768927E+02 -0.10940931340E+01  0.39038239862E+02  0.00000000000E+00 0. -1.
         -4    1    1    2    0  502 -0.71689626736E+02 -0.36543702896E+02 -0.31689870548E+03  0.32695509529E+03  0.00000000000E+00 0.  1.
<scales pt_clust_5="13000.00000" pt_clust_6="13000.00000" pt_clust_7="13000.00000" pt_clust_8="13000.00000" pt_clust_9="13000.00000"></scales>
<clustering>
<clus scale="   83.404">  5  6 -1 -1</clus>
<clus scale="   94.352">  7  8 -1 -1</clus>
<clus scale="   80.466">  7  9 -1 -1</clus>
<clus scale="  102.914">  1  5  2 -1</clus>
<clus scale="  227.602">  2  5  1 -1</clus>
</clustering>
</event>
<event>
 9    2  0.4178938E-005  0.2953061E+03  0.7546771E-02  0.1107962E+00
         21   -1    0    0  501  502  0.00000000000E+00  0.00000000000E+00  0.57805166516E+02  0.57805166516E+02  0.00000000000E+00 0.  1.
          2   -1    0    0  502    0 -0.00000000000E+00 -0.00000000000E+00 -0.95182787030E+03  0.95182787030E+03  0.00000000000E+00 0. -1.
         24    2    1    2    0    0  0.60453691313E+02 -0.14157048895E+03 -0.33859811996E+03  0.38058442738E+03  0.80616173240E+02 0.  0.
         23    2    1    2    0    0 -0.54269265835E+02  0.44805766217E+02 -0.72309598726E+02  0.13629943642E+03  0.91630499287E+02 0.  0.
        -13    1    3    3    0    0  0.46620837269E+02 -0.13868580535E+03 -0.33564509752E+03  0.36614872192E+03  0.00000000000E+00 0.  1.
         14    1    3    3    0    0  0.13832854043E+02 -0.28846835981E+01 -0.29530224331E+01  0.14435705453E+02  0.00000000000E+00 0. -1.
        -11    1    4    4    0    0 -0.70823919139E+02  0.60073135498E+02 -0.55410925985E+02  0.10814425481E+03  0.00000000000E+00 0.  1.
         11    1    4    4    0    0  0.16554653304E+02 -0.15267369281E+02 -0.16898672741E+02  0.28155181605E+02  0.00000000000E+00 0. -1.
          1    1    1    2  501    0 -0.61844254779E+01  0.96764722733E+02 -0.48311498510E+03  0.49274917302E+03  0.00000000000E+00 0. -1.
<scales pt_clust_5="13000.00000" pt_clust_6="13000.00000" pt_clust_7="13000.00000" pt_clust_8="13000.00000" pt_clust_9="13000.00000"></scales>
<clustering>
<clus scale="   80.616">  5  6 -1 -1</clus>
<clus scale="   91.630">  7  8 -1 -1</clus>
<clus scale="   96.962">  7  9 -1 -1</clus>
<clus scale="  173.769">  2  5  1 -1</clus>
<clus scale="  295.306">  1  5  2 -1</clus>
</clustering>
</event>
<event>
 9    2  0.4178938E-005  0.2959079E+03  0.7546771E-02  0.1110373E+00
          2   -1    0    0  502    0 -0.00000000000E+00  0.00000000000E+00  0.68382313058E+03  0.68382313058E+03  0.00000000000E+00 0. -1.
         21   -1    0    0  501  502  0.00000000000E+00 -0.00000000000E+00 -0.88136310466E+02  0.88136310466E+02  0.00000000000E+00 0.  1.
         24    2    1    2    0    0 -0.70741691683E+01 -0.14106894359E+03  0.89008604141E+02  0.18520197852E+03  0.80167016407E+02 0.  0.
         23    2    1    2    0    0  0.29168458538E+02 -0.16911337723E+02  0.62208861881E+02  0.11452983348E+03  0.90057470231E+02 0.  0.
        -11    1    3    3    0    0 -0.35501892960E+02 -0.12265601774E+03  0.77802941509E+02  0.14952652206E+03  0.00000000000E+00 0.  1.
         12    1    3    3    0    0  0.28427723791E+02 -0.18412925851E+02  0.11205662631E+02  0.35675456456E+02  0.00000000000E+00 0. -1.
        -13    1    4    4    0    0 -0.19492051765E+02  0.23868058799E+02  0.31274910362E+02  0.43906085352E+02  0.00000000000E+00 0.  1.
         13    1    4    4    0    0  0.48660510303E+02 -0.40779396522E+02  0.30933951519E+02  0.70623748132E+02  0.00000000000E+00 0. -1.
          1    1    1    2  501    0 -0.22094289370E+02  0.15798028131E+03  0.44446935409E+03  0.47222762905E+03  0.00000000000E+00 0. -1.
<scales pt_clust_5="13000.00000" pt_clust_6="13000.00000" pt_clust_7="13000.00000" pt_clust_8="13000.00000" pt_clust_9="13000.00000"></scales>
<clustering>
<clus scale="   80.167">  5  6 -1 -1</clus>
<clus scale="   90.057">  7  8 -1 -1</clus>
<clus scale="  159.518">  7  9 -1 -1</clus>
<clus scale="  162.411">  1  5  2 -1</clus>
<clus scale="  295.908">  2  5  1 -1</clus>
</clustering>
</event>
<event>
 9    2  0.7410909E-005  0.8360552E+03  0.7546771E-02  0.9949348E-01
          2   -1    0    0  502    0 -0.00000000000E+00  0.00000000000E+00  0.97208335918E+03  0.97208335918E+03  0.00000000000E+00 0. -1.
         21   -1    0    0  501  502  0.00000000000E+00 -0.00000000000E+00 -0.28321670969E+03  0.28321670969E+03  0.00000000000E+00 0. -1.
         24    2    1    2    0    0 -0.15718878608E+03 -0.76246100564E+02  0.39522039134E+02  0.19669880161E+03  0.81281268810E+02 0.  0.
         23    2    1    2    0    0 -0.22426480596E+03 -0.16448708152E+03  0.33581457980E+02  0.29530344356E+03  0.93411489004E+02 0.  0.
        -11    1    3    3    0    0 -0.24693548392E+02 -0.27193859567E+02 -0.21763183593E+02  0.42695590996E+02  0.00000000000E+00 0.  1.
         12    1    3    3    0    0 -0.13249523768E+03 -0.49052240997E+02  0.61285222727E+02  0.15400321062E+03  0.00000000000E+00 0. -1.
        -11    1    4    4    0    0 -0.18016932679E+03 -0.86421506168E+02  0.45265421408E+02  0.20488685028E+03  0.00000000000E+00 0.  1.
         11    1    4    4    0    0 -0.44095479179E+02 -0.78065575353E+02 -0.11683963428E+02  0.90416593282E+02  0.00000000000E+00 0. -1.
          1    1    1    2  501    0  0.38145359204E+03  0.24073318208E+03  0.61576315238E+03  0.76329782370E+03  0.00000000000E+00 0. -1.
<scales pt_clust_5="13000.00000" pt_clust_6="13000.00000" pt_clust_7="13000.00000" pt_clust_8="13000.00000" pt_clust_9="13000.00000"></scales>
<clustering>
<clus scale="   81.281">  5  6 -1 -1</clus>
<clus scale="   93.411">  7  8 -1 -1</clus>
<clus scale="  192.687">  1  5  2 -1</clus>
<clus scale="  311.270">  7  9 -1 -1</clus>
<clus scale="  836.055">  2  5  1 -1</clus>
</clustering>
</event>
<event>
 9    2  0.4178938E-005  0.4292838E+03  0.7546771E-02  0.1091953E+00
          2   -1    0    0  502    0 -0.00000000000E+00  0.00000000000E+00  0.41893979896E+03  0.41893979896E+03  0.00000000000E+00 0. -1.
         21   -1    0    0  501  502  0.00000000000E+00 -0.00000000000E+00 -0.17179404708E+03  0.17179404708E+03  0.00000000000E+00 0. -1.
         24    2    1    2    0    0  0.25544841974E+02  0.13728445592E+02  0.11129418364E+03  0.14046700078E+03  0.80644738372E+02 0.  0.
         23    2    1    2    0    0  0.34000378470E+02 -0.45134000958E+02 -0.13394059917E+03  0.17220254373E+03  0.92306707143E+02 0.  0.
        -13    1    3    3    0    0  0.48633361796E+02  0.28474792327E+02  0.88039386337E+02  0.10453205836E+03  0.00000000000E+00 0.  1.
         14    1    3    3    0    0 -0.23088519821E+02 -0.14746346736E+02  0.23254797301E+02  0.35934942425E+02  0.00000000000E+00 0. -1.
        -13    1    4    4    0    0  0.45288519794E+02 -0.68258274223E+02 -0.10916476137E+03  0.13648145350E+03  0.00000000000E+00 0. -1.
         13    1    4    4    0    0 -0.11288141324E+02  0.23124273266E+02 -0.24775837796E+02  0.35721090228E+02  0.00000000000E+00 0.  1.
          1    1    1    2  501    0 -0.59545220444E+02  0.31405555366E+02  0.26979216741E+03  0.27806430152E+03  0.00000000000E+00 0. -1.
<scales pt_clust_5="13000.00000" pt_clust_6="13000.00000" pt_clust_7="13000.00000" pt_clust_8="13000.00000" pt_clust_9="13000.00000"></scales>
<clustering>
<clus scale="   80.645">  5  6 -1 -1</clus>
<clus scale="   85.701">  1  5  2 -1</clus>
<clus scale="   92.307">  7  8 -1 -1</clus>
<clus scale="   56.826">  7  9 -1 -1</clus>
<clus scale="  429.284">  2  5  1 -1</clus>
</clustering>
</event>
<event>
 9    2  0.4178938E-005  0.3397551E+03  0.7546771E-02  0.1119006E+00
         -1   -1    0    0    0  501 -0.00000000000E+00  0.00000000000E+00  0.26296893538E+03  0.26296893538E+03  0.00000000000E+00 0.  1.
         21   -1    0    0  501  502  0.00000000000E+00 -0.00000000000E+00 -0.18203575407E+03  0.18203575407E+03  0.00000000000E+00 0.  1.
         24    2    1    2    0    0  0.23660371154E+02  0.56031700970E+01 -0.23749616708E+02  0.89488121189E+02  0.82782068481E+02 0.  0.
         23    2    1    2    0    0 -0.12050214085E+03  0.20468741759E+02 -0.59081207788E+02  0.16348343950E+03  0.91085182870E+02 0.  0.
        -13    1    3    3    0    0  0.23876497194E+02  0.42525800860E+02 -0.18649381452E+02  0.52214272815E+02  0.00000000000E+00 0.  1.
         14    1    3    3    0    0 -0.21612604033E+00 -0.36922630763E+02 -0.51002352552E+01  0.37273848374E+02  0.00000000000E+00 0. -1.
        -11    1    4    4    0    0 -0.10105254285E+03  0.11550948010E+01 -0.80090994585E+02  0.12894773388E+03  0.00000000000E+00 0.  1.
         11    1    4    4    0    0 -0.19449598006E+02  0.19313646958E+02  0.21009786797E+02  0.34535705620E+02  0.00000000000E+00 0. -1.
         -2    1    1    2    0  502  0.96841769698E+02 -0.26071911856E+02  0.16376400580E+03  0.19203312876E+03  0.00000000000E+00 0.  1.
<scales pt_clust_5="13000.00000" pt_clust_6="13000.00000" pt_clust_7="13000.00000" pt_clust_8="13000.00000" pt_clust_9="13000.00000"></scales>
<clustering>
<clus scale="   82.782">  5  6 -1 -1</clus>
<clus scale="   86.279">  1  5  2 -1</clus>
<clus scale="   91.085">  7  8 -1 -1</clus>
<clus scale="  117.169">  7  9 -1 -1</clus>
<clus scale="  339.755">  2  5  1 -1</clus>
</clustering>
</event>
<event>
 9    2  0.4178938E-005  0.1886372E+03  0.7546771E-02  0.1192403E+00
         21   -1    0    0  501  502  0.00000000000E+00  0.00000000000E+00  0.15917308194E+03  0.15917308194E+03  0.00000000000E+00 0. -1.
         -3   -1    0    0    0  501 -0.00000000000E+00 -0.00000000000E+00 -0.15510003986E+03  0.15510003986E+03  0.00000000000E+00 0.  1.
         24    2    1    2    0    0  0.30632524885E+02  0.31459145614E+02  0.70484532731E+02  0.11428688272E+03  0.78520015180E+02 0.  0.
         23    2    1    2    0    0  0.29357305575E+01  0.46949564650E+02 -0.47233706101E+02  0.11256461109E+03  0.90702197019E+02 0.  0.
        -11    1    3    3    0    0  0.29130398737E+02 -0.12735791566E+02  0.61400026655E+02  0.69142922925E+02  0.00000000000E+00 0.  1.
         12    1    3    3    0    0  0.15021261479E+01  0.44194937180E+02  0.90845060760E+01  0.45143959795E+02  0.00000000000E+00 0. -1.
        -13    1    4    4    0    0  0.43272602720E+02  0.49878414115E+01 -0.25235161489E+02  0.50340938444E+02  0.00000000000E+00 0.  1.
         13    1    4    4    0    0 -0.40336872162E+02  0.41961723239E+02 -0.21998544612E+02  0.62223672650E+02  0.00000000000E+00 0. -1.
         -4    1    1    2    0  502 -0.33568255442E+02 -0.78408710264E+02 -0.19177784550E+02  0.87421627982E+02  0.00000000000E+00 0.  1.
<scales pt_clust_5="13000.00000" pt_clust_6="13000.00000" pt_clust_7="13000.00000" pt_clust_8="13000.00000" pt_clust_9="13000.00000"></scales>
<clustering>
<clus scale="   78.520">  5  6 -1 -1</clus>
<clus scale="   89.963">  2  5  1 -1</clus>
<clus scale="   90.702">  7  8 -1 -1</clus>
<clus scale="   69.184">  7  9 -1 -1</clus>
<clus scale="  188.637">  1  5  2 -1</clus>
</clustering>
</event>
<event>
 9    2  0.4178938E-005  0.2483124E+03  0.7546771E-02  0.1152431E+00
          2   -1    0    0  502    0 -0.00000000000E+00  0.00000000000E+00  0.61513588247E+03  0.61513588247E+03  0.00000000000E+00 0. -1.
         21   -1    0    0  501  502  0.00000000000E+00 -0.00000000000E+00 -0.49089162819E+02  0.49089162819E+02  0.00000000000E+00 0. -1.
         24    2    1    2    0    0  0.30112268838E+02 -0.46359099391E+02  0.18566276513E+03  0.20996629679E+03  0.80989311635E+02 0.  0.
         23    2    1    2    0    0  0.72115338655E+02  0.31421282753E+02  0.29976508607E+03  0.32321286322E+03  0.91757991729E+02 0.  0.
        -11    1    3    3    0    0  0.30572761153E+02 -0.12243319159E+02  0.16866054043E+03  0.17184577530E+03  0.00000000000E+00 0.  1.
         12    1    3    3    0    0 -0.46049231496E+00 -0.34115780231E+02  0.17002224700E+02  0.38120521490E+02  0.00000000000E+00 0. -1.
        -13    1    4    4    0    0  0.16594453648E+02  0.18778436264E+02  0.85431480243E+01  0.26476233466E+02  0.00000000000E+00 0.  1.
         13    1    4    4    0    0  0.55520885007E+02  0.12642846489E+02  0.29122193805E+03  0.29673662976E+03  0.00000000000E+00 0. -1.
          1    1    1    2  501    0 -0.10222760749E+03  0.14937816637E+02  0.80618868454E+02  0.13104588529E+03  0.00000000000E+00 0. -1.
<scales pt_clust_5="13000.00000" pt_clust_6="13000.00000" pt_clust_7="13000.00000" pt_clust_8="13000.00000" pt_clust_9="13000.00000"></scales>
<clustering>
<clus scale="   80.989">  5  6 -1 -1</clus>
<clus scale="   91.758">  7  8 -1 -1</clus>
<clus scale="   98.057">  1  5  2 -1</clus>
<clus scale="   94.645">  7  9 -1 -1</clus>
<clus scale="  248.312">  2  5  1 -1</clus>
</clustering>
</event>
<event>
 9    2  0.4178938E-005  0.2087105E+03  0.7546771E-02  0.1176616E+00
         -1   -1    0    0    0  501 -0.00000000000E+00  0.00000000000E+00  0.24763973968E+03  0.24763973968E+03  0.00000000000E+00 0.  1.
         21   -1    0    0  501  502  0.00000000000E+00 -0.00000000000E+00 -0.97952569942E+02  0.97952569942E+02  0.00000000000E+00 0.  1.
         24    2    1    2    0    0 -0.47347495883E+02  0.10833384027E+02  0.85035228794E+02  0.12709760586E+03  0.81016440940E+02 0.  0.
         23    2    1    2    0    0 -0.43251475251E+02  0.14238593442E+02 -0.77420736368E+01  0.99845342318E+02  0.88519630725E+02 0.  0.
        -11    1    3    3    0    0 -0.89928977595E+01 -0.21144751955E+02  0.71871212471E+02  0.75454913209E+02  0.00000000000E+00 0.  1.
         12    1    3    3    0    0 -0.38354598124E+02  0.31978135982E+02  0.13164016323E+02  0.51642692648E+02  0.00000000000E+00 0. -1.
        -13    1    4    4    0    0 -0.22902877078E+02  0.22289428862E+02  0.37691247407E+02  0.49416500772E+02  0.00000000000E+00 0.  1.
         13    1    4    4    0    0 -0.20348598173E+02 -0.80508354204E+01 -0.45433321044E+02  0.50428841546E+02  0.00000000000E+00 0. -1.
         -2    1    1    2    0  502  0.90598971135E+02 -0.25071977469E+02  0.72394014581E+02  0.11864936145E+03  0.00000000000E+00 0.  1.
<scales pt_clust_5="13000.00000" pt_clust_6="13000.00000" pt_clust_7="13000.00000" pt_clust_8="13000.00000" pt_clust_9="13000.00000"></scales>
<clustering>
<clus scale="   81.016">  5  6 -1 -1</clus>
<clus scale="   88.520">  7  8 -1 -1</clus>
<clus scale="   94.004">  7  9 -1 -1</clus>
<clus scale="   94.461">  1  5  2 -1</clus>
<clus scale="  208.710">  2  5  1 -1</clus>
</clustering>
</event>
<event>
 9    2  0.4178938E-005  0.2782331E+03  0.7546771E-02  0.1142231E+00
          2   -1    0    0  502    0 -0.00000000000E+00  0.00000000000E+00  0.35346315989E+03  0.35346315989E+03  0.00000000000E+00 0. -1.
         21   -1    0    0  501  502  0.00000000000E+00 -0.00000000000E+00 -0.10944210947E+03  0.10944210947E+03  0.00000000000E+00 0.  1.
         24    2    1    2    0    0 -0.28225487917E+02  0.23916557376E+02 -0.56963771585E+01  0.89043708000E+02  0.80793894180E+02 0.  0.
         23    2    1    2    0    0 -0.93375546286E+02 -0.63657732674E+02  0.16517727742E+03  0.22052138553E+03  0.92600480160E+02 0.  0.
        -13    1    3    3    0    0  0.25350612312E+02  0.86256288782E+01 -0.17635433769E+02  0.32063429984E+02  0.00000000000E+00 0.  1.
         14    1    3    3    0    0 -0.53576100228E+02  0.15290928498E+02  0.11939056611E+02  0.56980278016E+02  0.00000000000E+00 0. -1.
        -11    1    4    4    0    0 -0.11681849488E+01 -0.53150733127E+02  0.55630784620E+02  0.76949004448E+02  0.00000000000E+00 0. -1.
         11    1    4    4    0    0 -0.92207361337E+02 -0.10506999546E+02  0.10954649280E+03  0.14357238108E+03  0.00000000000E+00 0.  1.
          1    1    1    2  501    0  0.12160103420E+03  0.39741175298E+02  0.84540150164E+02  0.15334017583E+03  0.00000000000E+00 0. -1.
<scales pt_clust_5="13000.00000" pt_clust_6="13000.00000" pt_clust_7="13000.00000" pt_clust_8="13000.00000" pt_clust_9="13000.00000"></scales>
<clustering>
<clus scale="   80.794">  5  6 -1 -1</clus>
<clus scale="   88.861">  1  5  2 -1</clus>
<clus scale="   92.600">  7  8 -1 -1</clus>
<clus scale="  121.128">  7  9 -1 -1</clus>
<clus scale="  278.233">  2  5  1 -1</clus>
</clustering>
</event>
<event>
 9    2  0.4178938E-005  0.2068832E+03  0.7546771E-02  0.1163489E+00
         21   -1    0    0  501  502  0.00000000000E+00  0.00000000000E+00  0.25185110626E+02  0.25185110626E+02  0.00000000000E+00 0. -1.
          2   -1    0    0  502    0 -0.00000000000E+00 -0.00000000000E+00 -0.15024392847E+04  0.15024392847E+04  0.00000000000E+00 0. -1.
         24    2    1    2    0    0 -0.10227252772E+03 -0.14282833550E+02 -0.98495617644E+03  0.99362252944E+03  0.80519514723E+02 0.  0.
         23    2    1    2    0    0  0.32980938897E+02 -0.45595059366E+02 -0.33465449349E+03  0.35168850723E+03  0.92328350654E+02 0.  0.
        -13    1    3    3    0    0 -0.61598209724E+02 -0.22561990172E+02 -0.28566237877E+03  0.29309789744E+03  0.00000000000E+00 0.  1.
         14    1    3    3    0    0 -0.40674317997E+02  0.82791566225E+01 -0.69929379767E+03  0.70052463200E+03  0.00000000000E+00 0. -1.
        -11    1    4    4    0    0 -0.24632471873E+02 -0.55891897588E+01 -0.30746143166E+02  0.39790991849E+02  0.00000000000E+00 0.  1.
         11    1    4    4    0    0  0.57613410769E+02 -0.40005869607E+02 -0.30390835033E+03  0.31189751538E+03  0.00000000000E+00 0. -1.
          1    1    1    2  501    0  0.69291588825E+02  0.59877892916E+02 -0.15764350409E+03  0.18231335860E+03  0.00000000000E+00 0. -1.
<scales pt_clust_5="13000.00000" pt_clust_6="13000.00000" pt_clust_7="13000.00000" pt_clust_8="13000.00000" pt_clust_9="13000.00000"></scales>
<clustering>
<clus scale="   80.520">  5  6 -1 -1</clus>
<clus scale="   92.328">  7  8 -1 -1</clus>
<clus scale="   91.579">  7  9 -1 -1</clus>
<clus scale="  130.947">  2  5  1 -1</clus>
<clus scale="  206.883">  1  5  2 -1</clus>
</clustering>
</event>
<event>
 9    2  0.4178938E-005  0.3889476E+03  0.7546771E-02  0.1083998E+00
          4   -1    0    0  502    0 -0.00000000000E+00  0.00000000000E+00  0.76610394596E+02  0.76610394596E+02  0.00000000000E+00 0. -1.
         21   -1    0    0  501  502  0.00000000000E+00 -0.00000000000E+00 -0.92186921827E+03  0.92186921827E+03  0.00000000000E+00 0. -1.
         24    2    1    2    0    0  0.26649090140E+02 -0.10414852695E+03 -0.24025483435E+03  0.27923689516E+03  0.93240380299E+02 0.  0.
         23    2    1    2    0    0 -0.33059676147E+02 -0.99446806572E+02 -0.42534818755E+03  0.44763939933E+03  0.92072480458E+02 0.  0.
        -11    1    3    3    0    0 -0.30619953393E+02 -0.32373706529E+02 -0.44294357602E+02  0.62830156259E+02  0.00000000000E+00 0.  1.
         12    1    3    3    0    0  0.57269043533E+02 -0.71774820417E+02 -0.19596047675E+03  0.21640673890E+03  0.00000000000E+00 0. -1.
        -13    1    4    4    0    0 -0.53501683777E+02 -0.36083619641E+02 -0.13331183028E+03  0.14810976290E+03  0.00000000000E+00 0.  1.
         13    1    4    4    0    0  0.20442007630E+02 -0.63363186931E+02 -0.29203635727E+03  0.29952963643E+03  0.00000000000E+00 0. -1.
          3    1    1    2  501    0  0.64105860071E+01  0.20359533352E+03 -0.17965580177E+03  0.27160331838E+03  0.00000000000E+00 0. -1.
<scales pt_clust_5="13000.00000" pt_clust_6="13000.00000" pt_clust_7="13000.00000" pt_clust_8="13000.00000" pt_clust_9="13000.00000"></scales>
<clustering>
<clus scale="   92.072">  7  8 -1 -1</clus>
<clus scale="   93.240">  5  6 -1 -1</clus>
<clus scale="  142.306">  1  5  2 -1</clus>
<clus scale="  122.967">  7  9 -1 -1</clus>
<clus scale="  388.948">  2  5  1 -1</clus>
</clustering>
</event>
<event>
 9    2  0.4178938E-005  0.1996097E+03  0.7546771E-02  0.1183850E+00
         21   -1    0    0  501  502  0.00000000000E+00  0.00000000000E+00  0.59310885760E+03  0.59310885760E+03  0.00000000000E+00 0. -1.
          4   -1    0    0  502    0 -0.00000000000E+00 -0.00000000000E+00 -0.36533132753E+02  0.36533132753E+02  0.00000000000E+00 0. -1.
         24    2    1    2    0    0 -0.15463542416E+02 -0.41392177993E+02  0.13559405346E+03  0.16373469288E+03  0.80441710424E+02 0.  0.
         23    2    1    2    0    0  0.77522244023E+02 -0.99801731983E+01  0.23692501985E+03  0.26499126554E+03  0.89317431704E+02 0.  0.
        -13    1    3    3    0    0 -0.22376356362E+01  0.23034695580E+02  0.55264848505E+02  0.59915003914E+02  0.00000000000E+00 0.  1.
         14    1    3    3    0    0 -0.13225906780E+02 -0.64426873572E+02  0.80329204956E+02  0.10381968897E+03  0.00000000000E+00 0. -1.
        -11    1    4    4    0    0  0.41393914234E+02 -0.41814832675E+02  0.70953229922E+02  0.92175361152E+02  0.00000000000E+00 0.  1.
         11    1    4    4    0    0  0.36128329790E+02  0.31834659476E+02  0.16597178993E+03  0.17281590439E+03  0.00000000000E+00 0. -1.
          3    1    1    2  501    0 -0.62058701608E+02  0.51372351191E+02  0.18405665153E+03  0.20091603192E+03  0.00000000000E+00 0. -1.
<scales pt_clust_5="13000.00000" pt_clust_6="13000.00000" pt_clust_7="13000.00000" pt_clust_8="13000.00000" pt_clust_9="13000.00000"></scales>
<clustering>
<clus scale="   80.442">  5  6 -1 -1</clus>
<clus scale="   89.317">  7  8 -1 -1</clus>
<clus scale="   80.563">  7  9 -1 -1</clus>
<clus scale="   91.779">  2  5  1 -1</clus>
<clus scale="  199.610">  1  5  2 -1</clus>
</clustering>
</event>
<event>
 9    2  0.4178938E-005  0.2136727E+03  0.7546771E-02  0.1172797E+00
         21   -1    0    0  501  502  0.00000000000E+00  0.00000000000E+00  0.21409689854E+03  0.21409689854E+03  0.00000000000E+00 0. -1.
          2   -1    0    0  502    0 -0.00000000000E+00 -0.00000000000E+00 -0.12500649144E+03  0.12500649144E+03  0.00000000000E+00 0. -1.
         24    2    1    2    0    0  0.46175349504E+02  0.31310122321E+02  0.80460313866E+02  0.12525648606E+03  0.78120666477E+02 0.  0.
         23    2    1    2    0    0  0.22821486388E+02 -0.56475130218E+02 -0.48652301926E+02  0.12070661307E+03  0.92156276953E+02 0.  0.
        -13    1    3    3    0    0  0.61173767875E+02  0.42436837735E+02  0.75275691601E+02  0.10587513787E+03  0.00000000000E+00 0.  1.
         14    1    3    3    0    0 -0.14998418372E+02 -0.11126715414E+02  0.51846222648E+01  0.19381348188E+02  0.00000000000E+00 0. -1.
        -11    1    4    4    0    0  0.58004775409E+02 -0.25102986577E+02 -0.25023089952E+02  0.67976973572E+02  0.00000000000E+00 0. -1.
         11    1    4    4    0    0 -0.35183289021E+02 -0.31372143642E+02 -0.23629211974E+02  0.52729639497E+02  0.00000000000E+00 0.  1.
          1    1    1    2  501    0 -0.68996835891E+02  0.25165007897E+02  0.57282395160E+02  0.93140290856E+02  0.00000000000E+00 0. -1.
<scales pt_clust_5="13000.00000" pt_clust_6="13000.00000" pt_clust_7="13000.00000" pt_clust_8="13000.00000" pt_clust_9="13000.00000"></scales>
<clustering>
<clus scale="   78.121">  5  6 -1 -1</clus>
<clus scale="   92.156">  7  8 -1 -1</clus>
<clus scale="   73.443">  7  9 -1 -1</clus>
<clus scale="   95.997">  2  5  1 -1</clus>
<clus scale="  213.673">  1  5  2 -1</clus>
</clustering>
</event>
<event>
 9    2  0.4178938E-005  0.2952949E+03  0.7546771E-02  0.1119762E+00
         21   -1    0    0  501  502  0.00000000000E+00  0.00000000000E+00  0.20679625686E+03  0.20679625686E+03  0.00000000000E+00 0. -1.
          2   -1    0    0  502    0 -0.00000000000E+00 -0.00000000000E+00 -0.21799830109E+03  0.21799830109E+03  0.00000000000E+00 0. -1.
         24    2    1    2    0    0  0.97979408548E+02 -0.20642022409E+02  0.51245692714E+01  0.12904862886E+03  0.81247952668E+02 0.  0.
         23    2    1    2    0    0  0.12686773802E+02  0.62446259961E+02  0.85147127838E+02  0.13988856360E+03  0.90875118901E+02 0.  0.
        -13    1    3    3    0    0  0.47989874171E+02  0.26544592958E+02 -0.16009146533E+02  0.57130869160E+02  0.00000000000E+00 0.  1.
         14    1    3    3    0    0  0.49989534377E+02 -0.47186615367E+02  0.21133715805E+02  0.71917759703E+02  0.00000000000E+00 0. -1.
        -13    1    4    4    0    0 -0.18847722930E+02  0.16258844507E+02  0.79934350534E+02  0.83720290728E+02  0.00000000000E+00 0.  1.
         13    1    4    4    0    0  0.31534496732E+02  0.46187415454E+02  0.52127773043E+01  0.56168272875E+02  0.00000000000E+00 0. -1.
          1    1    1    2  501    0 -0.11066618235E+03 -0.41804237552E+02 -0.10147374135E+03  0.15585736549E+03  0.00000000000E+00 0. -1.
<scales pt_clust_5="13000.00000" pt_clust_6="13000.00000" pt_clust_7="13000.00000" pt_clust_8="13000.00000" pt_clust_9="13000.00000"></scales>
<clustering>
<clus scale="   81.248">  5  6 -1 -1</clus>
<clus scale="   90.875">  7  8 -1 -1</clus>
<clus scale="  118.299">  7  9 -1 -1</clus>
<clus scale="  128.947">  2  5  1 -1</clus>
<clus scale="  295.295">  1  5  2 -1</clus>
</clustering>
</event>
<event>
 9    2  0.4178938E-005  0.7316883E+03  0.7546771E-02  0.1025481E+00
         21   -1    0    0  501  502  0.00000000000E+00  0.00000000000E+00  0.42964023166E+03  0.42964023166E+03  0.00000000000E+00 0. -1.
          2   -1    0    0  502    0 -0.00000000000E+00 -0.00000000000E+00 -0.48923408826E+03  0.48923408826E+03  0.00000000000E+00 0. -1.
         24    2    1    2    0    0 -0.49763482357E+02 -0.59534411550E+02  0.12140818750E+03  0.16513068245E+03  0.80668729748E+02 0.  0.
         23    2    1    2    0    0 -0.16512005821E+03 -0.22970905570E+03  0.81209386713E+02  0.30810751483E+03  0.91128438541E+02 0.  0.
        -13    1    3    3    0    0 -0.49446932492E+02  0.22205497143E+01  0.63107638449E+02  0.80202892744E+02  0.00000000000E+00 0.  1.
         14    1    3    3    0    0 -0.31654986505E+00 -0.61754961264E+02  0.58300549055E+02  0.84927789708E+02  0.00000000000E+00 0. -1.
        -13    1    4    4    0    0 -0.12216851078E+03 -0.16593950463E+03  0.99874083400E+02  0.22898885728E+03  0.00000000000E+00 0. -1.
         13    1    4    4    0    0 -0.42951547432E+02 -0.63769551069E+02 -0.18664696687E+02  0.79118657552E+02  0.00000000000E+00 0.  1.
          1    1    1    2  501    0  0.21488354057E+03  0.28924346725E+03 -0.26221143081E+03  0.44563612264E+03  0.00000000000E+00 0. -1.
<scales pt_clust_5="13000.00000" pt_clust_6="13000.00000" pt_clust_7="13000.00000" pt_clust_8="13000.00000" pt_clust_9="13000.00000"></scales>
<clustering>
<clus scale="   80.669">  5  6 -1 -1</clus>
<clus scale="   91.128">  7  8 -1 -1</clus>
<clus scale="  111.929">  2  5  1 -1</clus>
<clus scale="  301.685">  7  9 -1 -1</clus>
<clus scale="  731.688">  1  5  2 -1</clus>
</clustering>
</event>
<event>
 9    2  0.4178938E-005  0.3665567E+03  0.7546771E-02  0.1100949E+00
         21   -1    0    0  501  502  0.00000000000E+00  0.00000000000E+00  0.15217387694E+03  0.15217387694E+03  0.00000000000E+00 0. -1.
          2   -1    0    0  502    0 -0.00000000000E+00 -0.00000000000E+00 -0.41283816881E+03  0.41283816881E+03  0.00000000000E+00 0. -1.
         24    2    1    2    0    0  0.52861461043E+02  0.51412112557E+02 -0.14367381332E+03  0.18023857638E+03  0.80038993010E+02 0.  0.
         23    2    1    2    0    0  0.36246906188E+02  0.10612388577E+03 -0.14442066871E+03  0.20171526220E+03  0.85179810488E+02 0.  0.
        -13    1    3    3    0    0  0.13629114584E+02  0.40196680577E+02 -0.13070401172E+03  0.13742294049E+03  0.00000000000E+00 0.  1.
         14    1    3    3    0    0  0.39232346459E+02  0.11215431980E+02 -0.12969801595E+02  0.42815635889E+02  0.00000000000E+00 0. -1.
        -13    1    4    4    0    0  0.62798691916E+02  0.76443750969E+02 -0.86431846611E+02  0.13136889616E+03  0.00000000000E+00 0. -1.
         13    1    4    4    0    0 -0.26551785728E+02  0.29680134800E+02 -0.57988822102E+02  0.70346366046E+02  0.00000000000E+00 0.  1.
          1    1    1    2  501    0 -0.89108367231E+02 -0.15753599833E+03  0.27430190157E+02  0.18305820717E+03  0.00000000000E+00 0. -1.
<scales pt_clust_5="13000.00000" pt_clust_6="13000.00000" pt_clust_7="13000.00000" pt_clust_8="13000.00000" pt_clust_9="13000.00000"></scales>
<clustering>
<clus scale="   80.039">  5  6 -1 -1</clus>
<clus scale="   85.180">  7  8 -1 -1</clus>
<clus scale="  108.829">  2  5  1 -1</clus>
<clus scale="  159.169">  7  9 -1 -1</clus>
<clus scale="  366.557">  1  5  2 -1</clus>
</clustering>
</event>
<event>
 9    2  0.4178938E-005  0.1458853E+03  0.7546771E-02  0.1248843E+00
         21   -1    0    0  501  502  0.00000000000E+00  0.00000000000E+00  0.59393064513E+02  0.59393064513E+02  0.00000000000E+00 0.  1.
         -1   -1    0    0    0  501 -0.00000000000E+00 -0.00000000000E+00 -0.21059383094E+03  0.21059383094E+03  0.00000000000E+00 0.  1.
         24    2    1    2    0    0  0.30165080323E+01 -0.92682817166E+00  0.52816272353E+00  0.59501290303E+02  0.59415202269E+02 0.  0.
         23    2    1    2    0    0 -0.29294276056E+02  0.36516409762E+02 -0.11796027814E+03  0.15483076528E+03  0.88692366447E+02 0.  0.
        -11    1    3    3    0    0  0.29490241625E+02  0.95744436311E+01  0.89555761229E+00  0.31018483931E+02  0.00000000000E+00 0.  1.
         12    1    3    3    0    0 -0.26473733593E+02 -0.10501271803E+02 -0.36739488877E+00  0.28482806372E+02  0.00000000000E+00 0. -1.
        -11    1    4    4    0    0 -0.57481879892E+02  0.75475276924E+01 -0.54364719669E+02  0.79477383166E+02  0.00000000000E+00 0.  1.
         11    1    4    4    0    0  0.28187603836E+02  0.28968882070E+02 -0.63595558468E+02  0.75353382109E+02  0.00000000000E+00 0. -1.
         -2    1    1    2    0  502  0.26277768024E+02 -0.35589581590E+02 -0.33768651009E+02  0.55654839871E+02  0.00000000000E+00 0.  1.
<scales pt_clust_5="13000.00000" pt_clust_6="13000.00000" pt_clust_7="13000.00000" pt_clust_8="13000.00000" pt_clust_9="13000.00000"></scales>
<clustering>
<clus scale="   59.415">  5  6 -1 -1</clus>
<clus scale="   59.499">  2  5  1 -1</clus>
<clus scale="   88.692">  7  8 -1 -1</clus>
<clus scale="   44.868">  7  9 -1 -1</clus>
<clus scale="  145.885">  1  5  2 -1</clus>
</clustering>
</event>
<event>
 9    2  0.4178938E-005  0.4290880E+03  0.7546771E-02  0.1072581E+00
          2   -1    0    0  502    0 -0.00000000000E+00  0.00000000000E+00  0.98127120677E+02  0.98127120677E+02  0.00000000000E+00 0. -1.
         21   -1    0    0  501  502  0.00000000000E+00 -0.00000000000E+00 -0.93433271103E+03  0.93433271103E+03  0.00000000000E+00 0.  1.
         24    2    1    2    0    0 -0.10167036694E+03 -0.78659353156E+02 -0.85353841290E+02  0.16765066922E+03  0.65553880986E+02 0.  0.
         23    2    1    2    0    0 -0.40444896538E+02  0.19295020460E+03 -0.55953275097E+03  0.60049475526E+03  0.93013335488E+02 0.  0.
        -13    1    3    3    0    0 -0.24591721306E+02 -0.27189215741E+02 -0.62068124993E+02  0.72086464400E+02  0.00000000000E+00 0.  1.
         14    1    3    3    0    0 -0.77078645637E+02 -0.51470137415E+02 -0.23285716296E+02  0.95564204816E+02  0.00000000000E+00 0. -1.
        -13    1    4    4    0    0  0.11319371147E+02  0.77661476054E+02 -0.32210386869E+03  0.33152727678E+03  0.00000000000E+00 0. -1.
         13    1    4    4    0    0 -0.51764267685E+02  0.11528872855E+03 -0.23742888228E+03  0.26896747848E+03  0.00000000000E+00 0.  1.
          1    1    1    2  501    0  0.14211526348E+03 -0.11429085144E+03 -0.19131899810E+03  0.26431440724E+03  0.00000000000E+00 0. -1.
<scales pt_clust_5="13000.00000" pt_clust_6="13000.00000" pt_clust_7="13000.00000" pt_clust_8="13000.00000" pt_clust_9="13000.00000"></scales>
<clustering>
<clus scale="   65.554">  5  6 -1 -1</clus>
<clus scale="   93.013">  7  8 -1 -1</clus>
<clus scale="  144.296">  1  5  2 -1</clus>
<clus scale="  181.785">  7  9 -1 -1</clus>
<clus scale="  429.088">  2  5  1 -1</clus>
</clustering>
</event>
<event>
 9    2  0.4178938E-005  0.1822895E+03  0.7546771E-02  0.1190351E+00
          4   -1    0    0  502    0 -0.00000000000E+00  0.00000000000E+00  0.27948925851E+02  0.27948925851E+02  0.00000000000E+00 0. -1.
         21   -1    0    0  501  502  0.00000000000E+00 -0.00000000000E+00 -0.77478897713E+03  0.77478897713E+03  0.00000000000E+00 0. -1.
         24    2    1    2    0    0 -0.54468550796E+02 -0.37655246559E+02 -0.18904144852E+03  0.21590850399E+03  0.80592010887E+02 0.  0.
         23    2    1    2    0    0  0.34856715631E+02  0.68243437786E+02 -0.52368207180E+03  0.53698765739E+03  0.90778160576E+02 0.  0.
        -13    1    3    3    0    0 -0.33943287357E+01  0.23674956832E+02 -0.53725255242E+02  0.58808401606E+02  0.00000000000E+00 0.  1.
         14    1    3    3    0    0 -0.51074222060E+02 -0.61330203391E+02 -0.13531619328E+03  0.15710010239E+03  0.00000000000E+00 0. -1.
        -11    1    4    4    0    0  0.51661568778E+02  0.33574182169E+01 -0.22799756948E+03  0.23380137218E+03  0.00000000000E+00 0.  1.
         11    1    4    4    0    0 -0.16804853147E+02  0.64886019569E+02 -0.29568450232E+03  0.30318628521E+03  0.00000000000E+00 0. -1.
          3    1    1    2  501    0  0.19611835165E+02 -0.30588191227E+02 -0.34116530962E+02  0.49841741602E+02  0.00000000000E+00 0. -1.
<scales pt_clust_5="13000.00000" pt_clust_6="13000.00000" pt_clust_7="13000.00000" pt_clust_8="13000.00000" pt_clust_9="13000.00000"></scales>
<clustering>
<clus scale="   80.592">  5  6 -1 -1</clus>
<clus scale="   90.778">  7  8 -1 -1</clus>
<clus scale="   36.335">  7  9 -1 -1</clus>
<clus scale="  104.306">  1  5  2 -1</clus>
<clus scale="  182.290">  2  5  1 -1</clus>
</clustering>
</event>
<event>
 9    2  0.4178938E-005  0.9728251E+03  0.7546771E-02  0.9756940E-01
          2   -1    0    0  502    0 -0.00000000000E+00  0.00000000000E+00  0.57982778504E+03  0.57982778504E+03  0.00000000000E+00 0. -1.
         21   -1    0    0  501  502  0.00000000000E+00 -0.00000000000E+00 -0.18702648239E+04  0.18702648239E+04  0.00000000000E+00 0. -1.
         24    2    1    2    0    0 -0.58497407157E+02 -0.20398608188E+03  0.42241266572E+03  0.48025942402E+03  0.84760757189E+02 0.  0.
         23    2    1    2    0    0 -0.25348952026E+03 -0.28057528631E+03 -0.81272061780E+03  0.90101704765E+03  0.91309853722E+02 0.  0.
        -11    1    3    3    0    0 -0.21349372799E+02 -0.11592770722E+03  0.14514198530E+03  0.18697920985E+03  0.00000000000E+00 0.  1.
         12    1    3    3    0    0 -0.37148034359E+02 -0.88058374655E+02  0.27727068042E+03  0.29328021417E+03  0.00000000000E+00 0. -1.
        -11    1    4    4    0    0 -0.16932928061E+03 -0.24434786535E+03 -0.62908298564E+03  0.69578997362E+03  0.00000000000E+00 0.  1.
         11    1    4    4    0    0 -0.84160239658E+02 -0.36227420963E+02 -0.18363763217E+03  0.20522707403E+03  0.00000000000E+00 0. -1.
          1    1    1    2  501    0  0.31198692742E+03  0.48456136819E+03 -0.90012908682E+03  0.10688161373E+04  0.00000000000E+00 0. -1.
<scales pt_clust_5="13000.00000" pt_clust_6="13000.00000" pt_clust_7="13000.00000" pt_clust_8="13000.00000" pt_clust_9="13000.00000"></scales>
<clustering>
<clus scale="   84.761">  5  6 -1 -1</clus>
<clus scale="   91.310">  7  8 -1 -1</clus>
<clus scale="  228.510">  1  5  2 -1</clus>
<clus scale="  444.764">  7  9 -1 -1</clus>
<clus scale="  972.825">  2  5  1 -1</clus>
</clustering>
</event>
<event>
 9    2  0.4178938E-005  0.3021609E+03  0.7546771E-02  0.1132796E+00
         21   -1    0    0  501  502  0.00000000000E+00  0.00000000000E+00  0.26061108369E+03  0.26061108369E+03  0.00000000000E+00 0.  1.
         -3   -1    0    0    0  501 -0.00000000000E+00 -0.00000000000E+00 -0.21764664227E+03  0.21764664227E+03  0.00000000000E+00 0.  1.
         24    2    1    2    0    0  0.13005276456E+02  0.27943222075E+02 -0.10936433754E+03  0.13987144860E+03  0.81569007179E+02 0.  0.
         23    2    1    2    0    0 -0.50552444510E+02 -0.64154345950E+02 -0.47945828369E+02  0.13142987214E+03  0.91124525139E+02 0.  0.
        -11    1    3    3    0    0  0.31401087753E+02 -0.18576923601E+02 -0.54918651952E+02  0.65933214200E+02  0.00000000000E+00 0.  1.
         12    1    3    3    0    0 -0.18395811297E+02  0.46520145676E+02 -0.54445685586E+02  0.73938234398E+02  0.00000000000E+00 0. -1.
        -11    1    4    4    0    0  0.16747294841E+02 -0.47853257370E+02 -0.33285332030E+02  0.60649150478E+02  0.00000000000E+00 0.  1.
         11    1    4    4    0    0 -0.67299739352E+02 -0.16301088581E+02 -0.14660496339E+02  0.70780721659E+02  0.00000000000E+00 0. -1.
         -4    1    1    2    0  502  0.37547168054E+02  0.36211123875E+02  0.20027460733E+03  0.20695640523E+03  0.00000000000E+00 0.  1.
<scales pt_clust_5="13000.00000" pt_clust_6="13000.00000" pt_clust_7="13000.00000" pt_clust_8="13000.00000" pt_clust_9="13000.00000"></scales>
<clustering>
<clus scale="   81.569">  5  6 -1 -1</clus>
<clus scale="   87.198">  2  5  1 -1</clus>
<clus scale="   91.125">  7  8 -1 -1</clus>
<clus scale="   53.198">  7  9 -1 -1</clus>
<clus scale="  302.161">  1  5  2 -1</clus>
</clustering>
</event>
<event>
 9    2  0.4178938E-005  0.2727561E+03  0.7546771E-02  0.1132854E+00
         21   -1    0    0  501  502  0.00000000000E+00  0.00000000000E+00  0.11650135681E+03  0.11650135681E+03  0.00000000000E+00 0.  1.
         -3   -1    0    0    0  501 -0.00000000000E+00 -0.00000000000E+00 -0.36231742392E+03  0.36231742392E+03  0.00000000000E+00 0.  1.
         24    2    1    2    0    0 -0.10535242161E+02  0.84970975146E+02 -0.10962417892E+02  0.11888529860E+03  0.81746447465E+02 0.  0.
         23    2    1    2    0    0 -0.25131539151E+02  0.26931159038E+02 -0.35713632516E+01  0.10053860415E+03  0.93479274179E+02 0.  0.
        -13    1    3    3    0    0  0.50925427456E+00  0.54736551659E+02  0.33363324611E+02  0.64105076683E+02  0.00000000000E+00 0.  1.
         14    1    3    3    0    0 -0.11044496436E+02  0.30234423487E+02 -0.44325742503E+02  0.54780221920E+02  0.00000000000E+00 0. -1.
        -11    1    4    4    0    0  0.68184278667E+01  0.51309440281E+02 -0.22104418557E+02  0.56282812121E+02  0.00000000000E+00 0. -1.
         11    1    4    4    0    0 -0.31949967017E+02 -0.24378281243E+02  0.18533055305E+02  0.44255792025E+02  0.00000000000E+00 0.  1.
         -4    1    1    2    0  502  0.35666781312E+02 -0.11190213418E+03 -0.23128228596E+03  0.25939487798E+03  0.00000000000E+00 0.  1.
<scales pt_clust_5="13000.00000" pt_clust_6="13000.00000" pt_clust_7="13000.00000" pt_clust_8="13000.00000" pt_clust_9="13000.00000"></scales>
<clustering>
<clus scale="   81.746">  5  6 -1 -1</clus>
<clus scale="   93.479">  7  8 -1 -1</clus>
<clus scale="  117.449">  7  9 -1 -1</clus>
<clus scale="  118.379">  2  5  1 -1</clus>
<clus scale="  272.756">  1  5  2 -1</clus>
</clustering>
</event>
<event>
 9    2  0.4178938E-005  0.3116207E+03  0.7546771E-02  0.1096604E+00
          2   -1    0    0  502    0 -0.00000000000E+00  0.00000000000E+00  0.48542198811E+03  0.48542198811E+03  0.00000000000E+00 0. -1.
         21   -1    0    0  501  502  0.00000000000E+00 -0.00000000000E+00 -0.13524299599E+03  0.13524299599E+03  0.00000000000E+00 0. -1.
         24    2    1    2    0    0  0.15114698667E+03  0.98643551761E+02  0.10669498732E+03  0.22520081096E+03  0.82192597335E+02 0.  0.
         23    2    1    2    0    0 -0.17031672847E+03 -0.26222401871E+02  0.72622628446E+02  0.20890074723E+03  0.93113230405E+02 0.  0.
        -13    1    3    3    0    0  0.94030609993E+02  0.51129983056E+02  0.10637753855E+03  0.15090464371E+03  0.00000000000E+00 0.  1.
         14    1    3    3    0    0  0.57116376676E+02  0.47513568705E+02  0.31744876609E+00  0.74296167259E+02  0.00000000000E+00 0. -1.
        -13    1    4    4    0    0 -0.90487880257E+02 -0.18603489352E+02 -0.11009704071E+02  0.93034186583E+02  0.00000000000E+00 0.  1.
         13    1    4    4    0    0 -0.79828848210E+02 -0.76189125181E+01  0.83632332517E+02  0.11586656065E+03  0.00000000000E+00 0. -1.
          1    1    1    2  501    0  0.19169741798E+02 -0.72421149891E+02  0.17086137636E+03  0.18656342590E+03  0.00000000000E+00 0. -1.
<scales pt_clust_5="13000.00000" pt_clust_6="13000.00000" pt_clust_7="13000.00000" pt_clust_8="13000.00000" pt_clust_9="13000.00000"></scales>
<clustering>
<clus scale="   82.193">  5  6 -1 -1</clus>
<clus scale="   93.113">  7  8 -1 -1</clus>
<clus scale="   74.915">  7  9 -1 -1</clus>
<clus scale="  198.322">  1  5  2 -1</clus>
<clus scale="  311.621">  2  5  1 -1</clus>
</clustering>
</event>
<event>
 9    2  0.5034126E-005  0.4728231E+03  0.7546771E-02  0.1070833E+00
          4   -1    0    0  502    0 -0.00000000000E+00  0.00000000000E+00  0.12381500486E+04  0.12381500486E+04  0.00000000000E+00 0. -1.
         21   -1    0    0  501  502  0.00000000000E+00 -0.00000000000E+00 -0.16323524931E+03  0.16323524931E+03  0.00000000000E+00 0. -1.
         24    2    1    2    0    0 -0.78319787332E+02  0.19549222304E+02  0.88442735797E+03  0.89163329544E+03  0.79259200281E+02 0.  0.
         23    2    1    2    0    0 -0.55169758276E+02  0.52856712102E+02  0.29964489984E+03  0.32272946680E+03  0.92356420997E+02 0.  0.
        -11    1    3    3    0    0  0.32106561577E+01  0.25746757444E+02  0.11591057504E+03  0.11877906060E+03  0.00000000000E+00 0.  1.
         12    1    3    3    0    0 -0.81530443490E+02 -0.61975351405E+01  0.76851678293E+03  0.77285423483E+03  0.00000000000E+00 0. -1.
        -11    1    4    4    0    0  0.15627754635E+02  0.33224665596E+02  0.47131204074E+02  0.59744920423E+02  0.00000000000E+00 0.  1.
         11    1    4    4    0    0 -0.70797512912E+02  0.19632046506E+02  0.25251369576E+03  0.26298454638E+03  0.00000000000E+00 0. -1.
          3    1    1    2  501    0  0.13348954561E+03 -0.72405934406E+02 -0.10915745847E+03  0.18702253571E+03  0.00000000000E+00 0. -1.
<scales pt_clust_5="13000.00000" pt_clust_6="13000.00000" pt_clust_7="13000.00000" pt_clust_8="13000.00000" pt_clust_9="13000.00000"></scales>
<clustering>
<clus scale="   79.259">  5  6 -1 -1</clus>
<clus scale="   92.356">  7  8 -1 -1</clus>
<clus scale="  113.129">  1  5  2 -1</clus>
<clus scale="  143.188">  7  9 -1 -1</clus>
<clus scale="  472.823">  2  5  1 -1</clus>
</clustering>
</event>
<event>
 9    2  0.4178938E-005  0.4321919E+03  0.7546771E-02  0.1052340E+00
          4   -1    0    0  502    0 -0.00000000000E+00  0.00000000000E+00  0.51066894589E+03  0.51066894589E+03  0.00000000000E+00 0. -1.
         21   -1    0    0  501  502  0.00000000000E+00 -0.00000000000E+00 -0.22873266815E+03  0.22873266815E+03  0.00000000000E+00 0. -1.
         24    2    1    2    0    0  0.61218978826E+02 -0.22695219760E+03  0.68838263018E+02  0.25752963457E+03  0.79547110947E+02 0.  0.
         23    2    1    2    0    0 -0.50757514471E+02  0.34356168730E+01  0.23525255260E+03  0.25701663120E+03  0.90142423248E+02 0.  0.
        -13    1    3    3    0    0 -0.17531803182E+02 -0.54225749123E+02  0.27370720720E+02  0.63221454772E+02  0.00000000000E+00 0.  1.
         14    1    3    3    0    0  0.78750782008E+02 -0.17272644848E+03  0.41467542298E+02  0.19430817979E+03  0.00000000000E+00 0. -1.
        -13    1    4    4    0    0  0.22157133496E+02  0.20993344846E+01  0.10870268257E+03  0.11095773505E+03  0.00000000000E+00 0.  1.
         13    1    4    4    0    0 -0.72914647967E+02  0.13362823884E+01  0.12654987003E+03  0.14605889615E+03  0.00000000000E+00 0. -1.
          3    1    1    2  501    0 -0.10461464355E+02  0.22351658073E+03 -0.22154537874E+02  0.22485534827E+03  0.00000000000E+00 0. -1.
<scales pt_clust_5="13000.00000" pt_clust_6="13000.00000" pt_clust_7="13000.00000" pt_clust_8="13000.00000" pt_clust_9="13000.00000"></scales>
<clustering>
<clus scale="   79.547">  5  6 -1 -1</clus>
<clus scale="   90.142">  7  8 -1 -1</clus>
<clus scale="  223.761">  7  9 -1 -1</clus>
<clus scale="  248.159">  1  5  2 -1</clus>
<clus scale="  432.192">  2  5  1 -1</clus>
</clustering>
</event>
<event>
 9    2  0.4178938E-005  0.1865504E+03  0.7546771E-02  0.1192790E+00
          2   -1    0    0  502    0 -0.00000000000E+00  0.00000000000E+00  0.28194836899E+03  0.28194836899E+03  0.00000000000E+00 0. -1.
         21   -1    0    0  501  502  0.00000000000E+00 -0.00000000000E+00 -0.80656012288E+02  0.80656012288E+02  0.00000000000E+00 0.  1.
         24    2    1    2    0    0  0.30593379513E+02  0.34781450100E+02  0.13726655875E+03  0.16537263006E+03  0.79751454413E+02 0.  0.
         23    2    1    2    0    0  0.47700604136E+02 -0.19826104445E+02  0.22561622384E+02  0.10738249916E+03  0.91397769499E+02 0.  0.
        -11    1    3    3    0    0  0.27197341527E+02 -0.15833327470E+02  0.19189199921E+02  0.36859395526E+02  0.00000000000E+00 0.  1.
         12    1    3    3    0    0  0.33960379854E+01  0.50614777571E+02  0.11807735883E+03  0.12851323453E+03  0.00000000000E+00 0. -1.
        -11    1    4    4    0    0  0.99854203320E+01  0.32626883468E+02  0.25677057587E+02  0.42702850378E+02  0.00000000000E+00 0. -1.
         11    1    4    4    0    0  0.37715183804E+02 -0.52452987913E+02 -0.31154352027E+01  0.64679648785E+02  0.00000000000E+00 0.  1.
          1    1    1    2  501    0 -0.78293983649E+02 -0.14955345655E+02  0.41464175567E+02  0.89849252054E+02  0.00000000000E+00 0. -1.
<scales pt_clust_5="13000.00000" pt_clust_6="13000.00000" pt_clust_7="13000.00000" pt_clust_8="13000.00000" pt_clust_9="13000.00000"></scales>
<clustering>
<clus scale="   79.751">  5  6 -1 -1</clus>
<clus scale="   91.398">  7  8 -1 -1</clus>
<clus scale="   79.710">  7  9 -1 -1</clus>
<clus scale="   92.228">  1  5  2 -1</clus>
<clus scale="  186.550">  2  5  1 -1</clus>
</clustering>
</event>
<event>
 9    2  0.4178938E-005  0.3391862E+03  0.7546771E-02  0.1110811E+00
         21   -1    0    0  501  502  0.00000000000E+00  0.00000000000E+00  0.10513112203E+03  0.10513112203E+03  0.00000000000E+00 0. -1.
         -1   -1    0    0    0  501 -0.00000000000E+00 -0.00000000000E+00 -0.76060417755E+03  0.76060417755E+03  0.00000000000E+00 0.  1.
         24    2    1    2    0    0 -0.41530813565E+02 -0.50472997696E+02  0.21275409241E+02  0.10874403424E+03  0.84263218391E+02 0.  0.
         23    2    1    2    0    0 -0.53220191958E+02 -0.22351970066E+02 -0.58115225054E+02  0.12692117857E+03  0.96951569290E+02 0.  0.
        -11    1    3    3    0    0  0.24786422555E+02 -0.19082502089E+02  0.16123895931E+02  0.35192167439E+02  0.00000000000E+00 0.  1.
         12    1    3    3    0    0 -0.66317236121E+02 -0.31390495608E+02  0.51515133102E+01  0.73551866806E+02  0.00000000000E+00 0. -1.
        -13    1    4    4    0    0  0.84166635898E+01 -0.33209163755E+02  0.87260473197E+01  0.35352972790E+02  0.00000000000E+00 0. -1.
         13    1    4    4    0    0 -0.61636855547E+02  0.10857193689E+02 -0.66841272374E+02  0.91568205777E+02  0.00000000000E+00 0.  1.
         -2    1    1    2    0  502  0.94751005523E+02  0.72824967762E+02 -0.61863323971E+03  0.63007008677E+03  0.00000000000E+00 0.  1.
<scales pt_clust_5="13000.00000" pt_clust_6="13000.00000" pt_clust_7="13000.00000" pt_clust_8="13000.00000" pt_clust_9="13000.00000"></scales>
<clustering>
<clus scale="   84.263">  5  6 -1 -1</clus>
<clus scale="   96.952">  7  8 -1 -1</clus>
<clus scale="  106.643">  2  5  1 -1</clus>
<clus scale="   65.306">  7  9 -1 -1</clus>
<clus scale="  339.186">  1  5  2 -1</clus>
</clustering>
</event>
<event>
 9    2  0.4178938E-005  0.4246036E+03  0.7546771E-02  0.1069419E+00
         21   -1    0    0  501  502  0.00000000000E+00  0.00000000000E+00  0.42516529300E+02  0.42516529300E+02  0.00000000000E+00 0. -1.
          2   -1    0    0  502    0 -0.00000000000E+00 -0.00000000000E+00 -0.20322110219E+04  0.20322110219E+04  0.00000000000E+00 0. -1.
         24    2    1    2    0    0  0.14056539283E+03  0.60447364906E+01 -0.60274651849E+03  0.62424042468E+03  0.81102242553E+02 0.  0.
         23    2    1    2    0    0  0.49781282929E+01  0.17401341151E+03 -0.60640850447E+03  0.63633375223E+03  0.82969396686E+02 0.  0.
        -13    1    3    3    0    0  0.54121273437E+02 -0.35616565185E+02 -0.20058728443E+03  0.21079115405E+03  0.00000000000E+00 0.  1.
         14    1    3    3    0    0  0.86444119395E+02  0.41661301676E+02 -0.40215923407E+03  0.41344927063E+03  0.00000000000E+00 0. -1.
        -11    1    4    4    0    0  0.40864456584E+02  0.11887630567E+03 -0.36096709226E+03  0.38222862472E+03  0.00000000000E+00 0.  1.
         11    1    4    4    0    0 -0.35886328291E+02  0.55137105847E+02 -0.24544141221E+03  0.25410512751E+03  0.00000000000E+00 0. -1.
          1    1    1    2  501    0 -0.14554352113E+03 -0.18005814800E+03 -0.78053946959E+03  0.81415337425E+03  0.00000000000E+00 0. -1.
<scales pt_clust_5="13000.00000" pt_clust_6="13000.00000" pt_clust_7="13000.00000" pt_clust_8="13000.00000" pt_clust_9="13000.00000"></scales>
<clustering>
<clus scale="   81.102">  5  6 -1 -1</clus>
<clus scale="   82.969">  7  8 -1 -1</clus>
<clus scale="  162.397">  2  5  1 -1</clus>
<clus scale="  188.778">  7  9 -1 -1</clus>
<clus scale="  424.604">  1  5  2 -1</clus>
</clustering>
</event>
<event>
 9    2  0.4178938E-005  0.3415159E+03  0.7546771E-02  0.1105856E+00
          2   -1    0    0  502    0 -0.00000000000E+00  0.00000000000E+00  0.11017529947E+04  0.11017529947E+04  0.00000000000E+00 0. -1.
         21   -1    0    0  501  502  0.00000000000E+00 -0.00000000000E+00 -0.50098499699E+02  0.50098499699E+02  0.00000000000E+00 0. -1.
         24    2    1    2    0    0 -0.56438445553E+02 -0.54401969973E+02  0.38447093056E+03  0.40234030291E+03  0.88966007102E+02 0.  0.
         23    2    1    2    0    0 -0.62401878544E+02  0.17120465714E+02  0.38875737505E+02  0.10897730591E+03  0.78597871763E+02 0.  0.
        -11    1    3    3    0    0  0.19802666071E+02 -0.21391287314E+02  0.51666408789E+02  0.59322428756E+02  0.00000000000E+00 0.  1.
         12    1    3    3    0    0 -0.76241111624E+02 -0.33010682659E+02  0.33280452178E+03  0.34301787415E+03  0.00000000000E+00 0. -1.
        -13    1    4    4    0    0 -0.49798600858E+02 -0.14250275675E+02  0.51354446036E+02  0.72940044776E+02  0.00000000000E+00 0.  1.
         13    1    4    4    0    0 -0.12603277686E+02  0.31370741390E+02 -0.12478708531E+02  0.36037261138E+02  0.00000000000E+00 0. -1.
          1    1    1    2  501    0  0.11884032410E+03  0.37281504259E+02  0.62830782689E+03  0.64053388554E+03  0.00000000000E+00 0. -1.
<scales pt_clust_5="13000.00000" pt_clust_6="13000.00000" pt_clust_7="13000.00000" pt_clust_8="13000.00000" pt_clust_9="13000.00000"></scales>
<clustering>
<clus scale="   78.598">  7  8 -1 -1</clus>
<clus scale="   88.966">  5  6 -1 -1</clus>
<clus scale="  118.574">  1  5  2 -1</clus>
<clus scale="   69.244">  7  9 -1 -1</clus>
<clus scale="  341.516">  2  5  1 -1</clus>
</clustering>
</event>
<event>
 9    2  0.4178938E-005  0.4210300E+03  0.7546771E-02  0.1063702E+00
         21   -1    0    0  501  502  0.00000000000E+00  0.00000000000E+00  0.12762564301E+04  0.12762564301E+04  0.00000000000E+00 0. -1.
          2   -1    0    0  502    0 -0.00000000000E+00 -0.00000000000E+00 -0.74357952063E+02  0.74357952063E+02  0.00000000000E+00 0. -1.
         24    2    1    2    0    0 -0.17781759554E+03  0.11571833770E+02  0.37681458314E+03  0.42431548171E+03  0.79381315996E+02 0.  0.
         23    2    1    2    0    0 -0.13982055663E+02  0.76979278653E+01  0.14787888319E+02  0.93389512708E+02  0.90819400289E+02 0.  0.
        -13    1    3    3    0    0 -0.73453284062E+02  0.38816783027E+02  0.12188335914E+03  0.14750485016E+03  0.00000000000E+00 0.  1.
         14    1    3    3    0    0 -0.10436431148E+03 -0.27244949257E+02  0.25493122400E+03  0.27681063155E+03  0.00000000000E+00 0. -1.
        -13    1    4    4    0    0  0.30421440276E+02 -0.21774884098E+02 -0.21360329057E+01  0.37472286326E+02  0.00000000000E+00 0.  1.
         13    1    4    4    0    0 -0.44403495938E+02  0.29472811964E+02  0.16923921225E+02  0.55917226382E+02  0.00000000000E+00 0. -1.
          1    1    1    2  501    0  0.19179965121E+03 -0.19269761635E+02  0.81029600655E+03  0.83290938771E+03  0.00000000000E+00 0. -1.
<scales pt_clust_5="13000.00000" pt_clust_6="13000.00000" pt_clust_7="13000.00000" pt_clust_8="13000.00000" pt_clust_9="13000.00000"></scales>
<clustering>
<clus scale="   79.381">  5  6 -1 -1</clus>
<clus scale="   90.819">  7  8 -1 -1</clus>
<clus scale="  192.765">  7  9 -1 -1</clus>
<clus scale="  195.075">  2  5  1 -1</clus>
<clus scale="  421.030">  1  5  2 -1</clus>
</clustering>
</event>
<event>
 9    2  0.4178938E-005  0.9605095E+03  0.7546771E-02  0.9941297E-01
         21   -1    0    0  501  502  0.00000000000E+00  0.00000000000E+00  0.92794871082E+03  0.92794871082E+03  0.00000000000E+00 0. -1.
          2   -1    0    0  502    0 -0.00000000000E+00 -0.00000000000E+00 -0.32063317734E+03  0.32063317734E+03  0.00000000000E+00 0. -1.
         24    2    1    2    0    0  0.75946271557E+02  0.69598970174E+02  0.76205548812E+02  0.15101349641E+03  0.79912061759E+02 0.  0.
         23    2    1    2    0    0  0.37526248189E+03 -0.19967816601E+03  0.44100161296E+03  0.61941626635E+03  0.92199718493E+02 0.  0.
        -11    1    3    3    0    0  0.33211312990E+02  0.40052782417E+02  0.83667041534E+02  0.98526090600E+02  0.00000000000E+00 0.  1.
         12    1    3    3    0    0  0.42734958566E+02  0.29546187757E+02 -0.74614927223E+01  0.52487405806E+02  0.00000000000E+00 0. -1.
        -11    1    4    4    0    0  0.29328006406E+03 -0.11024786089E+03  0.32850950041E+03  0.45396726608E+03  0.00000000000E+00 0. -1.
         11    1    4    4    0    0  0.81982417830E+02 -0.89430305116E+02  0.11249211255E+03  0.16544900028E+03  0.00000000000E+00 0.  1.
          1    1    1    2  501    0 -0.45120875345E+03  0.13007919584E+03  0.90108371710E+02  0.47815212541E+03  0.00000000000E+00 0. -1.
<scales pt_clust_5="13000.00000" pt_clust_6="13000.00000" pt_clust_7="13000.00000" pt_clust_8="13000.00000" pt_clust_9="13000.00000"></scales>
<clustering>
<clus scale="   79.912">  5  6 -1 -1</clus>
<clus scale="   92.200">  7  8 -1 -1</clus>
<clus scale="  130.376">  2  5  1 -1</clus>
<clus scale="  436.972">  7  9 -1 -1</clus>
<clus scale="  960.510">  1  5  2 -1</clus>
</clustering>
</event>
<event>
 9    2  0.4178938E-005  0.1904331E+03  0.7546771E-02  0.1174530E+00
          2   -1    0    0  502    0 -0.00000000000E+00  0.00000000000E+00  0.10252694834E+04  0.10252694834E+04  0.00000000000E+00 0. -1.
         21   -1    0    0  501  502  0.00000000000E+00 -0.00000000000E+00 -0.25884624546E+02  0.25884624546E+02  0.00000000000E+00 0. -1.
         24    2    1    2    0    0  0.98833171681E+02  0.73352353212E+01  0.49924504580E+03  0.51598629818E+03  0.84702081688E+02 0.  0.
         23    2    1    2    0    0 -0.17679243595E+02 -0.42461387692E+02  0.31412668431E+03  0.32920497165E+03  0.87090840300E+02 0.  0.
        -11    1    3    3    0    0  0.41082269792E+02  0.44637771278E+02  0.20316560648E+03  0.21202959033E+03  0.00000000000E+00 0.  1.
         12    1    3    3    0    0  0.57750901889E+02 -0.37302535957E+02  0.29607943932E+03  0.30395670785E+03  0.00000000000E+00 0. -1.
        -11    1    4    4    0    0  0.30692753287E+02 -0.80634964740E+01  0.56237817688E+02  0.64573657307E+02  0.00000000000E+00 0. -1.
         11    1    4    4    0    0 -0.48371996882E+02 -0.34397891218E+02  0.25788886662E+03  0.26463131434E+03  0.00000000000E+00 0.  1.
          1    1    1    2  501    0 -0.81153928086E+02  0.35126152370E+02  0.18601312876E+03  0.20596283814E+03  0.00000000000E+00 0. -1.
<scales pt_clust_5="13000.00000" pt_clust_6="13000.00000" pt_clust_7="13000.00000" pt_clust_8="13000.00000" pt_clust_9="13000.00000"></scales>
<clustering>
<clus scale="   84.702">  5  6 -1 -1</clus>
<clus scale="   87.091">  7  8 -1 -1</clus>
<clus scale="   88.430">  7  9 -1 -1</clus>
<clus scale="  130.370">  1  5  2 -1</clus>
<clus scale="  190.433">  2  5  1 -1</clus>
</clustering>
</event>
<event>
 9    2  0.4178938E-005  0.2098592E+03  0.7546771E-02  0.1150140E+00
         -3   -1    0    0    0  501 -0.00000000000E+00  0.00000000000E+00  0.70076740344E+03  0.70076740344E+03  0.00000000000E+00 0.  1.
         21   -1    0    0  501  502  0.00000000000E+00 -0.00000000000E+00 -0.53225680703E+02  0.53225680703E+02  0.00000000000E+00 0.  1.
         24    2    1    2    0    0  0.12442679739E+03  0.89978999975E+02  0.35168962874E+03  0.39126819314E+03  0.76334498465E+02 0.  0.
         23    2    1    2    0    0 -0.38185374247E+02 -0.40468629615E+02  0.12938781717E+03  0.16881972010E+03  0.93075549290E+02 0.  0.
        -11    1    3    3    0    0  0.11707353304E+03  0.72176646829E+02  0.34409612087E+03  0.37056419266E+03  0.00000000000E+00 0.  1.
         12    1    3    3    0    0  0.73532643531E+01  0.17802353147E+02  0.75935078744E+01  0.20704000484E+02  0.00000000000E+00 0. -1.
        -11    1    4    4    0    0 -0.59480807899E+02 -0.40173865017E+02  0.52209088388E+02  0.88756379201E+02  0.00000000000E+00 0.  1.
         11    1    4    4    0    0  0.21295433652E+02 -0.29476459846E+00  0.77178728779E+02  0.80063340903E+02  0.00000000000E+00 0. -1.
         -4    1    1    2    0  502 -0.86241423146E+02 -0.49510370360E+02  0.16646427683E+03  0.19390517090E+03  0.00000000000E+00 0.  1.
<scales pt_clust_5="13000.00000" pt_clust_6="13000.00000" pt_clust_7="13000.00000" pt_clust_8="13000.00000" pt_clust_9="13000.00000"></scales>
<clustering>
<clus scale="   76.334">  5  6 -1 -1</clus>
<clus scale="   93.076">  7  8 -1 -1</clus>
<clus scale="   99.443">  7  9 -1 -1</clus>
<clus scale="  171.479">  1  5  2 -1</clus>
<clus scale="  209.859">  2  5  1 -1</clus>
</clustering>
</event>
<event>
 9    2  0.4178938E-005  0.4216185E+03  0.7546771E-02  0.1092758E+00
          2   -1    0    0  502    0 -0.00000000000E+00  0.00000000000E+00  0.18381942421E+03  0.18381942421E+03  0.00000000000E+00 0. -1.
         21   -1    0    0  501  502  0.00000000000E+00 -0.00000000000E+00 -0.36923748351E+03  0.36923748351E+03  0.00000000000E+00 0. -1.
         24    2    1    2    0    0 -0.14144910957E+02 -0.34552861474E+02 -0.77891278503E+02  0.11794290780E+03  0.80308775928E+02 0.  0.
         23    2    1    2    0    0 -0.88131817407E+02  0.79011477593E+02  0.11482629053E+03  0.18636113855E+03  0.86806486710E+02 0.  0.
        -13    1    3    3    0    0  0.10684826142E+02 -0.53629828898E+02 -0.62522203266E+02  0.83062325748E+02  0.00000000000E+00 0.  1.
         14    1    3    3    0    0 -0.24829737100E+02  0.19076967425E+02 -0.15369075236E+02  0.34880582050E+02  0.00000000000E+00 0. -1.
        -13    1    4    4    0    0 -0.69487816390E+02  0.68505046260E+02  0.12821093691E+03  0.16111965223E+03  0.00000000000E+00 0. -1.
         13    1    4    4    0    0 -0.18644001017E+02  0.10506431333E+02 -0.13384646381E+02  0.25241486328E+02  0.00000000000E+00 0.  1.
          1    1    1    2  501    0  0.10227672836E+03 -0.44458616120E+02 -0.22235307132E+03  0.24875286137E+03  0.00000000000E+00 0. -1.
<scales pt_clust_5="13000.00000" pt_clust_6="13000.00000" pt_clust_7="13000.00000" pt_clust_8="13000.00000" pt_clust_9="13000.00000"></scales>
<clustering>
<clus scale="   80.309">  5  6 -1 -1</clus>
<clus scale="   86.806">  7  8 -1 -1</clus>
<clus scale="   88.563">  1  5  2 -1</clus>
<clus scale="  111.627">  7  9 -1 -1</clus>
<clus scale="  421.619">  2  5  1 -1</clus>
</clustering>
</event>
<event>
 9    2  0.4178938E-005  0.2806191E+03  0.7546771E-02  0.1140189E+00
         21   -1    0    0  501  502  0.00000000000E+00  0.00000000000E+00  0.15142236417E+03  0.15142236417E+03  0.00000000000E+00 0.  1.
         -1   -1    0    0    0  501 -0.00000000000E+00 -0.00000000000E+00 -0.23559148810E+03  0.23559148810E+03  0.00000000000E+00 0.  1.
         24    2    1    2    0    0 -0.65142242217E+01 -0.41247344612E+02 -0.51386396699E+02  0.10448635462E+03  0.80827334366E+02 0.  0.
         23    2    1    2    0    0 -0.82237704182E+02 -0.67388497860E+02 -0.75083098744E+01  0.13998821451E+03  0.90752828337E+02 0.  0.
        -13    1    3    3    0    0  0.23289208709E+02 -0.53353158114E+02 -0.27289221056E+02  0.64293454635E+02  0.00000000000E+00 0.  1.
         14    1    3    3    0    0 -0.29803432931E+02  0.12105813502E+02 -0.24097175643E+02  0.40192899982E+02  0.00000000000E+00 0. -1.
        -11    1    4    4    0    0 -0.56952769311E+02 -0.48481637292E+01 -0.35132920695E+02  0.67092806919E+02  0.00000000000E+00 0.  1.
         11    1    4    4    0    0 -0.25284934871E+02 -0.62540334130E+02  0.27624610821E+02  0.72895407589E+02  0.00000000000E+00 0. -1.
         -2    1    1    2    0  502  0.88751928404E+02  0.10863584247E+03 -0.25274417355E+02  0.14253928314E+03  0.00000000000E+00 0.  1.
<scales pt_clust_5="13000.00000" pt_clust_6="13000.00000" pt_clust_7="13000.00000" pt_clust_8="13000.00000" pt_clust_9="13000.00000"></scales>
<clustering>
<clus scale="   80.827">  5  6 -1 -1</clus>
<clus scale="   90.753">  7  8 -1 -1</clus>
<clus scale="   90.977">  2  5  1 -1</clus>
<clus scale="  121.604">  7  9 -1 -1</clus>
<clus scale="  280.619">  1  5  2 -1</clus>
</clustering>
</event>
<event>
 9    2  0.4178938E-005  0.5400036E+03  0.7546771E-02  0.1053946E+00
         21   -1    0    0  501  502  0.00000000000E+00  0.00000000000E+00  0.39480667383E+03  0.39480667383E+03  0.00000000000E+00 0.  1.
          2   -1    0    0  502    0 -0.00000000000E+00 -0.00000000000E+00 -0.27916005560E+03  0.27916005560E+03  0.00000000000E+00 0. -1.
         24    2    1    2    0    0 -0.90724168511E+02 -0.26790913844E+02  0.43769035498E+02  0.12920048684E+03  0.76344020824E+02 0.  0.
         23    2    1    2    0    0  0.26250340704E+03  0.59485334350E+02  0.18317955419E+03  0.33748585092E+03  0.88856101601E+02 0.  0.
        -11    1    3    3    0    0 -0.87414791079E+02  0.56677909840E+01  0.40189562468E+02  0.96377748912E+02  0.00000000000E+00 0.  1.
         12    1    3    3    0    0 -0.33093774316E+01 -0.32458704828E+02  0.35794730304E+01  0.32822737931E+02  0.00000000000E+00 0. -1.
        -13    1    4    4    0    0  0.23314384098E+03  0.36904908997E+02  0.18573529349E+03  0.30035915525E+03  0.00000000000E+00 0.  1.
         13    1    4    4    0    0  0.29359566061E+02  0.22580425353E+02 -0.25557393011E+01  0.37126695676E+02  0.00000000000E+00 0. -1.
          1    1    1    2  501    0 -0.17177923853E+03 -0.32694420506E+02 -0.11130197145E+03  0.20728039167E+03  0.00000000000E+00 0. -1.
<scales pt_clust_5="13000.00000" pt_clust_6="13000.00000" pt_clust_7="13000.00000" pt_clust_8="13000.00000" pt_clust_9="13000.00000"></scales>
<clustering>
<clus scale="   76.344">  5  6 -1 -1</clus>
<clus scale="   88.856">  7  8 -1 -1</clus>
<clus scale="  121.561">  2  5  1 -1</clus>
<clus scale="  238.363">  7  9 -1 -1</clus>
<clus scale="  540.004">  1  5  2 -1</clus>
</clustering>
</event>
<event>
 9    2  0.4178938E-005  0.1580226E+03  0.7546771E-02  0.1213187E+00
          2   -1    0    0  502    0 -0.00000000000E+00  0.00000000000E+00  0.56287485421E+03  0.56287485421E+03  0.00000000000E+00 0. -1.
         21   -1    0    0  501  502  0.00000000000E+00 -0.00000000000E+00 -0.46823355691E+02  0.46823355691E+02  0.00000000000E+00 0. -1.
         24    2    1    2    0    0  0.54974944776E+02 -0.44587413397E+01  0.40487781164E+03  0.41648659466E+03  0.80578633909E+02 0.  0.
         23    2    1    2    0    0 -0.19857451420E+02 -0.38168936854E+02  0.58972597900E+02  0.11721614842E+03  0.91709716110E+02 0.  0.
        -13    1    3    3    0    0 -0.19004113023E+02 -0.11493595877E+02  0.12232622912E+03  0.12432604469E+03  0.00000000000E+00 0.  1.
         14    1    3    3    0    0  0.73979057799E+02  0.70348545377E+01  0.28255158253E+03  0.29216054997E+03  0.00000000000E+00 0. -1.
        -13    1    4    4    0    0  0.29766992148E+02 -0.21893678396E+02  0.53057828416E+02  0.64657096528E+02  0.00000000000E+00 0. -1.
         13    1    4    4    0    0 -0.49624443568E+02 -0.16275258457E+02  0.59147694842E+01  0.52559051888E+02  0.00000000000E+00 0.  1.
          1    1    1    2  501    0 -0.35117493356E+02  0.42627678193E+02  0.52201088977E+02  0.75995466826E+02  0.00000000000E+00 0. -1.
<scales pt_clust_5="13000.00000" pt_clust_6="13000.00000" pt_clust_7="13000.00000" pt_clust_8="13000.00000" pt_clust_9="13000.00000"></scales>
<clustering>
<clus scale="   80.579">  5  6 -1 -1</clus>
<clus scale="   91.710">  7  8 -1 -1</clus>
<clus scale="   55.230">  7  9 -1 -1</clus>
<clus scale="   97.648">  1  5  2 -1</clus>
<clus scale="  158.023">  2  5  1 -1</clus>
</clustering>
</event>
<event>
 9    2  0.4178938E-005  0.3257222E+03  0.7546771E-02  0.1103395E+00
          2   -1    0    0  502    0 -0.00000000000E+00  0.00000000000E+00  0.13592171113E+04  0.13592171113E+04  0.00000000000E+00 0. -1.
         21   -1    0    0  501  502  0.00000000000E+00 -0.00000000000E+00 -0.21661146026E+03  0.21661146026E+03  0.00000000000E+00 0. -1.
         24    2    1    2    0    0 -0.10662763154E+03  0.57792750660E+02  0.12299978059E+04  0.12385862750E+04  0.80572354180E+02 0.  0.
         23    2    1    2    0    0 -0.16154151118E+02 -0.64607910387E+02  0.73613433348E+02  0.13464759785E+03  0.90971970164E+02 0.  0.
        -11    1    3    3    0    0 -0.31174637904E+02  0.39060164334E+02  0.22018711895E+03  0.22578733764E+03  0.00000000000E+00 0.  1.
         12    1    3    3    0    0 -0.75452993636E+02  0.18732586325E+02  0.10098106869E+04  0.10127989373E+04  0.00000000000E+00 0. -1.
        -11    1    4    4    0    0 -0.36617674382E+02  0.77985233179E+01  0.26570852186E+02  0.45909489531E+02  0.00000000000E+00 0. -1.
         11    1    4    4    0    0  0.20463523264E+02 -0.72406433705E+02  0.47042581162E+02  0.88738108323E+02  0.00000000000E+00 0.  1.
          1    1    1    2  501    0  0.12278178266E+03  0.68151597275E+01 -0.16100558815E+03  0.20259469877E+03  0.00000000000E+00 0. -1.
<scales pt_clust_5="13000.00000" pt_clust_6="13000.00000" pt_clust_7="13000.00000" pt_clust_8="13000.00000" pt_clust_9="13000.00000"></scales>
<clustering>
<clus scale="   80.572">  5  6 -1 -1</clus>
<clus scale="   90.972">  7  8 -1 -1</clus>
<clus scale="  122.971">  7  9 -1 -1</clus>
<clus scale="  145.607">  1  5  2 -1</clus>
<clus scale="  325.722">  2  5  1 -1</clus>
</clustering>
</event>
<event>
 9    2  0.4178938E-005  0.3765756E+03  0.7546771E-02  0.1102179E+00
          2   -1    0    0  502    0 -0.00000000000E+00  0.00000000000E+00  0.16430734846E+04  0.16430734846E+04  0.00000000000E+00 0. -1.
         21   -1    0    0  501  502  0.00000000000E+00 -0.00000000000E+00 -0.50387191444E+02  0.50387191444E+02  0.00000000000E+00 0. -1.
         24    2    1    2    0    0  0.92255618555E+01  0.19869484711E+02  0.89820469633E+03  0.90345188008E+03  0.94729698081E+02 0.  0.
         23    2    1    2    0    0 -0.42637617001E+01  0.16438431711E+03  0.28746430632E+03  0.34320105463E+03  0.90060274901E+02 0.  0.
        -13    1    3    3    0    0  0.48135732321E+01 -0.28966811414E+02  0.11418319948E+03  0.11789847197E+03  0.00000000000E+00 0.  1.
         14    1    3    3    0    0  0.44119886234E+01  0.48836296125E+02  0.78402149685E+03  0.78555340811E+03  0.00000000000E+00 0. -1.
        -11    1    4    4    0    0  0.15511903319E+02  0.73418061277E+02  0.20690626351E+03  0.22009323648E+03  0.00000000000E+00 0.  1.
         11    1    4    4    0    0 -0.19775665020E+02  0.90966255834E+02  0.80558042812E+02  0.12310781815E+03  0.00000000000E+00 0. -1.
          1    1    1    2  501    0 -0.49618001554E+01 -0.18425380182E+03  0.40701729054E+03  0.44680774137E+03  0.00000000000E+00 0. -1.
<scales pt_clust_5="13000.00000" pt_clust_6="13000.00000" pt_clust_7="13000.00000" pt_clust_8="13000.00000" pt_clust_9="13000.00000"></scales>
<clustering>
<clus scale="   90.060">  7  8 -1 -1</clus>
<clus scale="   94.730">  5  6 -1 -1</clus>
<clus scale="   97.230">  1  5  2 -1</clus>
<clus scale="  172.826">  7  9 -1 -1</clus>
<clus scale="  376.576">  2  5  1 -1</clus>
</clustering>
</event>
<event>
 9    2  0.4178938E-005  0.2871115E+03  0.7546771E-02  0.1129135E+00
         21   -1    0    0  501  502  0.00000000000E+00  0.00000000000E+00  0.22013191836E+03  0.22013191836E+03  0.00000000000E+00 0.  1.
          2   -1    0    0  502    0 -0.00000000000E+00 -0.00000000000E+00 -0.33117996798E+03  0.33117996798E+03  0.00000000000E+00 0. -1.
         24    2    1    2    0    0 -0.39605107848E+01  0.78283598305E+02 -0.21817005278E+03  0.24486753717E+03  0.78853861158E+02 0.  0.
         23    2    1    2    0    0 -0.10280876233E+03  0.21510055592E+02  0.32860958909E+02  0.14251401722E+03  0.90543240390E+02 0.  0.
        -13    1    3    3    0    0 -0.39443128762E+02  0.24466677964E+02 -0.10040785509E+03  0.11061697926E+03  0.00000000000E+00 0.  1.
         14    1    3    3    0    0  0.35482617977E+02  0.53816920341E+02 -0.11776219769E+03  0.13425055791E+03  0.00000000000E+00 0. -1.
        -13    1    4    4    0    0 -0.65894658805E+02 -0.16728808431E+02 -0.16521949482E+02  0.69963804251E+02  0.00000000000E+00 0. -1.
         13    1    4    4    0    0 -0.36914103529E+02  0.38238864023E+02  0.49382908391E+02  0.72550212972E+02  0.00000000000E+00 0.  1.
          1    1    1    2  501    0  0.10676927312E+03 -0.99793653897E+02  0.74261044255E+02  0.16393033195E+03  0.00000000000E+00 0. -1.
<scales pt_clust_5="13000.00000" pt_clust_6="13000.00000" pt_clust_7="13000.00000" pt_clust_8="13000.00000" pt_clust_9="13000.00000"></scales>
<clustering>
<clus scale="   78.854">  5  6 -1 -1</clus>
<clus scale="   90.543">  7  8 -1 -1</clus>
<clus scale="  111.184">  2  5  1 -1</clus>
<clus scale="  123.258">  7  9 -1 -1</clus>
<clus scale="  287.112">  1  5  2 -1</clus>
</clustering>
</event>
<event>
 9    2  0.4178938E-005  0.5293737E+03  0.7546771E-02  0.1022637E+00
         21   -1    0    0  501  502  0.00000000000E+00  0.00000000000E+00  0.57567780610E+03  0.57567780610E+03  0.00000000000E+00 0. -1.
          2   -1    0    0  502    0 -0.00000000000E+00 -0.00000000000E+00 -0.36095682238E+03  0.36095682238E+03  0.00000000000E+00 0. -1.
         24    2    1    2    0    0  0.27428904479E+03  0.14752671402E+03  0.24778861584E+03  0.40622917092E+03  0.81389985405E+02 0.  0.
         23    2    1    2    0    0 -0.13713307965E+03 -0.23241030130E+03 -0.15872434342E+03  0.32593885575E+03  0.90679053851E+02 0.  0.
        -13    1    3    3    0    0  0.48721786001E+01  0.25591354917E+02  0.17010563315E+02  0.31112936780E+02  0.00000000000E+00 0.  1.
         14    1    3    3    0    0  0.26941686619E+03  0.12193535911E+03  0.23077805253E+03  0.37511623414E+03  0.00000000000E+00 0. -1.
        -13    1    4    4    0    0 -0.22702825279E+02 -0.42296413332E+00 -0.28181148201E+02  0.36190803918E+02  0.00000000000E+00 0.  1.
         13    1    4    4    0    0 -0.11443025438E+03 -0.23198733717E+03 -0.13054319522E+03  0.28974805183E+03  0.00000000000E+00 0. -1.
          1    1    1    2  501    0 -0.13715596513E+03  0.84883587276E+02  0.12565671130E+03  0.20446660181E+03  0.00000000000E+00 0. -1.
<scales pt_clust_5="13000.00000" pt_clust_6="13000.00000" pt_clust_7="13000.00000" pt_clust_8="13000.00000" pt_clust_9="13000.00000"></scales>
<clustering>
<clus scale="   81.390">  5  6 -1 -1</clus>
<clus scale="   90.679">  7  8 -1 -1</clus>
<clus scale="  161.298">  7  9 -1 -1</clus>
<clus scale="  321.905">  2  5  1 -1</clus>
<clus scale="  529.374">  1  5  2 -1</clus>
</clustering>
</event>
<event>
 9    2  0.4178938E-005  0.2090394E+03  0.7546771E-02  0.1156527E+00
         21   -1    0    0  501  502  0.00000000000E+00  0.00000000000E+00  0.27051537423E+03  0.27051537423E+03  0.00000000000E+00 0.  1.
         -1   -1    0    0    0  501 -0.00000000000E+00 -0.00000000000E+00 -0.12459318061E+03  0.12459318061E+03  0.00000000000E+00 0.  1.
         24    2    1    2    0    0 -0.10948710231E+03  0.60826410375E+02  0.18799111786E+02  0.15045012234E+03  0.81206865081E+02 0.  0.
         23    2    1    2    0    0  0.16104094628E+02 -0.13388525548E+02  0.21089728770E+02  0.95615448760E+02  0.90878726343E+02 0.  0.
        -11    1    3    3    0    0 -0.51784171269E+02  0.51148067673E+02  0.45815875039E+02  0.86004765137E+02  0.00000000000E+00 0.  1.
         12    1    3    3    0    0 -0.57702931037E+02  0.96783427023E+01 -0.27016763253E+02  0.64445357198E+02  0.00000000000E+00 0. -1.
        -11    1    4    4    0    0  0.43286323138E+02  0.10906594023E+02  0.34866403872E+02  0.56642084027E+02  0.00000000000E+00 0. -1.
         11    1    4    4    0    0 -0.27182228510E+02 -0.24295119571E+02 -0.13776675102E+02  0.38973364733E+02  0.00000000000E+00 0.  1.
         -2    1    1    2    0  502  0.93383007678E+02 -0.47437884827E+02  0.10603335306E+03  0.14904298374E+03  0.00000000000E+00 0.  1.
<scales pt_clust_5="13000.00000" pt_clust_6="13000.00000" pt_clust_7="13000.00000" pt_clust_8="13000.00000" pt_clust_9="13000.00000"></scales>
<clustering>
<clus scale="   81.207">  5  6 -1 -1</clus>
<clus scale="   90.879">  7  8 -1 -1</clus>
<clus scale="  104.741">  7  9 -1 -1</clus>
<clus scale="  149.271">  2  5  1 -1</clus>
<clus scale="  209.039">  1  5  2 -1</clus>
</clustering>
</event>
<event>
 9    2  0.4178938E-005  0.2570222E+03  0.7546771E-02  0.1135407E+00
         21   -1    0    0  501  502  0.00000000000E+00  0.00000000000E+00  0.38700837053E+02  0.38700837053E+02  0.00000000000E+00 0. -1.
          2   -1    0    0  502    0 -0.00000000000E+00 -0.00000000000E+00 -0.11239324972E+04  0.11239324972E+04  0.00000000000E+00 0. -1.
         24    2    1    2    0    0 -0.77851623447E+01 -0.10630184332E+03 -0.58869309057E+03  0.60351711058E+03  0.79452232386E+02 0.  0.
         23    2    1    2    0    0  0.78996110906E+02 -0.41476522114E+01 -0.24252687006E+03  0.27312315776E+03  0.97567351332E+02 0.  0.
        -11    1    3    3    0    0 -0.22431283356E+02 -0.15527924725E+01 -0.54539885305E+02  0.58992988791E+02  0.00000000000E+00 0.  1.
         12    1    3    3    0    0  0.14646121011E+02 -0.10474905085E+03 -0.53415320526E+03  0.54452412179E+03  0.00000000000E+00 0. -1.
        -13    1    4    4    0    0  0.21468847197E+01 -0.37698152591E+02 -0.10995561022E+03  0.11625831601E+03  0.00000000000E+00 0. -1.
         13    1    4    4    0    0  0.76849226187E+02  0.33550500380E+02 -0.13257125984E+03  0.15686484175E+03  0.00000000000E+00 0.  1.
          1    1    1    2  501    0 -0.71210948562E+02  0.11044949553E+03 -0.25401169950E+03  0.28599306590E+03  0.00000000000E+00 0. -1.
<scales pt_clust_5="13000.00000" pt_clust_6="13000.00000" pt_clust_7="13000.00000" pt_clust_8="13000.00000" pt_clust_9="13000.00000"></scales>
<clustering>
<clus scale="   79.452">  5  6 -1 -1</clus>
<clus scale="   97.567">  7  8 -1 -1</clus>
<clus scale="  131.416">  7  9 -1 -1</clus>
<clus scale="  132.941">  2  5  1 -1</clus>
<clus scale="  257.022">  1  5  2 -1</clus>
</clustering>
</event>
<event>
 9    2  0.4178938E-005  0.2091558E+03  0.7546771E-02  0.1160896E+00
          2   -1    0    0  502    0 -0.00000000000E+00  0.00000000000E+00  0.75265205869E+03  0.75265205869E+03  0.00000000000E+00 0. -1.
         21   -1    0    0  501  502  0.00000000000E+00 -0.00000000000E+00 -0.76098064528E+02  0.76098064528E+02  0.00000000000E+00 0.  1.
         24    2    1    2    0    0 -0.96084263131E+02 -0.86581966143E+01  0.15583621489E+02  0.13547673284E+03  0.93829344516E+02 0.  0.
         23    2    1    2    0    0  0.12499092679E+02  0.59564470696E+02  0.30543964123E+03  0.32451868808E+03  0.91185804798E+02 0.  0.
        -13    1    3    3    0    0 -0.82232856184E+02 -0.32038430103E+02 -0.20207823123E+02  0.90537615138E+02  0.00000000000E+00 0.  1.
         14    1    3    3    0    0 -0.13851406947E+02  0.23380233488E+02  0.35791444612E+02  0.44939117702E+02  0.00000000000E+00 0. -1.
        -13    1    4    4    0    0 -0.36852384939E+02  0.31319621413E+02  0.95958515791E+02  0.10745721806E+03  0.00000000000E+00 0.  1.
         13    1    4    4    0    0  0.49351477618E+02  0.28244849283E+02  0.20948112544E+03  0.21706147002E+03  0.00000000000E+00 0. -1.
          1    1    1    2  501    0  0.83585170452E+02 -0.50906274081E+02  0.35553073144E+03  0.36875470229E+03  0.00000000000E+00 0. -1.
<scales pt_clust_5="13000.00000" pt_clust_6="13000.00000" pt_clust_7="13000.00000" pt_clust_8="13000.00000" pt_clust_9="13000.00000"></scales>
<clustering>
<clus scale="   91.186">  7  8 -1 -1</clus>
<clus scale="   93.829">  5  6 -1 -1</clus>
<clus scale="   97.867">  7  9 -1 -1</clus>
<clus scale="  134.578">  1  5  2 -1</clus>
<clus scale="  209.156">  2  5  1 -1</clus>
</clustering>
</event>
<event>
 9    2  0.4178938E-005  0.1618399E+03  0.7546771E-02  0.1201059E+00
          2   -1    0    0  502    0 -0.00000000000E+00  0.00000000000E+00  0.22980840324E+03  0.22980840324E+03  0.00000000000E+00 0. -1.
         21   -1    0    0  501  502  0.00000000000E+00 -0.00000000000E+00 -0.11583326185E+03  0.11583326185E+03  0.00000000000E+00 0.  1.
         24    2    1    2    0    0  0.25738866783E+02  0.82089981987E+02  0.13855953032E+03  0.18194515628E+03  0.80647641283E+02 0.  0.
         23    2    1    2    0    0 -0.97686688907E+01 -0.98260111919E+02 -0.46701558010E+01  0.13347901381E+03  0.89690357820E+02 0.  0.
        -13    1    3    3    0    0  0.20558443556E+02  0.33050405448E+02  0.45951715673E+01  0.39193041519E+02  0.00000000000E+00 0.  1.
         14    1    3    3    0    0  0.51804232272E+01  0.49039576539E+02  0.13396435876E+03  0.14275211476E+03  0.00000000000E+00 0. -1.
        -11    1    4    4    0    0  0.25950843838E+02 -0.16185577371E+02  0.24657768898E+02  0.39286445216E+02  0.00000000000E+00 0.  1.
         11    1    4    4    0    0 -0.35719512728E+02 -0.82074534548E+02 -0.29327924699E+02  0.94192568592E+02  0.00000000000E+00 0. -1.
          1    1    1    2  501    0 -0.15970197892E+02  0.16170129932E+02 -0.19914233136E+02  0.30217495001E+02  0.00000000000E+00 0. -1.
<scales pt_clust_5="13000.00000" pt_clust_6="13000.00000" pt_clust_7="13000.00000" pt_clust_8="13000.00000" pt_clust_9="13000.00000"></scales>
<clustering>
<clus scale="   80.648">  5  6 -1 -1</clus>
<clus scale="   89.690">  7  8 -1 -1</clus>
<clus scale="   22.727">  7  9 -1 -1</clus>
<clus scale="  117.921">  1  5  2 -1</clus>
<clus scale="  161.840">  2  5  1 -1</clus>
</clustering>
</event>
<event>
 9    2  0.4178938E-005  0.2842373E+03  0.7546771E-02  0.1122813E+00
         21   -1    0    0  501  502  0.00000000000E+00  0.00000000000E+00  0.25291859910E+03  0.25291859910E+03  0.00000000000E+00 0. -1.
          2   -1    0    0  502    0 -0.00000000000E+00 -0.00000000000E+00 -0.28898702289E+03  0.28898702289E+03  0.00000000000E+00 0. -1.
         24    2    1    2    0    0 -0.98567719990E+02 -0.46754302737E+02 -0.17912824782E+03  0.22369661808E+03  0.77792592976E+02 0.  0.
         23    2    1    2    0    0  0.15876342049E+03 -0.31122471633E+02  0.98161628772E+02  0.21002322719E+03  0.91102242945E+02 0.  0.
        -13    1    3    3    0    0  0.73480574209E+00 -0.27138361979E+02 -0.15417451011E+02  0.31220641026E+02  0.00000000000E+00 0.  1.
         14    1    3    3    0    0 -0.99302525732E+02 -0.19615940758E+02 -0.16371079681E+03  0.19247597705E+03  0.00000000000E+00 0. -1.
        -13    1    4    4    0    0  0.11493735965E+03 -0.20772054653E+02  0.11309408907E+03  0.16258028134E+03  0.00000000000E+00 0. -1.
         13    1    4    4    0    0  0.43826060842E+02 -0.10350416980E+02 -0.14932460297E+02  0.47442945852E+02  0.00000000000E+00 0.  1.
          1    1    1    2  501    0 -0.60195700505E+02  0.77876774370E+02  0.44898195262E+02  0.10818577671E+03  0.00000000000E+00 0. -1.
<scales pt_clust_5="13000.00000" pt_clust_6="13000.00000" pt_clust_7="13000.00000" pt_clust_8="13000.00000" pt_clust_9="13000.00000"></scales>
<clustering>
<clus scale="   77.793">  5  6 -1 -1</clus>
<clus scale="   91.102">  7  8 -1 -1</clus>
<clus scale="   98.429">  7  9 -1 -1</clus>
<clus scale="  133.990">  2  5  1 -1</clus>
<clus scale="  284.237">  1  5  2 -1</clus>
</clustering>
</event>
<event>
 9    2  0.4178938E-005  0.6359448E+03  0.7546771E-02  0.9894544E-01
          2   -1    0    0  502    0 -0.00000000000E+00  0.00000000000E+00  0.13229953528E+04  0.13229953528E+04  0.00000000000E+00 0. -1.
         21   -1    0    0  501  502  0.00000000000E+00 -0.00000000000E+00 -0.26456165179E+03  0.26456165179E+03  0.00000000000E+00 0. -1.
         24    2    1    2    0    0  0.11944878740E+03 -0.50126865855E+03  0.64232706296E+03  0.82757637087E+03  0.82221122352E+02 0.  0.
         23    2    1    2    0    0  0.31135010998E+02  0.23947399258E+03  0.37526511910E+03  0.45521850165E+03  0.89904352502E+02 0.  0.
        -13    1    3    3    0    0  0.57815397912E+02 -0.12884689704E+03  0.21684794114E+03  0.25878016286E+03  0.00000000000E+00 0.  1.
         14    1    3    3    0    0  0.61633389487E+02 -0.37242176151E+03  0.42547912182E+03  0.56879620801E+03  0.00000000000E+00 0. -1.
        -11    1    4    4    0    0  0.57406886738E+02  0.16081495331E+03  0.21304583120E+03  0.27303026581E+03  0.00000000000E+00 0. -1.
         11    1    4    4    0    0 -0.26271875740E+02  0.78659039270E+02  0.16221928790E+03  0.18218823585E+03  0.00000000000E+00 0.  1.
          1    1    1    2  501    0 -0.15058379840E+03  0.26179466596E+03  0.40841518943E+02  0.30476213206E+03  0.00000000000E+00 0. -1.
<scales pt_clust_5="13000.00000" pt_clust_6="13000.00000" pt_clust_7="13000.00000" pt_clust_8="13000.00000" pt_clust_9="13000.00000"></scales>
<clustering>
<clus scale="   82.221">  5  6 -1 -1</clus>
<clus scale="   89.904">  7  8 -1 -1</clus>
<clus scale="  302.013">  7  9 -1 -1</clus>
<clus scale="  521.822">  1  5  2 -1</clus>
<clus scale="  635.945">  2  5  1 -1</clus>
</clustering>
</event>
<event>
 9    2  0.4178938E-005  0.2219125E+03  0.7546771E-02  0.1161335E+00
         21   -1    0    0  501  502  0.00000000000E+00  0.00000000000E+00  0.88675017507E+03  0.88675017507E+03  0.00000000000E+00 0. -1.
          4   -1    0    0  502    0 -0.00000000000E+00 -0.00000000000E+00 -0.86441167940E+02  0.86441167940E+02  0.00000000000E+00 0. -1.
         24    2    1    2    0    0 -0.15564422348E+02  0.75018632821E+02  0.73279728108E+03  0.74123662892E+03  0.81054539504E+02 0.  0.
         23    2    1    2    0    0 -0.71805993992E+02 -0.57899172588E+02  0.64824527138E+02  0.14288234684E+03  0.87776595742E+02 0.  0.
        -13    1    3    3    0    0  0.24870882589E+02  0.28579513738E+02  0.13311884809E+03  0.13840511957E+03  0.00000000000E+00 0.  1.
         14    1    3    3    0    0 -0.40435304937E+02  0.46439119083E+02  0.59967843300E+03  0.60283150935E+03  0.00000000000E+00 0. -1.
        -11    1    4    4    0    0 -0.93924201338E+01  0.23147447806E+02  0.11047238734E+02  0.27314160788E+02  0.00000000000E+00 0.  1.
         11    1    4    4    0    0 -0.62413573858E+02 -0.81046620394E+02  0.53777288404E+02  0.11556818605E+03  0.00000000000E+00 0. -1.
          3    1    1    2  501    0  0.87370416340E+02 -0.17119460232E+02  0.26871989099E+01  0.89072367253E+02  0.00000000000E+00 0. -1.
<scales pt_clust_5="13000.00000" pt_clust_6="13000.00000" pt_clust_7="13000.00000" pt_clust_8="13000.00000" pt_clust_9="13000.00000"></scales>
<clustering>
<clus scale="   81.055">  5  6 -1 -1</clus>
<clus scale="   87.777">  7  8 -1 -1</clus>
<clus scale="   89.032">  7  9 -1 -1</clus>
<clus scale="  111.534">  2  5  1 -1</clus>
<clus scale="  221.912">  1  5  2 -1</clus>
</clustering>
</event>
<event>
 9    2  0.4178938E-005  0.2263497E+03  0.7546771E-02  0.1168184E+00
         21   -1    0    0  501  502  0.00000000000E+00  0.00000000000E+00  0.22459185279E+02  0.22459185279E+02  0.00000000000E+00 0.  1.
          2   -1    0    0  502    0 -0.00000000000E+00 -0.00000000000E+00 -0.18730699414E+04  0.18730699414E+04  0.00000000000E+00 0. -1.
         24    2    1    2    0    0 -0.33729438608E+02  0.19424320829E+02 -0.12574577931E+04  0.12606554231E+04  0.80851808650E+02 0.  0.
         23    2    1    2    0    0  0.46954662438E+02  0.66476071786E+02 -0.45055797607E+03  0.46787934953E+03  0.96357602038E+02 0.  0.
        -13    1    3    3    0    0  0.14947403943E+02  0.15534836794E+02 -0.10638716843E+03  0.10854946174E+03  0.00000000000E+00 0.  1.
         14    1    3    3    0    0 -0.48676842551E+02  0.38894840350E+01 -0.11510706247E+04  0.11521059613E+04  0.00000000000E+00 0. -1.
        -11    1    4    4    0    0 -0.22019368646E+02  0.46187305130E+02 -0.23972280860E+03  0.24512271358E+03  0.00000000000E+00 0. -1.
         11    1    4    4    0    0  0.68974031083E+02  0.20288766656E+02 -0.21083516747E+03  0.22275663595E+03  0.00000000000E+00 0.  1.
          1    1    1    2  501    0 -0.13225223830E+02 -0.85900392614E+02 -0.14259498691E+03  0.16699435406E+03  0.00000000000E+00 0. -1.
<scales pt_clust_5="13000.00000" pt_clust_6="13000.00000" pt_clust_7="13000.00000" pt_clust_8="13000.00000" pt_clust_9="13000.00000"></scales>
<clustering>
<clus scale="   80.852">  5  6 -1 -1</clus>
<clus scale="   89.733">  2  5  1 -1</clus>
<clus scale="   96.358">  7  8 -1 -1</clus>
<clus scale="   83.867">  7  9 -1 -1</clus>
<clus scale="  226.350">  1  5  2 -1</clus>
</clustering>
</event>
<event>
 9    2  0.4178938E-005  0.3042794E+03  0.7546771E-02  0.1111339E+00
         21   -1    0    0  501  502  0.00000000000E+00  0.00000000000E+00  0.65830670712E+03  0.65830670712E+03  0.00000000000E+00 0.  1.
         -3   -1    0    0    0  501 -0.00000000000E+00 -0.00000000000E+00 -0.81079280935E+02  0.81079280935E+02  0.00000000000E+00 0.  1.
         24    2    1    2    0    0 -0.65490034100E+02  0.10680574677E+03  0.11343445226E+03  0.18468799497E+03  0.74470587598E+02 0.  0.
         23    2    1    2    0    0 -0.61401713820E+02 -0.86447797812E+01  0.32337221726E+03  0.34149602304E+03  0.90581676827E+02 0.  0.
        -13    1    3    3    0    0 -0.67849427651E+02  0.93744928125E+02  0.61429560270E+02  0.13101620990E+03  0.00000000000E+00 0.  1.
         14    1    3    3    0    0  0.23593935514E+01  0.13060818643E+02  0.52004891990E+02  0.53671785069E+02  0.00000000000E+00 0. -1.
        -13    1    4    4    0    0 -0.42968770260E+02 -0.43150198562E+02  0.25988223599E+03  0.26692139562E+03  0.00000000000E+00 0.  1.
         13    1    4    4    0    0 -0.18432943561E+02  0.34505418780E+02  0.63489981269E+02  0.74574627421E+02  0.00000000000E+00 0. -1.
         -4    1    1    2    0  502  0.12689174792E+03 -0.98160966987E+02  0.14042075666E+03  0.21320197005E+03  0.00000000000E+00 0.  1.
<scales pt_clust_5="13000.00000" pt_clust_6="13000.00000" pt_clust_7="13000.00000" pt_clust_8="13000.00000" pt_clust_9="13000.00000"></scales>
<clustering>
<clus scale="   74.471">  5  6 -1 -1</clus>
<clus scale="   90.582">  7  8 -1 -1</clus>
<clus scale="  145.747">  2  5  1 -1</clus>
<clus scale="   75.525">  7  9 -1 -1</clus>
<clus scale="  304.279">  1  5  2 -1</clus>
</clustering>
</event>
<event>
 9    2  0.4178938E-005  0.1223416E+03  0.7546771E-02  0.1243929E+00
          2   -1    0    0  502    0 -0.00000000000E+00  0.00000000000E+00  0.53549924869E+03  0.53549924869E+03  0.00000000000E+00 0. -1.
         21   -1    0    0  501  502  0.00000000000E+00 -0.00000000000E+00 -0.44633991871E+02  0.44633991871E+02  0.00000000000E+00 0. -1.
         24    2    1    2    0    0 -0.10628700726E+02  0.91046936698E+01  0.42865659606E+03  0.44288389483E+03  0.11047082072E+03 0.  0.
         23    2    1    2    0    0 -0.74600237498E+01 -0.55251276288E+00  0.70360863015E+02  0.11564378735E+03  0.91470636179E+02 0.  0.
        -13    1    3    3    0    0 -0.44047851739E+02 -0.34697504689E+02  0.22900412498E+03  0.23576899569E+03  0.00000000000E+00 0.  1.
         14    1    3    3    0    0  0.33419151013E+02  0.43802198358E+02  0.19965247108E+03  0.20711489914E+03  0.00000000000E+00 0. -1.
        -11    1    4    4    0    0 -0.15299260419E+02  0.33566217310E+02  0.71675893495E+02  0.80611364101E+02  0.00000000000E+00 0. -1.
         11    1    4    4    0    0  0.78392366689E+01 -0.34118730073E+02 -0.13150304803E+01  0.35032423246E+02  0.00000000000E+00 0.  1.
          1    1    1    2  501    0  0.18088724475E+02 -0.85521809070E+01 -0.81522022541E+01  0.21605558382E+02  0.00000000000E+00 0. -1.
<scales pt_clust_5="13000.00000" pt_clust_6="13000.00000" pt_clust_7="13000.00000" pt_clust_8="13000.00000" pt_clust_9="13000.00000"></scales>
<clustering>
<clus scale="   91.471">  7  8 -1 -1</clus>
<clus scale="   20.009">  7  9 -1 -1</clus>
<clus scale="  110.471">  5  6 -1 -1</clus>
<clus scale="  111.354">  1  5  2 -1</clus>
<clus scale="  122.342">  2  5  1 -1</clus>
</clustering>
</event>
<event>
 9    2  0.4178938E-005  0.1883181E+03  0.7546771E-02  0.1198942E+00
         21   -1    0    0  501  502  0.00000000000E+00  0.00000000000E+00  0.28368350842E+02  0.28368350842E+02  0.00000000000E+00 0.  1.
          4   -1    0    0  502    0 -0.00000000000E+00 -0.00000000000E+00 -0.67210523415E+03  0.67210523415E+03  0.00000000000E+00 0. -1.
         24    2    1    2    0    0  0.19007513161E+02 -0.18116152989E+01 -0.28156487980E+03  0.29226741077E+03  0.76005857375E+02 0.  0.
         23    2    1    2    0    0  0.38517913237E+02 -0.54537763282E+01 -0.12132751306E+03  0.16048046063E+03  0.97571714656E+02 0.  0.
        -13    1    3    3    0    0 -0.19963424926E+02  0.23765074423E+02 -0.93743071047E+02  0.98747559294E+02  0.00000000000E+00 0.  1.
         14    1    3    3    0    0  0.38970938087E+02 -0.25576689722E+02 -0.18782180875E+03  0.19351985148E+03  0.00000000000E+00 0. -1.
        -11    1    4    4    0    0  0.52539590225E+01 -0.42482169836E+02 -0.94938393350E+02  0.10414238989E+03  0.00000000000E+00 0. -1.
         11    1    4    4    0    0  0.33263954214E+02  0.37028393507E+02 -0.26389119715E+02  0.56338070743E+02  0.00000000000E+00 0.  1.
          3    1    1    2  501    0 -0.57525426398E+02  0.72653916271E+01 -0.24084449044E+03  0.24772571359E+03  0.00000000000E+00 0. -1.
<scales pt_clust_5="13000.00000" pt_clust_6="13000.00000" pt_clust_7="13000.00000" pt_clust_8="13000.00000" pt_clust_9="13000.00000"></scales>
<clustering>
<clus scale="   76.006">  5  6 -1 -1</clus>
<clus scale="   78.367">  2  5  1 -1</clus>
<clus scale="   97.572">  7  8 -1 -1</clus>
<clus scale="   45.881">  7  9 -1 -1</clus>
<clus scale="  188.318">  1  5  2 -1</clus>
</clustering>
</event>
<event>
 9    2  0.4178938E-005  0.1742300E+03  0.7546771E-02  0.1200791E+00
         21   -1    0    0  501  502  0.00000000000E+00  0.00000000000E+00  0.20437611163E+02  0.20437611163E+02  0.00000000000E+00 0.  1.
          2   -1    0    0  502    0 -0.00000000000E+00 -0.00000000000E+00 -0.10056727297E+04  0.10056727297E+04  0.00000000000E+00 0. -1.
         24    2    1    2    0    0 -0.45640025249E+02  0.20902639840E+02 -0.53422560591E+03  0.54261715410E+03  0.80724504655E+02 0.  0.
         23    2    1    2    0    0  0.13004202014E+02  0.40851685585E+02 -0.22940074674E+03  0.25113755678E+03  0.92776076324E+02 0.  0.
        -13    1    3    3    0    0 -0.11666988227E+02  0.49305423547E+02 -0.29811101859E+03  0.30238604930E+03  0.00000000000E+00 0.  1.
         14    1    3    3    0    0 -0.33973037022E+02 -0.28402783707E+02 -0.23611458732E+03  0.24023110480E+03  0.00000000000E+00 0. -1.
        -13    1    4    4    0    0  0.13845638894E+02  0.69065957263E+02 -0.13061759901E+03  0.14840069185E+03  0.00000000000E+00 0.  1.
         13    1    4    4    0    0 -0.84143687987E+00 -0.28214271678E+02 -0.98783147727E+02  0.10273686494E+03  0.00000000000E+00 0. -1.
          1    1    1    2  501    0  0.32635823235E+02 -0.61754325426E+02 -0.22160876592E+03  0.23235563002E+03  0.00000000000E+00 0. -1.
<scales pt_clust_5="13000.00000" pt_clust_6="13000.00000" pt_clust_7="13000.00000" pt_clust_8="13000.00000" pt_clust_9="13000.00000"></scales>
<clustering>
<clus scale="   80.725">  5  6 -1 -1</clus>
<clus scale="   92.776">  7  8 -1 -1</clus>
<clus scale="   69.848">  7  9 -1 -1</clus>
<clus scale="   95.060">  2  5  1 -1</clus>
<clus scale="  174.230">  1  5  2 -1</clus>
</clustering>
</event>
<event>
 9    2  0.4178938E-005  0.1884229E+03  0.7546771E-02  0.1191617E+00
          2   -1    0    0  502    0 -0.00000000000E+00  0.00000000000E+00  0.25047758695E+03  0.25047758695E+03  0.00000000000E+00 0. -1.
         21   -1    0    0  501  502  0.00000000000E+00 -0.00000000000E+00 -0.96528267494E+02  0.96528267494E+02  0.00000000000E+00 0.  1.
         24    2    1    2    0    0 -0.11268501109E+01 -0.44960417214E+02  0.12690110152E+03  0.15665144342E+03  0.80081684865E+02 0.  0.
         23    2    1    2    0    0  0.39339562001E+02  0.62915278939E+02 -0.28068847593E+02  0.12092473926E+03  0.91263349141E+02 0.  0.
        -13    1    3    3    0    0 -0.22709557578E+02 -0.58763821730E+02  0.10716728942E+03  0.12431306718E+03  0.00000000000E+00 0.  1.
         14    1    3    3    0    0  0.21582707467E+02  0.13803404517E+02  0.19733812105E+02  0.32338376243E+02  0.00000000000E+00 0. -1.
        -13    1    4    4    0    0  0.35188720172E+02 -0.15489187686E+02 -0.32629970079E+01  0.38585076286E+02  0.00000000000E+00 0. -1.
         13    1    4    4    0    0  0.41508418293E+01  0.78404466625E+02 -0.24805850585E+02  0.82339662969E+02  0.00000000000E+00 0.  1.
          1    1    1    2  501    0 -0.38212711890E+02 -0.17954861725E+02  0.55117065520E+02  0.69429671763E+02  0.00000000000E+00 0. -1.
<scales pt_clust_5="13000.00000" pt_clust_6="13000.00000" pt_clust_7="13000.00000" pt_clust_8="13000.00000" pt_clust_9="13000.00000"></scales>
<clustering>
<clus scale="   80.082">  5  6 -1 -1</clus>
<clus scale="   91.263">  7  8 -1 -1</clus>
<clus scale="   42.221">  7  9 -1 -1</clus>
<clus scale="   91.847">  1  5  2 -1</clus>
<clus scale="  188.423">  2  5  1 -1</clus>
</clustering>
</event>
<event>
 9    2  0.4178938E-005  0.2911927E+03  0.7546771E-02  0.1137532E+00
         21   -1    0    0  501  502  0.00000000000E+00  0.00000000000E+00  0.76538131020E+02  0.76538131020E+02  0.00000000000E+00 0.  1.
          2   -1    0    0  502    0 -0.00000000000E+00 -0.00000000000E+00 -0.48405047611E+03  0.48405047611E+03  0.00000000000E+00 0. -1.
         24    2    1    2    0    0  0.33968591753E+02  0.33160642091E+01 -0.14244739597E+03  0.16682140926E+03  0.79832702955E+02 0.  0.
         23    2    1    2    0    0 -0.38701404154E+02  0.12500899170E+03 -0.11965649547E+03  0.19977405913E+03  0.92016037202E+02 0.  0.
        -11    1    3    3    0    0 -0.25452126529E+02 -0.60769258467E+01 -0.51693736516E+02  0.57939469859E+02  0.00000000000E+00 0.  1.
         12    1    3    3    0    0  0.59420718281E+02  0.93929900558E+01 -0.90753659452E+02  0.10888193940E+03  0.00000000000E+00 0. -1.
        -11    1    4    4    0    0 -0.59204058055E+02  0.37547103853E+02 -0.54548151299E+02  0.88827959045E+02  0.00000000000E+00 0. -1.
         11    1    4    4    0    0  0.20502653901E+02  0.87461887846E+02 -0.65108344174E+02  0.11094610008E+03  0.00000000000E+00 0.  1.
          1    1    1    2  501    0  0.47328124017E+01 -0.12832505591E+03 -0.14540845365E+03  0.19399313874E+03  0.00000000000E+00 0. -1.
<scales pt_clust_5="13000.00000" pt_clust_6="13000.00000" pt_clust_7="13000.00000" pt_clust_8="13000.00000" pt_clust_9="13000.00000"></scales>
<clustering>
<clus scale="   79.833">  5  6 -1 -1</clus>
<clus scale="   86.822">  2  5  1 -1</clus>
<clus scale="   92.016">  7  8 -1 -1</clus>
<clus scale="  128.554">  7  9 -1 -1</clus>
<clus scale="  291.193">  1  5  2 -1</clus>
</clustering>
</event>
<event>
 9    2  0.4178938E-005  0.3417917E+03  0.7546771E-02  0.1118381E+00
          2   -1    0    0  502    0 -0.00000000000E+00  0.00000000000E+00  0.32300282654E+03  0.32300282654E+03  0.00000000000E+00 0. -1.
         21   -1    0    0  501  502  0.00000000000E+00 -0.00000000000E+00 -0.14944105526E+03  0.14944105526E+03  0.00000000000E+00 0. -1.
         24    2    1    2    0    0 -0.24060631558E+02 -0.19270755198E+02 -0.61201878187E+01  0.86299907454E+02  0.80373760213E+02 0.  0.
         23    2    1    2    0    0 -0.16795847068E+02 -0.49666225898E+02 -0.68102477384E+02  0.12572376359E+03  0.91758829715E+02 0.  0.
        -13    1    3    3    0    0 -0.10254416438E+02 -0.30551741754E+02  0.31252763220E+02  0.44892061543E+02  0.00000000000E+00 0.  1.
         14    1    3    3    0    0 -0.13806215121E+02  0.11280986557E+02 -0.37372951039E+02  0.41407845911E+02  0.00000000000E+00 0. -1.
        -11    1    4    4    0    0  0.22946290703E+02 -0.59289653511E+02 -0.50561003171E+02  0.81229368532E+02  0.00000000000E+00 0. -1.
         11    1    4    4    0    0 -0.39742137771E+02  0.96234276126E+01 -0.17541474213E+02  0.44494395054E+02  0.00000000000E+00 0.  1.
          1    1    1    2  501    0  0.40856478626E+02  0.68936981096E+02  0.24778443648E+03  0.26042021076E+03  0.00000000000E+00 0. -1.
<scales pt_clust_5="13000.00000" pt_clust_6="13000.00000" pt_clust_7="13000.00000" pt_clust_8="13000.00000" pt_clust_9="13000.00000"></scales>
<clustering>
<clus scale="   80.374">  5  6 -1 -1</clus>
<clus scale="   86.083">  1  5  2 -1</clus>
<clus scale="   91.759">  7  8 -1 -1</clus>
<clus scale="   55.099">  7  9 -1 -1</clus>
<clus scale="  341.792">  2  5  1 -1</clus>
</clustering>
</event>
<event>
 9    2  0.4178938E-005  0.2413294E+03  0.7546771E-02  0.1152054E+00
         21   -1    0    0  501  502  0.00000000000E+00  0.00000000000E+00  0.18077363240E+03  0.18077363240E+03  0.00000000000E+00 0. -1.
          2   -1    0    0  502    0 -0.00000000000E+00 -0.00000000000E+00 -0.16950591806E+03  0.16950591806E+03  0.00000000000E+00 0. -1.
         24    2    1    2    0    0  0.48035632824E+02 -0.51419793138E+02 -0.87162375567E+01  0.10812416161E+03  0.81629923315E+02 0.  0.
         23    2    1    2    0    0  0.25624154010E+02 -0.38710641920E+02 -0.43432766834E+02  0.10959996748E+03  0.89278421639E+02 0.  0.
        -13    1    3    3    0    0 -0.47961870111E+00 -0.51048896254E+02  0.16231070569E+02  0.53569277526E+02  0.00000000000E+00 0.  1.
         14    1    3    3    0    0  0.48515251525E+02 -0.37089688363E+00 -0.24947308126E+02  0.54554884087E+02  0.00000000000E+00 0. -1.
        -13    1    4    4    0    0 -0.27629118830E+02 -0.37646075370E+02 -0.26589606394E+02  0.53736415644E+02  0.00000000000E+00 0. -1.
         13    1    4    4    0    0  0.53253272840E+02 -0.10645665494E+01 -0.16843160440E+02  0.55863551836E+02  0.00000000000E+00 0.  1.
          1    1    1    2  501    0 -0.73659786834E+02  0.90130435058E+02  0.63416718727E+02  0.13255542137E+03  0.00000000000E+00 0. -1.
<scales pt_clust_5="13000.00000" pt_clust_6="13000.00000" pt_clust_7="13000.00000" pt_clust_8="13000.00000" pt_clust_9="13000.00000"></scales>
<clustering>
<clus scale="   81.630">  5  6 -1 -1</clus>
<clus scale="   89.278">  7  8 -1 -1</clus>
<clus scale="  107.772">  2  5  1 -1</clus>
<clus scale="   94.563">  7  9 -1 -1</clus>
<clus scale="  241.329">  1  5  2 -1</clus>
</clustering>
</event>
<event>
 9    2  0.4178938E-005  0.3959980E+03  0.7546771E-02  0.1074080E+00
          2   -1    0    0  502    0 -0.00000000000E+00  0.00000000000E+00  0.78091134950E+03  0.78091134950E+03  0.00000000000E+00 0. -1.
         21   -1    0    0  501  502  0.00000000000E+00 -0.00000000000E+00 -0.10490218390E+03  0.10490218390E+03  0.00000000000E+00 0.  1.
         24    2    1    2    0    0  0.42630385728E+02 -0.14997545359E+03  0.21935191269E+03  0.28137142356E+03  0.82125695922E+02 0.  0.
         23    2    1    2    0    0  0.58265641324E+02  0.15707111430E+02 -0.10001895956E+02  0.10847965441E+03  0.89589057315E+02 0.  0.
        -13    1    3    3    0    0 -0.22368592178E+02 -0.27484184426E+02  0.28574092915E+02  0.45521567366E+02  0.00000000000E+00 0.  1.
         14    1    3    3    0    0  0.64998977906E+02 -0.12249126916E+03  0.19077781978E+03  0.23584985620E+03  0.00000000000E+00 0. -1.
        -11    1    4    4    0    0 -0.16844611571E+02 -0.18715852470E+02  0.55106513385E+00  0.25185864001E+02  0.00000000000E+00 0. -1.
         11    1    4    4    0    0  0.75110252895E+02  0.34422963900E+02 -0.10552961090E+02  0.83293790413E+02  0.00000000000E+00 0.  1.
          1    1    1    2  501    0 -0.10089602705E+03  0.13426834216E+03  0.46665914886E+03  0.49596245543E+03  0.00000000000E+00 0. -1.
<scales pt_clust_5="13000.00000" pt_clust_6="13000.00000" pt_clust_7="13000.00000" pt_clust_8="13000.00000" pt_clust_9="13000.00000"></scales>
<clustering>
<clus scale="   82.126">  5  6 -1 -1</clus>
<clus scale="   89.589">  7  8 -1 -1</clus>
<clus scale="  167.952">  7  9 -1 -1</clus>
<clus scale="  176.223">  1  5  2 -1</clus>
<clus scale="  395.998">  2  5  1 -1</clus>
</clustering>
</event>
<event>
 9    2  0.4178938E-005  0.4626957E+03  0.7546771E-02  0.1042586E+00
         21   -1    0    0  501  502  0.00000000000E+00  0.00000000000E+00  0.30296022185E+03  0.30296022185E+03  0.00000000000E+00 0. -1.
          2   -1    0    0  502    0 -0.00000000000E+00 -0.00000000000E+00 -0.44378334554E+03  0.44378334554E+03  0.00000000000E+00 0. -1.
         24    2    1    2    0    0 -0.38495631242E+02 -0.25231262614E+03 -0.18487749229E+02  0.26814845145E+03  0.80113795388E+02 0.  0.
         23    2    1    2    0    0  0.50300101246E+02  0.34916019686E+03 -0.83875974749E+02  0.37372413380E+03  0.90507490264E+02 0.  0.
        -11    1    3    3    0    0 -0.40366041669E+02 -0.51118385378E+02 -0.15360410289E+02  0.66921213736E+02  0.00000000000E+00 0.  1.
         12    1    3    3    0    0  0.18704104268E+01 -0.20119424076E+03 -0.31273389406E+01  0.20122723771E+03  0.00000000000E+00 0. -1.
        -11    1    4    4    0    0  0.13532437918E+02  0.30269018054E+03 -0.84172461916E+02  0.31446697063E+03  0.00000000000E+00 0. -1.
         11    1    4    4    0    0  0.36767663328E+02  0.46470016316E+02  0.29648716679E+00  0.59257163176E+02  0.00000000000E+00 0.  1.
          1    1    1    2  501    0 -0.11804470003E+02 -0.96847570719E+02 -0.38459399711E+02  0.10487098213E+03  0.00000000000E+00 0. -1.
<scales pt_clust_5="13000.00000" pt_clust_6="13000.00000" pt_clust_7="13000.00000" pt_clust_8="13000.00000" pt_clust_9="13000.00000"></scales>
<clustering>
<clus scale="   80.114">  5  6 -1 -1</clus>
<clus scale="   90.507">  7  8 -1 -1</clus>
<clus scale="   97.564">  7  9 -1 -1</clus>
<clus scale="  267.510">  2  5  1 -1</clus>
<clus scale="  462.696">  1  5  2 -1</clus>
</clustering>
</event>
<event>
 9    2  0.4178938E-005  0.4677881E+03  0.7546771E-02  0.1057985E+00
         21   -1    0    0  501  502  0.00000000000E+00  0.00000000000E+00  0.49970131304E+03  0.49970131304E+03  0.00000000000E+00 0. -1.
          4   -1    0    0  502    0 -0.00000000000E+00 -0.00000000000E+00 -0.27754455476E+03  0.27754455476E+03  0.00000000000E+00 0. -1.
         24    2    1    2    0    0 -0.58125966905E+02 -0.13414731398E+03 -0.11322714487E+03  0.20165219294E+03  0.80430657734E+02 0.  0.
         23    2    1    2    0    0 -0.54698402966E+02 -0.30897827438E+02 -0.65136461479E+02  0.12794895007E+03  0.90452109891E+02 0.  0.
        -11    1    3    3    0    0 -0.48591103871E+02 -0.23959401306E+02 -0.22752268108E+02  0.58760650017E+02  0.00000000000E+00 0.  1.
         12    1    3    3    0    0 -0.95348630338E+01 -0.11018791268E+03 -0.90474876762E+02  0.14289154292E+03  0.00000000000E+00 0. -1.
        -13    1    4    4    0    0 -0.32111694018E+02  0.24033181075E+02 -0.42293859906E+00  0.40111514087E+02  0.00000000000E+00 0. -1.
         13    1    4    4    0    0 -0.22586708948E+02 -0.54931008513E+02 -0.64713522880E+02  0.87837435988E+02  0.00000000000E+00 0.  1.
          3    1    1    2  501    0  0.11282436987E+03  0.16504514142E+03  0.40052036463E+03  0.44764472479E+03  0.00000000000E+00 0. -1.
<scales pt_clust_5="13000.00000" pt_clust_6="13000.00000" pt_clust_7="13000.00000" pt_clust_8="13000.00000" pt_clust_9="13000.00000"></scales>
<clustering>
<clus scale="   80.431">  5  6 -1 -1</clus>
<clus scale="   90.452">  7  8 -1 -1</clus>
<clus scale="  166.863">  2  5  1 -1</clus>
<clus scale="  171.848">  7  9 -1 -1</clus>
<clus scale="  467.788">  1  5  2 -1</clus>
</clustering>
</event>
<event>
 9    2  0.4178938E-005  0.3340898E+03  0.7546771E-02  0.1119532E+00
          2   -1    0    0  502    0 -0.00000000000E+00  0.00000000000E+00  0.13277892304E+04  0.13277892304E+04  0.00000000000E+00 0. -1.
         21   -1    0    0  501  502  0.00000000000E+00 -0.00000000000E+00 -0.34850951818E+02  0.34850951818E+02  0.00000000000E+00 0.  1.
         24    2    1    2    0    0  0.32998978296E+02  0.15560195872E+02  0.18694681562E+03  0.20729040471E+03  0.81787210173E+02 0.  0.
         23    2    1    2    0    0  0.11082777825E+03  0.33914666489E+02  0.29104562623E+03  0.32633191600E+03  0.91389068366E+02 0.  0.
        -13    1    3    3    0    0  0.53590385161E+02  0.31982359848E+02  0.11805766024E+03  0.13353805399E+03  0.00000000000E+00 0.  1.
         14    1    3    3    0    0 -0.20591406865E+02 -0.16422163976E+02  0.68889155384E+02  0.73752350714E+02  0.00000000000E+00 0. -1.
        -13    1    4    4    0    0  0.61639199962E+02 -0.25734588612E+02  0.10022879213E+03  0.12044696258E+03  0.00000000000E+00 0.  1.
         13    1    4    4    0    0  0.49188578288E+02  0.59649255101E+02  0.19081683410E+03  0.20588495342E+03  0.00000000000E+00 0. -1.
          1    1    1    2  501    0 -0.14382675655E+03 -0.49474862361E+02  0.81494583673E+03  0.82901786152E+03  0.00000000000E+00 0. -1.
<scales pt_clust_5="13000.00000" pt_clust_6="13000.00000" pt_clust_7="13000.00000" pt_clust_8="13000.00000" pt_clust_9="13000.00000"></scales>
<clustering>
<clus scale="   81.787">  5  6 -1 -1</clus>
<clus scale="   89.556">  1  5  2 -1</clus>
<clus scale="   91.389">  7  8 -1 -1</clus>
<clus scale="  125.767">  7  9 -1 -1</clus>
<clus scale="  334.090">  2  5  1 -1</clus>
</clustering>
</event>
<event>
 9    2  0.4178938E-005  0.1348529E+03  0.7546771E-02  0.1241151E+00
         21   -1    0    0  501  502  0.00000000000E+00  0.00000000000E+00  0.84296913589E+02  0.84296913589E+02  0.00000000000E+00 0. -1.
          2   -1    0    0  502    0 -0.00000000000E+00 -0.00000000000E+00 -0.15494785212E+03  0.15494785212E+03  0.00000000000E+00 0. -1.
         24    2    1    2    0    0 -0.33688820382E+02  0.12566744293E+02 -0.21232225175E+01  0.87978925048E+02  0.80267823552E+02 0.  0.
         23    2    1    2    0    0  0.19222641455E+02 -0.37608354997E+02 -0.28674015674E+02  0.10202490210E+03  0.88334495889E+02 0.  0.
        -11    1    3    3    0    0 -0.11619305085E+02 -0.29682382443E+02 -0.19357436746E+02  0.37292927420E+02  0.00000000000E+00 0.  1.
         12    1    3    3    0    0 -0.22069515297E+02  0.42249126737E+02  0.17234214228E+02  0.50685997628E+02  0.00000000000E+00 0. -1.
        -11    1    4    4    0    0  0.44644457668E+02 -0.63365432058E+01 -0.39877352635E+02  0.60195370532E+02  0.00000000000E+00 0. -1.
         11    1    4    4    0    0 -0.25421816214E+02 -0.31271811791E+02  0.11203336962E+02  0.41829531570E+02  0.00000000000E+00 0.  1.
          1    1    1    2  501    0  0.14466178928E+02  0.25041610704E+02 -0.39853700340E+02  0.49240938560E+02  0.00000000000E+00 0. -1.
<scales pt_clust_5="13000.00000" pt_clust_6="13000.00000" pt_clust_7="13000.00000" pt_clust_8="13000.00000" pt_clust_9="13000.00000"></scales>
<clustering>
<clus scale="   80.268">  5  6 -1 -1</clus>
<clus scale="   87.953">  2  5  1 -1</clus>
<clus scale="   88.334">  7  8 -1 -1</clus>
<clus scale="   30.147">  7  9 -1 -1</clus>
<clus scale="  134.853">  1  5  2 -1</clus>
</clustering>
</event>
<event>
 9    2  0.4178938E-005  0.1973975E+03  0.7546771E-02  0.1185140E+00
          4   -1    0    0  502    0 -0.00000000000E+00  0.00000000000E+00  0.50156399027E+02  0.50156399027E+02  0.00000000000E+00 0. -1.
         21   -1    0    0  501  502  0.00000000000E+00 -0.00000000000E+00 -0.44912257740E+03  0.44912257740E+03  0.00000000000E+00 0.  1.
         24    2    1    2    0    0  0.24911109972E+01  0.48183429093E+02 -0.19354150237E+03  0.21438410790E+03  0.78577249288E+02 0.  0.
         23    2    1    2    0    0  0.26437996088E+02  0.38064535023E+02 -0.77308211224E+02  0.12776615346E+03  0.90552492979E+02 0.  0.
        -11    1    3    3    0    0  0.34341645055E+02  0.47520224395E+02 -0.14406276486E+03  0.15553649261E+03  0.00000000000E+00 0.  1.
         12    1    3    3    0    0 -0.31850534058E+02  0.66320469797E+00 -0.49478737507E+02  0.58847615292E+02  0.00000000000E+00 0. -1.
        -11    1    4    4    0    0  0.47830028600E+02 -0.13763316029E+01 -0.65953596511E+02  0.81483021651E+02  0.00000000000E+00 0. -1.
         11    1    4    4    0    0 -0.21392032512E+02  0.39440866626E+02 -0.11354614713E+02  0.46283131814E+02  0.00000000000E+00 0.  1.
          3    1    1    2  501    0 -0.28929107085E+02 -0.86247964116E+02 -0.12811646478E+03  0.15712871507E+03  0.00000000000E+00 0. -1.
<scales pt_clust_5="13000.00000" pt_clust_6="13000.00000" pt_clust_7="13000.00000" pt_clust_8="13000.00000" pt_clust_9="13000.00000"></scales>
<clustering>
<clus scale="   78.577">  5  6 -1 -1</clus>
<clus scale="   90.552">  7  8 -1 -1</clus>
<clus scale="   90.970">  7  9 -1 -1</clus>
<clus scale="   92.208">  1  5  2 -1</clus>
<clus scale="  197.398">  2  5  1 -1</clus>
</clustering>
</event>
<event>
 9    2  0.4178938E-005  0.4447150E+03  0.7546771E-02  0.1053315E+00
          4   -1    0    0  502    0 -0.00000000000E+00  0.00000000000E+00  0.13749345847E+03  0.13749345847E+03  0.00000000000E+00 0. -1.
         21   -1    0    0  501  502  0.00000000000E+00 -0.00000000000E+00 -0.93702355010E+03  0.93702355010E+03  0.00000000000E+00 0. -1.
         24    2    1    2    0    0 -0.92728019372E+02 -0.18347486249E+03 -0.47451578376E+03  0.52369422811E+03  0.82637187597E+02 0.  0.
         23    2    1    2    0    0 -0.67029784822E+02  0.29059225545E+02  0.39893551880E+02  0.12359392955E+03  0.91359363498E+02 0.  0.
        -13    1    3    3    0    0 -0.33506610345E+02 -0.11162927874E+02 -0.45562782667E+02  0.57647819212E+02  0.00000000000E+00 0.  1.
         14    1    3    3    0    0 -0.59221409027E+02 -0.17231193461E+03 -0.42895300109E+03  0.46604640890E+03  0.00000000000E+00 0. -1.
        -13    1    4    4    0    0 -0.26600581531E+02  0.58609341219E+02  0.96233169435E+01  0.65078829468E+02  0.00000000000E+00 0.  1.
         13    1    4    4    0    0 -0.40429203291E+02 -0.29550115674E+02  0.30270234936E+02  0.58515100087E+02  0.00000000000E+00 0. -1.
          3    1    1    2  501    0  0.15975780419E+03  0.15441563694E+03 -0.36490785975E+03  0.42722885090E+03  0.00000000000E+00 0. -1.
<scales pt_clust_5="13000.00000" pt_clust_6="13000.00000" pt_clust_7="13000.00000" pt_clust_8="13000.00000" pt_clust_9="13000.00000"></scales>
<clustering>
<clus scale="   82.637">  5  6 -1 -1</clus>
<clus scale="   91.359">  7  8 -1 -1</clus>
<clus scale="  221.564">  1  5  2 -1</clus>
<clus scale="  169.618">  7  9 -1 -1</clus>
<clus scale="  444.715">  2  5  1 -1</clus>
</clustering>
</event>
<event>
 9    2  0.4178938E-005  0.2693150E+03  0.7546771E-02  0.1150401E+00
          2   -1    0    0  502    0 -0.00000000000E+00  0.00000000000E+00  0.67138101061E+02  0.67138101061E+02  0.00000000000E+00 0. -1.
         21   -1    0    0  501  502  0.00000000000E+00 -0.00000000000E+00 -0.11526603847E+04  0.11526603847E+04  0.00000000000E+00 0. -1.
         24    2    1    2    0    0  0.11523888216E+02  0.10724231868E+02  0.19061430158E+02  0.82857088928E+02  0.79083183529E+02 0.  0.
         23    2    1    2    0    0 -0.11939314403E+03 -0.36533652314E+02 -0.51541723479E+03  0.53742572354E+03  0.87074978128E+02 0.  0.
        -13    1    3    3    0    0 -0.17285489817E+02  0.33697888650E+02  0.25215247976E+02  0.45498841614E+02  0.00000000000E+00 0.  1.
         14    1    3    3    0    0  0.28809378033E+02 -0.22973656782E+02 -0.61538178185E+01  0.37358247314E+02  0.00000000000E+00 0. -1.
        -13    1    4    4    0    0 -0.28963843963E+02 -0.52642533728E+02 -0.22008469709E+03  0.22813902452E+03  0.00000000000E+00 0. -1.
         13    1    4    4    0    0 -0.90429300065E+02  0.16108881414E+02 -0.29533253770E+03  0.30928669902E+03  0.00000000000E+00 0.  1.
          1    1    1    2  501    0  0.10786925581E+03  0.25809420446E+02 -0.58916647902E+03  0.59951567330E+03  0.00000000000E+00 0. -1.
<scales pt_clust_5="13000.00000" pt_clust_6="13000.00000" pt_clust_7="13000.00000" pt_clust_8="13000.00000" pt_clust_9="13000.00000"></scales>
<clustering>
<clus scale="   79.083">  5  6 -1 -1</clus>
<clus scale="   80.635">  1  5  2 -1</clus>
<clus scale="   87.075">  7  8 -1 -1</clus>
<clus scale="  115.323">  7  9 -1 -1</clus>
<clus scale="  269.315">  2  5  1 -1</clus>
</clustering>
</event>
<event>
 9    2  0.4178938E-005  0.1987262E+03  0.7546771E-02  0.1188878E+00
         21   -1    0    0  501  502  0.00000000000E+00  0.00000000000E+00  0.33052320506E+02  0.33052320506E+02  0.00000000000E+00 0. -1.
          2   -1    0    0  502    0 -0.00000000000E+00 -0.00000000000E+00 -0.15554852822E+04  0.15554852822E+04  0.00000000000E+00 0. -1.
         24    2    1    2    0    0  0.98305844502E+01 -0.21003374980E+02 -0.12422672103E+04  0.12450482446E+04  0.79871944110E+02 0.  0.
         23    2    1    2    0    0 -0.34240299111E+02 -0.57655220678E+02 -0.19350976209E+03  0.22393907862E+03  0.90587859868E+02 0.  0.
        -13    1    3    3    0    0 -0.66038417739E+01 -0.21615782462E+02 -0.94577614205E+02  0.97240824175E+02  0.00000000000E+00 0.  1.
         14    1    3    3    0    0  0.16434426224E+02  0.61240748148E+00 -0.11476895961E+04  0.11478074204E+04  0.00000000000E+00 0. -1.
        -13    1    4    4    0    0 -0.48434206015E+02  0.27657486479E+01 -0.10683470699E+03  0.11733361111E+03  0.00000000000E+00 0.  1.
         13    1    4    4    0    0  0.14193906904E+02 -0.60420969326E+02 -0.86675055102E+02  0.10660546752E+03  0.00000000000E+00 0. -1.
          1    1    1    2  501    0  0.24409714661E+02  0.78658595658E+02 -0.86655989295E+02  0.11955027947E+03  0.00000000000E+00 0. -1.
<scales pt_clust_5="13000.00000" pt_clust_6="13000.00000" pt_clust_7="13000.00000" pt_clust_8="13000.00000" pt_clust_9="13000.00000"></scales>
<clustering>
<clus scale="   79.872">  5  6 -1 -1</clus>
<clus scale="   83.170">  2  5  1 -1</clus>
<clus scale="   90.588">  7  8 -1 -1</clus>
<clus scale="   76.863">  7  9 -1 -1</clus>
<clus scale="  198.726">  1  5  2 -1</clus>
</clustering>
</event>
<event>
 9    2  0.4178938E-005  0.5105086E+03  0.7546771E-02  0.1054558E+00
          2   -1    0    0  502    0 -0.00000000000E+00  0.00000000000E+00  0.97583365729E+03  0.97583365729E+03  0.00000000000E+00 0. -1.
         21   -1    0    0  501  502  0.00000000000E+00 -0.00000000000E+00 -0.20503668252E+03  0.20503668252E+03  0.00000000000E+00 0. -1.
         24    2    1    2    0    0 -0.40510547548E+02 -0.11271158377E+03  0.63784886688E+03  0.65333434019E+03  0.75163671498E+02 0.  0.
         23    2    1    2    0    0 -0.19017616937E+03  0.84691687589E+02  0.17971388484E+03  0.29049483477E+03  0.93544167528E+02 0.  0.
        -11    1    3    3    0    0  0.19499292591E+01 -0.27050266090E+02  0.42908023191E+02  0.50760393752E+02  0.00000000000E+00 0.  1.
         12    1    3    3    0    0 -0.42460476807E+02 -0.85661317680E+02  0.59494084369E+03  0.60257394644E+03  0.00000000000E+00 0. -1.
        -13    1    4    4    0    0 -0.25654306475E+02 -0.19266805939E+02  0.14492274969E+02  0.35204819067E+02  0.00000000000E+00 0.  1.
         13    1    4    4    0    0 -0.16452186290E+03  0.10395849353E+03  0.16522160987E+03  0.25529001570E+03  0.00000000000E+00 0. -1.
          1    1    1    2  501    0  0.23068671692E+03  0.28019896180E+02 -0.46765776948E+02  0.23704116486E+03  0.00000000000E+00 0. -1.
<scales pt_clust_5="13000.00000" pt_clust_6="13000.00000" pt_clust_7="13000.00000" pt_clust_8="13000.00000" pt_clust_9="13000.00000"></scales>
<clustering>
<clus scale="   75.164">  5  6 -1 -1</clus>
<clus scale="   93.544">  7  8 -1 -1</clus>
<clus scale="  141.402">  1  5  2 -1</clus>
<clus scale="  219.062">  7  9 -1 -1</clus>
<clus scale="  510.509">  2  5  1 -1</clus>
</clustering>
</event>
<event>
 9    2  0.4178938E-005  0.3376139E+03  0.7546771E-02  0.1087325E+00
         21   -1    0    0  501  502  0.00000000000E+00  0.00000000000E+00  0.31640529522E+03  0.31640529522E+03  0.00000000000E+00 0. -1.
          2   -1    0    0  502    0 -0.00000000000E+00 -0.00000000000E+00 -0.23628837914E+03  0.23628837914E+03  0.00000000000E+00 0. -1.
         24    2    1    2    0    0  0.10767381838E+03 -0.14756842815E+03 -0.21090590581E+02  0.20023641829E+03  0.79244672044E+02 0.  0.
         23    2    1    2    0    0 -0.45323171343E+02 -0.34395171869E+02 -0.40548696615E+02  0.11351547219E+03  0.89467021412E+02 0.  0.
        -11    1    3    3    0    0  0.13719512323E+02 -0.40848656868E+02  0.26155082454E+02  0.50407599868E+02  0.00000000000E+00 0.  1.
         12    1    3    3    0    0  0.93954306058E+02 -0.10671977129E+03 -0.47245673035E+02  0.14982881842E+03  0.00000000000E+00 0. -1.
        -13    1    4    4    0    0  0.18404624555E+02  0.98646259711E+01 -0.27982043446E+02  0.34914693268E+02  0.00000000000E+00 0. -1.
         13    1    4    4    0    0 -0.63727795899E+02 -0.44259797840E+02 -0.12566653169E+02  0.78600778920E+02  0.00000000000E+00 0.  1.
          1    1    1    2  501    0 -0.62350647038E+02  0.18196360002E+03  0.14175620327E+03  0.23894178388E+03  0.00000000000E+00 0. -1.
<scales pt_clust_5="13000.00000" pt_clust_6="13000.00000" pt_clust_7="13000.00000" pt_clust_8="13000.00000" pt_clust_9="13000.00000"></scales>
<clustering>
<clus scale="   79.245">  5  6 -1 -1</clus>
<clus scale="   89.467">  7  8 -1 -1</clus>
<clus scale="  192.350">  7  9 -1 -1</clus>
<clus scale="  199.123">  2  5  1 -1</clus>
<clus scale="  337.614">  1  5  2 -1</clus>
</clustering>
</event>
<event>
 9    2  0.4178938E-005  0.1749600E+03  0.7546771E-02  0.1195178E+00
         21   -1    0    0  501  502  0.00000000000E+00  0.00000000000E+00  0.93436229550E+02  0.93436229550E+02  0.00000000000E+00 0. -1.
          2   -1    0    0  502    0 -0.00000000000E+00 -0.00000000000E+00 -0.25164470947E+03  0.25164470947E+03  0.00000000000E+00 0. -1.
         24    2    1    2    0    0 -0.22883643795E+02 -0.64361385308E+02  0.44585253355E+01  0.10618437326E+03  0.81173848026E+02 0.  0.
         23    2    1    2    0    0 -0.55942361896E+01  0.39061346376E+01 -0.85830850059E+02  0.13706522615E+03  0.10664608775E+03 0.  0.
        -11    1    3    3    0    0 -0.36409237796E+02  0.26217465155E+01  0.93265555618E+01  0.37676130246E+02  0.00000000000E+00 0.  1.
         12    1    3    3    0    0  0.13525594001E+02 -0.66983131823E+02 -0.48680302262E+01  0.68508243009E+02  0.00000000000E+00 0. -1.
        -11    1    4    4    0    0  0.77687865667E+01  0.44591202978E+02 -0.49314262294E+01  0.45530741180E+02  0.00000000000E+00 0. -1.
         11    1    4    4    0    0 -0.13363022756E+02 -0.40685068340E+02 -0.80899423830E+02  0.91534484972E+02  0.00000000000E+00 0.  1.
          1    1    1    2  501    0  0.28477879985E+02  0.60455250670E+02 -0.76836155192E+02  0.10183133961E+03  0.00000000000E+00 0. -1.
<scales pt_clust_5="13000.00000" pt_clust_6="13000.00000" pt_clust_7="13000.00000" pt_clust_8="13000.00000" pt_clust_9="13000.00000"></scales>
<clustering>
<clus scale="   81.174">  5  6 -1 -1</clus>
<clus scale="  106.091">  2  5  1 -1</clus>
<clus scale="  106.646">  7  8 -1 -1</clus>
<clus scale="   36.704">  7  9 -1 -1</clus>
<clus scale="  174.960">  1  5  2 -1</clus>
</clustering>
</event>
<event>
 9    2  0.5774305E-005  0.4414435E+03  0.7546771E-02  0.1043277E+00
          2   -1    0    0  502    0 -0.00000000000E+00  0.00000000000E+00  0.91772005717E+03  0.91772005717E+03  0.00000000000E+00 0. -1.
         21   -1    0    0  501  502  0.00000000000E+00 -0.00000000000E+00 -0.20845855002E+03  0.20845855002E+03  0.00000000000E+00 0. -1.
         24    2    1    2    0    0 -0.27346027567E+03  0.99504123265E+02  0.13569463544E+02  0.30224913955E+03  0.80553206647E+02 0.  0.
         23    2    1    2    0    0 -0.42706331368E+02  0.20118968672E+02  0.18502046472E+03  0.21151092692E+03  0.90970853583E+02 0.  0.
        -11    1    3    3    0    0 -0.61067500599E+02  0.16891409889E+02  0.36637947168E+02  0.73190836381E+02  0.00000000000E+00 0.  1.
         12    1    3    3    0    0 -0.21239277507E+03  0.82612713376E+02 -0.23068483624E+02  0.22905830317E+03  0.00000000000E+00 0. -1.
        -11    1    4    4    0    0 -0.22943618011E+02  0.55560865021E+02  0.12919875830E+03  0.14249820517E+03  0.00000000000E+00 0. -1.
         11    1    4    4    0    0 -0.19762713357E+02 -0.35441896349E+02  0.55821706416E+02  0.69012721750E+02  0.00000000000E+00 0.  1.
          1    1    1    2  501    0  0.31616660704E+03 -0.11962309194E+03  0.51067157889E+03  0.61241854072E+03  0.00000000000E+00 0. -1.
<scales pt_clust_5="13000.00000" pt_clust_6="13000.00000" pt_clust_7="13000.00000" pt_clust_8="13000.00000" pt_clust_9="13000.00000"></scales>
<clustering>
<clus scale="   80.553">  5  6 -1 -1</clus>
<clus scale="   90.971">  7  8 -1 -1</clus>
<clus scale="  301.945">  1  5  2 -1</clus>
<clus scale="  123.021">  7  9 -1 -1</clus>
<clus scale="  441.443">  2  5  1 -1</clus>
</clustering>
</event>
<event>
 9    2  0.4178938E-005  0.3043322E+03  0.7546771E-02  0.1115622E+00
         21   -1    0    0  501  502  0.00000000000E+00  0.00000000000E+00  0.56353324566E+03  0.56353324566E+03  0.00000000000E+00 0.  1.
          2   -1    0    0  502    0 -0.00000000000E+00 -0.00000000000E+00 -0.93456582304E+02  0.93456582304E+02  0.00000000000E+00 0. -1.
         24    2    1    2    0    0 -0.98544937597E+02 -0.33966114104E+02  0.53830556410E+02  0.14135532576E+03  0.78859353817E+02 0.  0.
         23    2    1    2    0    0 -0.71171848019E+02  0.11536116509E+02  0.91791089533E+02  0.14878582708E+03  0.92266485185E+02 0.  0.
        -11    1    3    3    0    0 -0.93742212927E+02  0.24508161059E+01  0.35147233674E+02  0.10014458058E+03  0.00000000000E+00 0.  1.
         12    1    3    3    0    0 -0.48027246698E+01 -0.36416930210E+02  0.18683322736E+02  0.41210745185E+02  0.00000000000E+00 0. -1.
        -13    1    4    4    0    0 -0.55431137754E+02 -0.36224272854E+02  0.59505235318E+02  0.89026299523E+02  0.00000000000E+00 0.  1.
         13    1    4    4    0    0 -0.15740710265E+02  0.47760389363E+02  0.32285854215E+02  0.59759527559E+02  0.00000000000E+00 0. -1.
          1    1    1    2  501    0  0.16971678562E+03  0.22429997596E+02  0.32445501741E+03  0.36684867512E+03  0.00000000000E+00 0. -1.
<scales pt_clust_5="13000.00000" pt_clust_6="13000.00000" pt_clust_7="13000.00000" pt_clust_8="13000.00000" pt_clust_9="13000.00000"></scales>
<clustering>
<clus scale="   78.859">  5  6 -1 -1</clus>
<clus scale="   92.266">  7  8 -1 -1</clus>
<clus scale="  130.704">  2  5  1 -1</clus>
<clus scale="  127.930">  7  9 -1 -1</clus>
<clus scale="  304.332">  1  5  2 -1</clus>
</clustering>
</event>
<event>
 9    2  0.4178938E-005  0.1863232E+03  0.7546771E-02  0.1191823E+00
         -1   -1    0    0    0  501 -0.00000000000E+00  0.00000000000E+00  0.92769257085E+02  0.92769257085E+02  0.00000000000E+00 0.  1.
         21   -1    0    0  501  502  0.00000000000E+00 -0.00000000000E+00 -0.21260773306E+03  0.21260773306E+03  0.00000000000E+00 0.  1.
         24    2    1    2    0    0 -0.22081943603E+01 -0.46565108845E+02 -0.40086342394E+02  0.10270302278E+03  0.82266703823E+02 0.  0.
         23    2    1    2    0    0  0.31228047060E+02  0.46989968829E+02 -0.11723751024E+03  0.15526631164E+03  0.84733379666E+02 0.  0.
        -13    1    3    3    0    0  0.39552932375E+02 -0.18660310058E+02 -0.12928422070E+02  0.45604667833E+02  0.00000000000E+00 0.  1.
         14    1    3    3    0    0 -0.41761126735E+02 -0.27904798787E+02 -0.27157920324E+02  0.57098354949E+02  0.00000000000E+00 0. -1.
        -13    1    4    4    0    0  0.11133988791E+02  0.18348064299E+02 -0.11833109946E+03  0.12026165752E+03  0.00000000000E+00 0.  1.
         13    1    4    4    0    0  0.20094058269E+02  0.28641904530E+02  0.10935892185E+01  0.35004654122E+02  0.00000000000E+00 0. -1.
         -2    1    1    2    0  502 -0.29019852700E+02 -0.42485998406E+00  0.37485376666E+02  0.47407655716E+02  0.00000000000E+00 0.  1.
<scales pt_clust_5="13000.00000" pt_clust_6="13000.00000" pt_clust_7="13000.00000" pt_clust_8="13000.00000" pt_clust_9="13000.00000"></scales>
<clustering>
<clus scale="   82.267">  5  6 -1 -1</clus>
<clus scale="   84.733">  7  8 -1 -1</clus>
<clus scale="   29.023">  7  9 -1 -1</clus>
<clus scale="   94.557">  1  5  2 -1</clus>
<clus scale="  186.323">  2  5  1 -1</clus>
</clustering>
</event>
<event>
 9    2  0.4178938E-005  0.1506668E+03  0.7546771E-02  0.1229699E+00
          4   -1    0    0  502    0 -0.00000000000E+00  0.00000000000E+00  0.42895233814E+02  0.42895233814E+02  0.00000000000E+00 0. -1.
         21   -1    0    0  501  502  0.00000000000E+00 -0.00000000000E+00 -0.35646845111E+03  0.35646845111E+03  0.00000000000E+00 0. -1.
         24    2    1    2    0    0  0.58574911574E+01 -0.72918676598E+01 -0.45334936964E+02  0.91707618037E+02  0.79167854334E+02 0.  0.
         23    2    1    2    0    0  0.34905623872E+02  0.31067255081E+02 -0.18947485192E+03  0.21583788650E+03  0.92204646430E+02 0.  0.
        -11    1    3    3    0    0  0.75443718144E+01 -0.38171652877E+02 -0.46658270152E+02  0.60753492106E+02  0.00000000000E+00 0.  1.
         12    1    3    3    0    0 -0.16868806570E+01  0.30879785217E+02  0.13233331882E+01  0.30954125931E+02  0.00000000000E+00 0. -1.
        -13    1    4    4    0    0  0.87760579682E+01  0.50578350096E+02 -0.46738997305E+02  0.69424221717E+02  0.00000000000E+00 0. -1.
         13    1    4    4    0    0  0.26129565903E+02 -0.19511095015E+02 -0.14273585462E+03  0.14641366479E+03  0.00000000000E+00 0.  1.
          3    1    1    2  501    0 -0.40763115029E+02 -0.23775387421E+02 -0.78763428405E+02  0.91818180378E+02  0.00000000000E+00 0. -1.
<scales pt_clust_5="13000.00000" pt_clust_6="13000.00000" pt_clust_7="13000.00000" pt_clust_8="13000.00000" pt_clust_9="13000.00000"></scales>
<clustering>
<clus scale="   79.168">  5  6 -1 -1</clus>
<clus scale="   79.718">  1  5  2 -1</clus>
<clus scale="   92.205">  7  8 -1 -1</clus>
<clus scale="   46.831">  7  9 -1 -1</clus>
<clus scale="  150.667">  2  5  1 -1</clus>
</clustering>
</event>
<event>
 9    2  0.4178938E-005  0.1480947E+03  0.7546771E-02  0.1223693E+00
         21   -1    0    0  501  502  0.00000000000E+00  0.00000000000E+00  0.32109450886E+02  0.32109450886E+02  0.00000000000E+00 0. -1.
          2   -1    0    0  502    0 -0.00000000000E+00 -0.00000000000E+00 -0.46445781837E+03  0.46445781837E+03  0.00000000000E+00 0. -1.
         24    2    1    2    0    0 -0.53324629311E+02 -0.47882959304E+01 -0.14696641403E+03  0.17504761153E+03  0.78588138920E+02 0.  0.
         23    2    1    2    0    0  0.12309985177E+02 -0.25107950381E+02 -0.21384812872E+03  0.23380948353E+03  0.90298989607E+02 0.  0.
        -13    1    3    3    0    0 -0.31829022053E+02 -0.41521535364E+02 -0.75164664152E+02  0.91579753662E+02  0.00000000000E+00 0.  1.
         14    1    3    3    0    0 -0.21495607259E+02  0.36733239434E+02 -0.71801749878E+02  0.83467857863E+02  0.00000000000E+00 0. -1.
        -13    1    4    4    0    0  0.11930766186E+02  0.31349925931E+02 -0.47566770239E+02  0.58204455745E+02  0.00000000000E+00 0.  1.
         13    1    4    4    0    0  0.37921899119E+00 -0.56457876312E+02 -0.16628135849E+03  0.17560502779E+03  0.00000000000E+00 0. -1.
          1    1    1    2  501    0  0.41014644134E+02  0.29896246311E+02 -0.71533824727E+02  0.87710174193E+02  0.00000000000E+00 0. -1.
<scales pt_clust_5="13000.00000" pt_clust_6="13000.00000" pt_clust_7="13000.00000" pt_clust_8="13000.00000" pt_clust_9="13000.00000"></scales>
<clustering>
<clus scale="   78.588">  5  6 -1 -1</clus>
<clus scale="   90.299">  7  8 -1 -1</clus>
<clus scale="   50.754">  7  9 -1 -1</clus>
<clus scale="   95.092">  2  5  1 -1</clus>
<clus scale="  148.095">  1  5  2 -1</clus>
</clustering>
</event>
<event>
 9    2  0.4178938E-005  0.1941897E+03  0.7546771E-02  0.1188943E+00
         21   -1    0    0  501  502  0.00000000000E+00  0.00000000000E+00  0.49471569251E+02  0.49471569251E+02  0.00000000000E+00 0. -1.
          2   -1    0    0  502    0 -0.00000000000E+00 -0.00000000000E+00 -0.42464212943E+03  0.42464212943E+03  0.00000000000E+00 0. -1.
         24    2    1    2    0    0  0.22452697676E+01 -0.38127469124E+02 -0.16824955238E+03  0.19034275424E+03  0.80397183274E+02 0.  0.
         23    2    1    2    0    0 -0.93311660301E+01 -0.36841981732E+02 -0.17713259727E+03  0.20278960159E+03  0.91122243280E+02 0.  0.
        -11    1    3    3    0    0 -0.27373637721E+02 -0.32302074636E+02 -0.38832099563E+02  0.57451475389E+02  0.00000000000E+00 0.  1.
         12    1    3    3    0    0  0.29618907489E+02 -0.58253944883E+01 -0.12941745281E+03  0.13289127885E+03  0.00000000000E+00 0. -1.
        -11    1    4    4    0    0 -0.46748533531E+02 -0.27424944373E+02 -0.13595234095E+03  0.14635775337E+03  0.00000000000E+00 0.  1.
         11    1    4    4    0    0  0.37417367501E+02 -0.94170373595E+01 -0.41180256320E+02  0.56431848223E+02  0.00000000000E+00 0. -1.
          1    1    1    2  501    0  0.70858962625E+01  0.74969450856E+02 -0.29788410531E+02  0.80981342848E+02  0.00000000000E+00 0. -1.
<scales pt_clust_5="13000.00000" pt_clust_6="13000.00000" pt_clust_7="13000.00000" pt_clust_8="13000.00000" pt_clust_9="13000.00000"></scales>
<clustering>
<clus scale="   80.397">  5  6 -1 -1</clus>
<clus scale="   89.008">  2  5  1 -1</clus>
<clus scale="   91.122">  7  8 -1 -1</clus>
<clus scale="   66.795">  7  9 -1 -1</clus>
<clus scale="  194.190">  1  5  2 -1</clus>
</clustering>
</event>
<event>
 9    2  0.4178938E-005  0.2580895E+03  0.7546771E-02  0.1154536E+00
         -3   -1    0    0    0  501 -0.00000000000E+00  0.00000000000E+00  0.87818454779E+03  0.87818454779E+03  0.00000000000E+00 0.  1.
         21   -1    0    0  501  502  0.00000000000E+00 -0.00000000000E+00 -0.48243489561E+02  0.48243489561E+02  0.00000000000E+00 0.  1.
         24    2    1    2    0    0  0.12570184037E+02  0.10278497953E+02  0.34179195669E+02  0.89859381823E+02  0.81503582977E+02 0.  0.
         23    2    1    2    0    0  0.81285297517E+02 -0.51857301701E+02  0.26973995207E+03  0.30062397680E+03  0.91206657399E+02 0.  0.
        -13    1    3    3    0    0  0.47128877791E+02  0.52701241544E+00  0.21160689938E+02  0.51664142910E+02  0.00000000000E+00 0.  1.
         14    1    3    3    0    0 -0.34558693754E+02  0.97514855379E+01  0.13018505731E+02  0.38195238913E+02  0.00000000000E+00 0. -1.
        -13    1    4    4    0    0 -0.47617673974E+01 -0.46151935174E+02  0.89161106151E+02  0.10051058849E+03  0.00000000000E+00 0. -1.
         13    1    4    4    0    0  0.86047064915E+02 -0.57053665270E+01  0.18057884592E+03  0.20011338831E+03  0.00000000000E+00 0.  1.
         -4    1    1    2    0  502 -0.93855481554E+02  0.41578803748E+02  0.52602191049E+03  0.53594467872E+03  0.00000000000E+00 0.  1.
<scales pt_clust_5="13000.00000" pt_clust_6="13000.00000" pt_clust_7="13000.00000" pt_clust_8="13000.00000" pt_clust_9="13000.00000"></scales>
<clustering>
<clus scale="   81.504">  5  6 -1 -1</clus>
<clus scale="   83.105">  1  5  2 -1</clus>
<clus scale="   91.207">  7  8 -1 -1</clus>
<clus scale="   98.337">  7  9 -1 -1</clus>
<clus scale="  258.089">  2  5  1 -1</clus>
</clustering>
</event>
<event>
 9    2  0.4178938E-005  0.1156381E+04  0.7546771E-02  0.9629404E-01
         21   -1    0    0  501  502  0.00000000000E+00  0.00000000000E+00  0.61947907816E+03  0.61947907816E+03  0.00000000000E+00 0. -1.
         -1   -1    0    0    0  501 -0.00000000000E+00 -0.00000000000E+00 -0.75303515788E+03  0.75303515788E+03  0.00000000000E+00 0.  1.
         24    2    1    2    0    0  0.34737664129E+02  0.18970583340E+03 -0.33403797391E+01  0.20882518070E+03  0.80011183111E+02 0.  0.
         23    2    1    2    0    0  0.19397511300E+03  0.41460973702E+03  0.10103623854E+03  0.47740609464E+03  0.90447107229E+02 0.  0.
        -13    1    3    3    0    0 -0.19411250176E+02  0.79200450610E+02  0.19063709205E+02  0.83743256558E+02  0.00000000000E+00 0.  1.
         14    1    3    3    0    0  0.54148914306E+02  0.11050538279E+03 -0.22404088944E+02  0.12508192415E+03  0.00000000000E+00 0. -1.
        -13    1    4    4    0    0  0.40404423031E+02  0.30025372093E+02 -0.29891008679E+01  0.50427919785E+02  0.00000000000E+00 0.  1.
         13    1    4    4    0    0  0.15357068997E+03  0.38458436493E+03  0.10402533941E+03  0.42697817485E+03  0.00000000000E+00 0. -1.
         -2    1    1    2    0  502 -0.22871277713E+03 -0.60431557042E+03 -0.23125193851E+03  0.68628296070E+03  0.00000000000E+00 0.  1.
<scales pt_clust_5="13000.00000" pt_clust_6="13000.00000" pt_clust_7="13000.00000" pt_clust_8="13000.00000" pt_clust_9="13000.00000"></scales>
<clustering>
<clus scale="   80.011">  5  6 -1 -1</clus>
<clus scale="   90.447">  7  8 -1 -1</clus>
<clus scale="  208.799">  2  5  1 -1</clus>
<clus scale="  512.204">  7  9 -1 -1</clus>
<clus scale=" 1156.381">  1  5  2 -1</clus>
</clustering>
</event>
<event>
 9    2  0.4178938E-005  0.2186276E+03  0.7546771E-02  0.1177651E+00
          2   -1    0    0  502    0 -0.00000000000E+00  0.00000000000E+00  0.21521599002E+03  0.21521599002E+03  0.00000000000E+00 0. -1.
         21   -1    0    0  501  502  0.00000000000E+00 -0.00000000000E+00 -0.10977979518E+03  0.10977979518E+03  0.00000000000E+00 0.  1.
         24    2    1    2    0    0  0.12530360939E+02  0.51896641526E+01  0.63556217528E+02  0.10239310907E+03  0.79126565958E+02 0.  0.
         23    2    1    2    0    0 -0.58217391306E+02  0.11023869594E+02 -0.50498036734E+02  0.11827683609E+03  0.89042506092E+02 0.  0.
        -13    1    3    3    0    0 -0.29261482631E+02  0.13904385170E+02  0.10002800131E+02  0.33906080623E+02  0.00000000000E+00 0.  1.
         14    1    3    3    0    0  0.41791843570E+02 -0.87147210178E+01  0.53553417396E+02  0.68487028452E+02  0.00000000000E+00 0. -1.
        -13    1    4    4    0    0 -0.15132811548E+02  0.45939790092E+02 -0.37796956248E+02  0.61384657697E+02  0.00000000000E+00 0. -1.
         13    1    4    4    0    0 -0.43084579759E+02 -0.34915920498E+02 -0.12701080486E+02  0.56892178397E+02  0.00000000000E+00 0.  1.
          1    1    1    2  501    0  0.45687030367E+02 -0.16213533746E+02  0.92378014042E+02  0.10432584003E+03  0.00000000000E+00 0. -1.
<scales pt_clust_5="13000.00000" pt_clust_6="13000.00000" pt_clust_7="13000.00000" pt_clust_8="13000.00000" pt_clust_9="13000.00000"></scales>
<clustering>
<clus scale="   79.127">  5  6 -1 -1</clus>
<clus scale="   80.280">  1  5  2 -1</clus>
<clus scale="   89.043">  7  8 -1 -1</clus>
<clus scale="   56.376">  7  9 -1 -1</clus>
<clus scale="  218.628">  2  5  1 -1</clus>
</clustering>
</event>
<event>
 9    2  0.4178938E-005  0.1876488E+03  0.7546771E-02  0.1197435E+00
          2   -1    0    0  502    0 -0.00000000000E+00  0.00000000000E+00  0.33065509446E+03  0.33065509446E+03  0.00000000000E+00 0. -1.
         21   -1    0    0  501  502  0.00000000000E+00 -0.00000000000E+00 -0.12936017015E+03  0.12936017015E+03  0.00000000000E+00 0.  1.
         24    2    1    2    0    0  0.13276799029E+02  0.83568030711E+01  0.25255748811E+03  0.26549039842E+03  0.80335280546E+02 0.  0.
         23    2    1    2    0    0 -0.16009245164E+02 -0.45479581219E+02 -0.90518043620E+02  0.14042718034E+03  0.95924910836E+02 0.  0.
        -13    1    3    3    0    0  0.28298626494E+02 -0.20586094599E+02  0.20412754052E+03  0.20710541362E+03  0.00000000000E+00 0.  1.
         14    1    3    3    0    0 -0.15021827465E+02  0.28942897670E+02  0.48429947591E+02  0.58384984796E+02  0.00000000000E+00 0. -1.
        -11    1    4    4    0    0 -0.56181283644E+02 -0.29745203840E+02 -0.61375543206E+02  0.88363290382E+02  0.00000000000E+00 0.  1.
         11    1    4    4    0    0  0.40172038480E+02 -0.15734377379E+02 -0.29142500414E+02  0.52063889958E+02  0.00000000000E+00 0. -1.
          1    1    1    2  501    0  0.27324461348E+01  0.37122778148E+02  0.39255479810E+02  0.54097685850E+02  0.00000000000E+00 0. -1.
<scales pt_clust_5="13000.00000" pt_clust_6="13000.00000" pt_clust_7="13000.00000" pt_clust_8="13000.00000" pt_clust_9="13000.00000"></scales>
<clustering>
<clus scale="   80.335">  5  6 -1 -1</clus>
<clus scale="   81.853">  1  5  2 -1</clus>
<clus scale="   95.925">  7  8 -1 -1</clus>
<clus scale="   44.064">  7  9 -1 -1</clus>
<clus scale="  187.649">  2  5  1 -1</clus>
</clustering>
</event>
<event>
 9    2  0.4178938E-005  0.2932022E+03  0.7546771E-02  0.1117753E+00
         21   -1    0    0  501  502  0.00000000000E+00  0.00000000000E+00  0.68758081490E+02  0.68758081490E+02  0.00000000000E+00 0. -1.
          2   -1    0    0  502    0 -0.00000000000E+00 -0.00000000000E+00 -0.71990524098E+03  0.71990524098E+03  0.00000000000E+00 0. -1.
         24    2    1    2    0    0  0.68990108743E+02 -0.89431905915E+02 -0.12626733135E+03  0.18744259301E+03  0.80209636633E+02 0.  0.
         23    2    1    2    0    0  0.53886084691E+02  0.20475107544E+02 -0.78547280796E+02  0.13317549471E+03  0.90791502454E+02 0.  0.
        -11    1    3    3    0    0 -0.18171548525E+02 -0.15446301862E+02 -0.16929995067E+02  0.29247532375E+02  0.00000000000E+00 0.  1.
         12    1    3    3    0    0  0.87161657268E+02 -0.73985604053E+02 -0.10933733628E+03  0.15819506064E+03  0.00000000000E+00 0. -1.
        -13    1    4    4    0    0  0.63496325781E+02 -0.32661287177E+01 -0.85581588721E+02  0.10661453612E+03  0.00000000000E+00 0. -1.
         13    1    4    4    0    0 -0.96102410896E+01  0.23741236262E+02  0.70343079244E+01  0.26560958586E+02  0.00000000000E+00 0.  1.
          1    1    1    2  501    0 -0.12287619343E+03  0.68956798371E+02 -0.44633254734E+03  0.46804523475E+03  0.00000000000E+00 0. -1.
<scales pt_clust_5="13000.00000" pt_clust_6="13000.00000" pt_clust_7="13000.00000" pt_clust_8="13000.00000" pt_clust_9="13000.00000"></scales>
<clustering>
<clus scale="   80.210">  5  6 -1 -1</clus>
<clus scale="   90.792">  7  8 -1 -1</clus>
<clus scale="  138.533">  2  5  1 -1</clus>
<clus scale="   66.957">  7  9 -1 -1</clus>
<clus scale="  293.202">  1  5  2 -1</clus>
</clustering>
</event>
<event>
 9    2  0.4178938E-005  0.2472057E+03  0.7546771E-02  0.1153571E+00
          2   -1    0    0  502    0 -0.00000000000E+00  0.00000000000E+00  0.73238797651E+03  0.73238797651E+03  0.00000000000E+00 0. -1.
         21   -1    0    0  501  502  0.00000000000E+00 -0.00000000000E+00 -0.85040661079E+02  0.85040661079E+02  0.00000000000E+00 0.  1.
         24    2    1    2    0    0 -0.51429112955E+02  0.12149149234E+02  0.53884227194E+03  0.54745824308E+03  0.81036895342E+02 0.  0.
         23    2    1    2    0    0  0.14385600283E+02  0.17462141043E+02  0.16904540636E+03  0.19306665025E+03  0.90479335553E+02 0.  0.
        -13    1    3    3    0    0 -0.19145967467E+02 -0.22872421410E+02  0.68528166754E+02  0.74738379498E+02  0.00000000000E+00 0.  1.
         14    1    3    3    0    0 -0.32283145488E+02  0.35021570644E+02  0.47031410518E+03  0.47271986358E+03  0.00000000000E+00 0. -1.
        -13    1    4    4    0    0  0.43735888162E+02  0.18430933095E+02  0.15172093968E+03  0.15897097454E+03  0.00000000000E+00 0. -1.
         13    1    4    4    0    0 -0.29350287880E+02 -0.96879205198E+00  0.17324466684E+02  0.34095675716E+02  0.00000000000E+00 0.  1.
          1    1    1    2  501    0  0.37043512673E+02 -0.29611290277E+02 -0.60540362872E+02  0.76903744250E+02  0.00000000000E+00 0. -1.
<scales pt_clust_5="13000.00000" pt_clust_6="13000.00000" pt_clust_7="13000.00000" pt_clust_8="13000.00000" pt_clust_9="13000.00000"></scales>
<clustering>
<clus scale="   81.037">  5  6 -1 -1</clus>
<clus scale="   90.479">  7  8 -1 -1</clus>
<clus scale="   47.424">  7  9 -1 -1</clus>
<clus scale="   96.745">  1  5  2 -1</clus>
<clus scale="  247.206">  2  5  1 -1</clus>
</clustering>
</event>
<event>
 9    2  0.4178938E-005  0.3457548E+03  0.7546771E-02  0.1079774E+00
          2   -1    0    0  502    0 -0.00000000000E+00  0.00000000000E+00  0.66149018460E+03  0.66149018460E+03  0.00000000000E+00 0. -1.
         21   -1    0    0  501  502  0.00000000000E+00 -0.00000000000E+00 -0.12956960421E+03  0.12956960421E+03  0.00000000000E+00 0. -1.
         24    2    1    2    0    0 -0.20367148328E+03  0.52934522387E+02  0.29391953677E+03  0.37130881798E+03  0.84837535642E+02 0.  0.
         23    2    1    2    0    0 -0.67829021851E+01 -0.42735477604E+02 -0.87648515508E+00  0.10122696447E+03  0.91508476665E+02 0.  0.
        -11    1    3    3    0    0 -0.22008971731E+02 -0.94811509217E+01  0.51880103607E+01  0.24519431293E+02  0.00000000000E+00 0.  1.
         12    1    3    3    0    0 -0.18166251155E+03  0.62415673308E+02  0.28873152640E+03  0.34678938668E+03  0.00000000000E+00 0. -1.
        -13    1    4    4    0    0  0.16416931127E+02 -0.15237174602E+02  0.40570684294E+02  0.46342934106E+02  0.00000000000E+00 0.  1.
         13    1    4    4    0    0 -0.23199833312E+02 -0.27498303002E+02 -0.41447169449E+02  0.54884030365E+02  0.00000000000E+00 0. -1.
          1    1    1    2  501    0  0.21045438547E+03 -0.10199044783E+02  0.23887752878E+03  0.31852400636E+03  0.00000000000E+00 0. -1.
<scales pt_clust_5="13000.00000" pt_clust_6="13000.00000" pt_clust_7="13000.00000" pt_clust_8="13000.00000" pt_clust_9="13000.00000"></scales>
<clustering>
<clus scale="   84.838">  5  6 -1 -1</clus>
<clus scale="   91.508">  7  8 -1 -1</clus>
<clus scale="  210.701">  7  9 -1 -1</clus>
<clus scale="  226.895">  1  5  2 -1</clus>
<clus scale="  345.755">  2  5  1 -1</clus>
</clustering>
</event>
<event>
 9    2  0.4178938E-005  0.3589461E+03  0.7546771E-02  0.1083704E+00
         21   -1    0    0  501  502  0.00000000000E+00  0.00000000000E+00  0.39512205615E+02  0.39512205615E+02  0.00000000000E+00 0.  1.
         -1   -1    0    0    0  501 -0.00000000000E+00 -0.00000000000E+00 -0.20384205209E+04  0.20384205209E+04  0.00000000000E+00 0.  1.
         24    2    1    2    0    0  0.10638043146E+03  0.12425160161E+03 -0.99944284280E+03  0.10159659032E+04  0.80904040469E+02 0.  0.
         23    2    1    2    0    0  0.85070257275E+02 -0.48899938356E+01 -0.27883884265E+03  0.30684875356E+03  0.95625293077E+02 0.  0.
        -13    1    3    3    0    0  0.81741498603E+02  0.36820958817E+02 -0.42157131757E+03  0.43099864431E+03  0.00000000000E+00 0.  1.
         14    1    3    3    0    0  0.24638932858E+02  0.87430642797E+02 -0.57787152523E+03  0.58496725890E+03  0.00000000000E+00 0. -1.
        -13    1    4    4    0    0  0.33743157349E+02  0.17194189050E+02 -0.21572956460E+02  0.43584782384E+02  0.00000000000E+00 0.  1.
         13    1    4    4    0    0  0.51327099926E+02 -0.22084182886E+02 -0.25726588619E+03  0.26326397118E+03  0.00000000000E+00 0. -1.
         -2    1    1    2    0  502 -0.19145068874E+03 -0.11936160778E+03 -0.72062662981E+03  0.75511806972E+03  0.00000000000E+00 0.  1.
<scales pt_clust_5="13000.00000" pt_clust_6="13000.00000" pt_clust_7="13000.00000" pt_clust_8="13000.00000" pt_clust_9="13000.00000"></scales>
<clustering>
<clus scale="   80.904">  5  6 -1 -1</clus>
<clus scale="   95.625">  7  8 -1 -1</clus>
<clus scale="  182.485">  2  5  1 -1</clus>
<clus scale="  119.238">  7  9 -1 -1</clus>
<clus scale="  358.946">  1  5  2 -1</clus>
</clustering>
</event>
<event>
 9    2  0.4178938E-005  0.2873382E+03  0.7546771E-02  0.1136215E+00
         21   -1    0    0  501  502  0.00000000000E+00  0.00000000000E+00  0.46589181101E+02  0.46589181101E+02  0.00000000000E+00 0. -1.
          2   -1    0    0  502    0 -0.00000000000E+00 -0.00000000000E+00 -0.83659049743E+03  0.83659049743E+03  0.00000000000E+00 0. -1.
         24    2    1    2    0    0 -0.47743998495E+02  0.17295306643E+01 -0.31012808887E+03  0.32385724626E+03  0.80134909850E+02 0.  0.
         23    2    1    2    0    0 -0.53118796254E+02  0.96528788304E+02 -0.29142006318E+03  0.32407236163E+03  0.89206663783E+02 0.  0.
        -11    1    3    3    0    0 -0.29987996418E+02  0.90248291139E+01 -0.30983640818E+02  0.44053529575E+02  0.00000000000E+00 0.  1.
         12    1    3    3    0    0 -0.17756002077E+02 -0.72952984496E+01 -0.27914444805E+03  0.27980371668E+03  0.00000000000E+00 0. -1.
        -11    1    4    4    0    0 -0.76492997590E+02  0.55460993443E+02 -0.19726222893E+03  0.21872239811E+03  0.00000000000E+00 0. -1.
         11    1    4    4    0    0  0.23374201336E+02  0.41067794861E+02 -0.94157834249E+02  0.10534996352E+03  0.00000000000E+00 0.  1.
          1    1    1    2  501    0  0.10086279475E+03 -0.98258318968E+02 -0.18845316428E+03  0.23525007064E+03  0.00000000000E+00 0. -1.
<scales pt_clust_5="13000.00000" pt_clust_6="13000.00000" pt_clust_7="13000.00000" pt_clust_8="13000.00000" pt_clust_9="13000.00000"></scales>
<clustering>
<clus scale="   80.135">  5  6 -1 -1</clus>
<clus scale="   89.207">  7  8 -1 -1</clus>
<clus scale="   93.296">  2  5  1 -1</clus>
<clus scale="  127.051">  7  9 -1 -1</clus>
<clus scale="  287.338">  1  5  2 -1</clus>
</clustering>
</event>
<event>
 9    2  0.4178938E-005  0.1953583E+03  0.7546771E-02  0.1189384E+00
          2   -1    0    0  502    0 -0.00000000000E+00  0.00000000000E+00  0.22124276154E+03  0.22124276154E+03  0.00000000000E+00 0. -1.
         21   -1    0    0  501  502  0.00000000000E+00 -0.00000000000E+00 -0.90656371616E+02  0.90656371616E+02  0.00000000000E+00 0.  1.
         24    2    1    2    0    0 -0.23837283918E+02  0.19552685064E+02  0.54192196697E+02  0.10213509010E+03  0.80896593556E+02 0.  0.
         23    2    1    2    0    0  0.48301869919E+02 -0.34679560952E+01 -0.24332824900E+02  0.10486806289E+03  0.89778209437E+02 0.  0.
        -11    1    3    3    0    0 -0.44854540081E+02  0.14125011337E+02  0.36960296819E+01  0.47171032918E+02  0.00000000000E+00 0.  1.
         12    1    3    3    0    0  0.21017256163E+02  0.54276737273E+01  0.50496167015E+02  0.54964057182E+02  0.00000000000E+00 0. -1.
        -11    1    4    4    0    0  0.71792646884E+02 -0.14372338778E+02 -0.66705547803E+01  0.73520368400E+02  0.00000000000E+00 0.  1.
         11    1    4    4    0    0 -0.23490776965E+02  0.10904382683E+02 -0.17662270120E+02  0.31347694491E+02  0.00000000000E+00 0. -1.
          1    1    1    2  501    0 -0.24464586001E+02 -0.16084728969E+02  0.10072701813E+03  0.10489598017E+03  0.00000000000E+00 0. -1.
<scales pt_clust_5="13000.00000" pt_clust_6="13000.00000" pt_clust_7="13000.00000" pt_clust_8="13000.00000" pt_clust_9="13000.00000"></scales>
<clustering>
<clus scale="   80.897">  5  6 -1 -1</clus>
<clus scale="   86.572">  1  5  2 -1</clus>
<clus scale="   89.778">  7  8 -1 -1</clus>
<clus scale="   41.643">  7  9 -1 -1</clus>
<clus scale="  195.358">  2  5  1 -1</clus>
</clustering>
</event>
<event>
 9    2  0.4178938E-005  0.3349944E+03  0.7546771E-02  0.1103363E+00
          2   -1    0    0  502    0 -0.00000000000E+00  0.00000000000E+00  0.12676122364E+03  0.12676122364E+03  0.00000000000E+00 0. -1.
         21   -1    0    0  501  502  0.00000000000E+00 -0.00000000000E+00 -0.62389771500E+03  0.62389771500E+03  0.00000000000E+00 0. -1.
         24    2    1    2    0    0  0.65406302679E+02 -0.84145294131E+02  0.19040799329E+02  0.13530516108E+03  0.81157375647E+02 0.  0.
         23    2    1    2    0    0 -0.96764579443E+01 -0.87546608166E+02 -0.16056084229E+03  0.21654682767E+03  0.11556254609E+03 0.  0.
        -13    1    3    3    0    0 -0.11447320929E+02 -0.37415862227E+02 -0.10710596056E+02  0.40567286950E+02  0.00000000000E+00 0.  1.
         14    1    3    3    0    0  0.76853623608E+02 -0.46729431904E+02  0.29751395385E+02  0.94737874133E+02  0.00000000000E+00 0. -1.
        -13    1    4    4    0    0  0.40002614635E+02 -0.83818462623E+02 -0.12314911540E+03  0.15424476807E+03  0.00000000000E+00 0. -1.
         13    1    4    4    0    0 -0.49679072579E+02 -0.37281455427E+01 -0.37411726891E+02  0.62302059601E+02  0.00000000000E+00 0.  1.
          1    1    1    2  501    0 -0.55729844735E+02  0.17169190230E+03 -0.35561644840E+03  0.39880694989E+03  0.00000000000E+00 0. -1.
<scales pt_clust_5="13000.00000" pt_clust_6="13000.00000" pt_clust_7="13000.00000" pt_clust_8="13000.00000" pt_clust_9="13000.00000"></scales>
<clustering>
<clus scale="   81.157">  5  6 -1 -1</clus>
<clus scale="  115.563">  7  8 -1 -1</clus>
<clus scale="  133.959">  1  5  2 -1</clus>
<clus scale="  137.768">  7  9 -1 -1</clus>
<clus scale="  334.994">  2  5  1 -1</clus>
</clustering>
</event>
<event>
 9    2  0.4178938E-005  0.2525272E+03  0.7546771E-02  0.1156438E+00
          2   -1    0    0  502    0 -0.00000000000E+00  0.00000000000E+00  0.78050332649E+03  0.78050332649E+03  0.00000000000E+00 0. -1.
         21   -1    0    0  501  502  0.00000000000E+00 -0.00000000000E+00 -0.50531833037E+03  0.50531833037E+03  0.00000000000E+00 0. -1.
         24    2    1    2    0    0 -0.43765412856E+01  0.29701078155E+02  0.74639960391E+03  0.75120664462E+03  0.79358339498E+02 0.  0.
         23    2    1    2    0    0  0.59928840466E+02  0.31611055443E+00 -0.68080363499E+02  0.12656561758E+03  0.88274310045E+02 0.  0.
        -11    1    3    3    0    0  0.27945169516E+02 -0.68692482561E+01  0.14488421025E+03  0.14771443210E+03  0.00000000000E+00 0.  1.
         12    1    3    3    0    0 -0.32321710802E+02  0.36570326411E+02  0.60151539365E+03  0.60349221252E+03  0.00000000000E+00 0. -1.
        -11    1    4    4    0    0 -0.22969284397E+02  0.49351697554E+01 -0.12069099368E+02  0.26412252569E+02  0.00000000000E+00 0.  1.
         11    1    4    4    0    0  0.82898124862E+02 -0.46190592010E+01 -0.56011264131E+02  0.10015336501E+03  0.00000000000E+00 0. -1.
          1    1    1    2  501    0 -0.55552299180E+02 -0.30017188710E+02 -0.40313424429E+03  0.40804939466E+03  0.00000000000E+00 0. -1.
<scales pt_clust_5="13000.00000" pt_clust_6="13000.00000" pt_clust_7="13000.00000" pt_clust_8="13000.00000" pt_clust_9="13000.00000"></scales>
<clustering>
<clus scale="   79.358">  5  6 -1 -1</clus>
<clus scale="   84.847">  1  5  2 -1</clus>
<clus scale="   88.274">  7  8 -1 -1</clus>
<clus scale="   62.386">  7  9 -1 -1</clus>
<clus scale="  252.527">  2  5  1 -1</clus>
</clustering>
</event>
<event>
 9    2  0.4178938E-005  0.1849114E+03  0.7546771E-02  0.1178728E+00
         21   -1    0    0  501  502  0.00000000000E+00  0.00000000000E+00  0.69393611743E+02  0.69393611743E+02  0.00000000000E+00 0.  1.
          2   -1    0    0  502    0 -0.00000000000E+00 -0.00000000000E+00 -0.35824495041E+03  0.35824495041E+03  0.00000000000E+00 0. -1.
         24    2    1    2    0    0 -0.91170223277E+02  0.45058405159E+02 -0.13522557638E+03  0.18723661072E+03  0.80183055556E+02 0.  0.
         23    2    1    2    0    0  0.80112150881E+02  0.91195052624E+01 -0.73283978359E+02  0.14287078110E+03  0.92414265738E+02 0.  0.
        -11    1    3    3    0    0 -0.60742590699E+02  0.29928858016E+01 -0.25688738267E+02  0.66019171186E+02  0.00000000000E+00 0.  1.
         12    1    3    3    0    0 -0.30427632578E+02  0.42065519358E+02 -0.10953683811E+03  0.12121743953E+03  0.00000000000E+00 0. -1.
        -13    1    4    4    0    0  0.53461912652E+02  0.31991442798E+02 -0.85408307431E+02  0.10571758366E+03  0.00000000000E+00 0.  1.
         13    1    4    4    0    0  0.26650238229E+02 -0.22871937535E+02  0.12124329072E+02  0.37153197436E+02  0.00000000000E+00 0. -1.
          1    1    1    2  501    0  0.11058072396E+02 -0.54177910422E+02 -0.80341783927E+02  0.97531170337E+02  0.00000000000E+00 0. -1.
<scales pt_clust_5="13000.00000" pt_clust_6="13000.00000" pt_clust_7="13000.00000" pt_clust_8="13000.00000" pt_clust_9="13000.00000"></scales>
<clustering>
<clus scale="   80.183">  5  6 -1 -1</clus>
<clus scale="   92.414">  7  8 -1 -1</clus>
<clus scale="   55.295">  7  9 -1 -1</clus>
<clus scale="  129.505">  2  5  1 -1</clus>
<clus scale="  184.911">  1  5  2 -1</clus>
</clustering>
</event>
<event>
 9    2  0.6257319E-005  0.4143380E+03  0.7546771E-02  0.1068138E+00
          2   -1    0    0  502    0 -0.00000000000E+00  0.00000000000E+00  0.80744932406E+03  0.80744932406E+03  0.00000000000E+00 0. -1.
         21   -1    0    0  501  502  0.00000000000E+00 -0.00000000000E+00 -0.29091461206E+03  0.29091461206E+03  0.00000000000E+00 0.  1.
         24    2    1    2    0    0 -0.12684370747E+03 -0.10305553916E+03 -0.20055315183E+03  0.27017857246E+03  0.77878906213E+02 0.  0.
         23    2    1    2    0    0 -0.54301686861E+02  0.25328265365E+02  0.57519949030E+03  0.58531195318E+03  0.90252061883E+02 0.  0.
        -11    1    3    3    0    0 -0.11539640538E+03 -0.61534561842E+02 -0.17990320448E+03  0.22241401857E+03  0.00000000000E+00 0.  1.
         12    1    3    3    0    0 -0.11447302088E+02 -0.41520977321E+02 -0.20649947350E+02  0.47764553890E+02  0.00000000000E+00 0. -1.
        -11    1    4    4    0    0  0.95981212479E+01 -0.23831699417E+02  0.96033612774E+02  0.99410907907E+02  0.00000000000E+00 0.  1.
         11    1    4    4    0    0 -0.63899808109E+02  0.49159964781E+02  0.47916587752E+03  0.48590104527E+03  0.00000000000E+00 0. -1.
          1    1    1    2  501    0  0.18114539433E+03  0.77727273798E+02  0.14188837353E+03  0.24287341048E+03  0.00000000000E+00 0. -1.
<scales pt_clust_5="13000.00000" pt_clust_6="13000.00000" pt_clust_7="13000.00000" pt_clust_8="13000.00000" pt_clust_9="13000.00000"></scales>
<clustering>
<clus scale="   77.879">  5  6 -1 -1</clus>
<clus scale="   90.252">  7  8 -1 -1</clus>
<clus scale="  181.038">  1  5  2 -1</clus>
<clus scale="  158.366">  7  9 -1 -1</clus>
<clus scale="  414.338">  2  5  1 -1</clus>
</clustering>
</event>
<event>
 9    2  0.4178938E-005  0.2164919E+03  0.7546771E-02  0.1185719E+00
          2   -1    0    0  502    0 -0.00000000000E+00  0.00000000000E+00  0.21075871188E+03  0.21075871188E+03  0.00000000000E+00 0. -1.
         21   -1    0    0  501  502  0.00000000000E+00 -0.00000000000E+00 -0.28790895032E+03  0.28790895032E+03  0.00000000000E+00 0. -1.
         24    2    1    2    0    0 -0.37525106480E+01  0.25357554802E+02  0.16199897858E+03  0.17608267208E+03  0.64065212284E+02 0.  0.
         23    2    1    2    0    0 -0.14135015956E+02  0.72298227368E+02 -0.13452463986E+03  0.17835282470E+03  0.91027572700E+02 0.  0.
        -13    1    3    3    0    0 -0.27259066939E+02 -0.24473278142E+01  0.37873832415E+02  0.46727650547E+02  0.00000000000E+00 0.  1.
         14    1    3    3    0    0  0.23506556291E+02  0.27804882616E+02  0.12412514616E+03  0.12935502153E+03  0.00000000000E+00 0. -1.
        -11    1    4    4    0    0  0.32283664531E+02  0.14043780141E+02 -0.16719347484E+02  0.38974342028E+02  0.00000000000E+00 0.  1.
         11    1    4    4    0    0 -0.46418680487E+02  0.58254447227E+02 -0.11780529237E+03  0.13937848267E+03  0.00000000000E+00 0. -1.
          1    1    1    2  501    0  0.17887526604E+02 -0.97655782170E+02 -0.10462457716E+03  0.14423216543E+03  0.00000000000E+00 0. -1.
<scales pt_clust_5="13000.00000" pt_clust_6="13000.00000" pt_clust_7="13000.00000" pt_clust_8="13000.00000" pt_clust_9="13000.00000"></scales>
<clustering>
<clus scale="   64.065">  5  6 -1 -1</clus>
<clus scale="   69.003">  1  5  2 -1</clus>
<clus scale="   91.028">  7  8 -1 -1</clus>
<clus scale="   87.120">  7  9 -1 -1</clus>
<clus scale="  216.492">  2  5  1 -1</clus>
</clustering>
</event>
<event>
 9    2  0.4178938E-005  0.2086640E+03  0.7546771E-02  0.1157371E+00
          2   -1    0    0  502    0 -0.00000000000E+00  0.00000000000E+00  0.12823982436E+04  0.12823982436E+04  0.00000000000E+00 0. -1.
         21   -1    0    0  501  502  0.00000000000E+00 -0.00000000000E+00 -0.30696991521E+02  0.30696991521E+02  0.00000000000E+00 0. -1.
         24    2    1    2    0    0 -0.12139292237E+03 -0.21736330975E+02  0.82600981116E+03  0.83901310747E+03  0.80262548469E+02 0.  0.
         23    2    1    2    0    0  0.60144617539E+02  0.33461947048E+02  0.13209026697E+03  0.17393134178E+03  0.89817571250E+02 0.  0.
        -11    1    3    3    0    0 -0.20810854276E+02  0.20284792868E+02  0.80686277235E+02  0.85760362706E+02  0.00000000000E+00 0.  1.
         12    1    3    3    0    0 -0.10058206809E+03 -0.42021123843E+02  0.74532353393E+03  0.75325274476E+03  0.00000000000E+00 0. -1.
        -13    1    4    4    0    0 -0.46024801722E+01  0.34787044080E+02  0.90246665242E+02  0.96828621010E+02  0.00000000000E+00 0.  1.
         13    1    4    4    0    0  0.64747097711E+02 -0.13250970311E+01  0.41843601728E+02  0.77102720767E+02  0.00000000000E+00 0. -1.
          1    1    1    2  501    0  0.61248304827E+02 -0.11725616074E+02  0.29360117393E+03  0.30015078585E+03  0.00000000000E+00 0. -1.
<scales pt_clust_5="13000.00000" pt_clust_6="13000.00000" pt_clust_7="13000.00000" pt_clust_8="13000.00000" pt_clust_9="13000.00000"></scales>
<clustering>
<clus scale="   80.263">  5  6 -1 -1</clus>
<clus scale="   89.818">  7  8 -1 -1</clus>
<clus scale="   62.361">  7  9 -1 -1</clus>
<clus scale="  147.142">  1  5  2 -1</clus>
<clus scale="  208.664">  2  5  1 -1</clus>
</clustering>
</event>
<event>
 9    2  0.4178938E-005  0.3512117E+03  0.7546771E-02  0.1112303E+00
         21   -1    0    0  501  502  0.00000000000E+00  0.00000000000E+00  0.42716396762E+02  0.42716396762E+02  0.00000000000E+00 0. -1.
          2   -1    0    0  502    0 -0.00000000000E+00 -0.00000000000E+00 -0.11659563351E+04  0.11659563351E+04  0.00000000000E+00 0. -1.
         24    2    1    2    0    0  0.37322977262E+02  0.22505758343E+02 -0.29151883212E+03  0.30583851212E+03  0.81574825917E+02 0.  0.
         23    2    1    2    0    0  0.11744658022E+03  0.74469519632E+02 -0.43141463483E+03  0.46283070670E+03  0.93564241880E+02 0.  0.
        -13    1    3    3    0    0  0.54168547963E+02 -0.48773801920E+00 -0.24777434422E+03  0.25362688172E+03  0.00000000000E+00 0.  1.
         14    1    3    3    0    0 -0.16845570702E+02  0.22993496362E+02 -0.43744487898E+02  0.52211630397E+02  0.00000000000E+00 0. -1.
        -11    1    4    4    0    0  0.22373635011E+02  0.68282906352E+02 -0.20303308816E+03  0.21537309426E+03  0.00000000000E+00 0.  1.
         11    1    4    4    0    0  0.95072945207E+02  0.61866132792E+01 -0.22838154667E+03  0.24745761243E+03  0.00000000000E+00 0. -1.
          1    1    1    2  501    0 -0.15476955748E+03 -0.96975277974E+02 -0.40030647143E+03  0.44000351309E+03  0.00000000000E+00 0. -1.
<scales pt_clust_5="13000.00000" pt_clust_6="13000.00000" pt_clust_7="13000.00000" pt_clust_8="13000.00000" pt_clust_9="13000.00000"></scales>
<clustering>
<clus scale="   81.575">  5  6 -1 -1</clus>
<clus scale="   92.488">  2  5  1 -1</clus>
<clus scale="   93.564">  7  8 -1 -1</clus>
<clus scale="  161.531">  7  9 -1 -1</clus>
<clus scale="  351.212">  1  5  2 -1</clus>
</clustering>
</event>
<event>
 9    2  0.4178938E-005  0.3200507E+03  0.7546771E-02  0.1120753E+00
          2   -1    0    0  502    0 -0.00000000000E+00  0.00000000000E+00  0.72290435154E+02  0.72290435154E+02  0.00000000000E+00 0. -1.
         21   -1    0    0  501  502  0.00000000000E+00 -0.00000000000E+00 -0.70271781450E+03  0.70271781450E+03  0.00000000000E+00 0.  1.
         24    2    1    2    0    0 -0.32682843599E+02 -0.46555943624E+02 -0.46663374974E+02  0.10926589026E+03  0.80783290706E+02 0.  0.
         23    2    1    2    0    0  0.44446037475E+01 -0.87268557290E+02 -0.47256881152E+03  0.48947334298E+03  0.92883347665E+02 0.  0.
        -11    1    3    3    0    0  0.26529082587E+02 -0.21555393966E+02 -0.11906270339E+02  0.36196498523E+02  0.00000000000E+00 0.  1.
         12    1    3    3    0    0 -0.59211926185E+02 -0.25000549658E+02 -0.34757104634E+02  0.73069391734E+02  0.00000000000E+00 0. -1.
        -13    1    4    4    0    0  0.45353209944E+02 -0.24049753667E+02 -0.22054813239E+03  0.22644377449E+03  0.00000000000E+00 0.  1.
         13    1    4    4    0    0 -0.40908606196E+02 -0.63218803623E+02 -0.25202067913E+03  0.26302956849E+03  0.00000000000E+00 0. -1.
          1    1    1    2  501    0  0.28238239851E+02  0.13382450091E+03 -0.11119519285E+03  0.17626901642E+03  0.00000000000E+00 0. -1.
<scales pt_clust_5="13000.00000" pt_clust_6="13000.00000" pt_clust_7="13000.00000" pt_clust_8="13000.00000" pt_clust_9="13000.00000"></scales>
<clustering>
<clus scale="   80.783">  5  6 -1 -1</clus>
<clus scale="   92.883">  7  8 -1 -1</clus>
<clus scale="   98.801">  1  5  2 -1</clus>
<clus scale="   96.896">  7  9 -1 -1</clus>
<clus scale="  320.051">  2  5  1 -1</clus>
</clustering>
</event>
<event>
 9    2  0.4178938E-005  0.2096606E+03  0.7546771E-02  0.1167129E+00
         21   -1    0    0  501  502  0.00000000000E+00  0.00000000000E+00  0.32744339864E+03  0.32744339864E+03  0.00000000000E+00 0.  1.
         -1   -1    0    0    0  501 -0.00000000000E+00 -0.00000000000E+00 -0.81477485319E+02  0.81477485319E+02  0.00000000000E+00 0.  1.
         24    2    1    2    0    0 -0.27130862188E+02 -0.31906539392E+02  0.10542548175E+03  0.15651411389E+03  0.10783331909E+03 0.  0.
         23    2    1    2    0    0  0.23423688240E+02 -0.23761517374E+02 -0.35773002398E+01  0.97866819554E+02  0.91933880664E+02 0.  0.
        -13    1    3    3    0    0 -0.58368746066E+02  0.11099991166E+02  0.73492500635E+02  0.94505385935E+02  0.00000000000E+00 0.  1.
         14    1    3    3    0    0  0.31237883877E+02 -0.43006530558E+02  0.31932981117E+02  0.62008727957E+02  0.00000000000E+00 0. -1.
        -13    1    4    4    0    0  0.46529435070E+02 -0.45302921198E+02 -0.97816893062E+01  0.65673620599E+02  0.00000000000E+00 0.  1.
         13    1    4    4    0    0 -0.23105746830E+02  0.21541403824E+02  0.62043890664E+01  0.32193198955E+02  0.00000000000E+00 0. -1.
         -2    1    1    2    0  502  0.37071739488E+01  0.55668056766E+02  0.14411773180E+03  0.15453995051E+03  0.00000000000E+00 0.  1.
<scales pt_clust_5="13000.00000" pt_clust_6="13000.00000" pt_clust_7="13000.00000" pt_clust_8="13000.00000" pt_clust_9="13000.00000"></scales>
<clustering>
<clus scale="   91.934">  7  8 -1 -1</clus>
<clus scale="   55.791">  7  9 -1 -1</clus>
<clus scale="  107.833">  5  6 -1 -1</clus>
<clus scale="  115.681">  2  5  1 -1</clus>
<clus scale="  209.661">  1  5  2 -1</clus>
</clustering>
</event>
<event>
 9    2  0.4178938E-005  0.5613768E+03  0.7546771E-02  0.1052706E+00
          2   -1    0    0  502    0 -0.00000000000E+00  0.00000000000E+00  0.91679413933E+03  0.91679413933E+03  0.00000000000E+00 0. -1.
         21   -1    0    0  501  502  0.00000000000E+00 -0.00000000000E+00 -0.13345984072E+03  0.13345984072E+03  0.00000000000E+00 0. -1.
         24    2    1    2    0    0  0.38250660824E+02  0.18903145255E+02  0.40519357774E+02  0.11916971940E+03  0.10362992673E+03 0.  0.
         23    2    1    2    0    0  0.51508015455E+02  0.25403687011E+03  0.38599266702E+03  0.47296308994E+03  0.86694512075E+02 0.  0.
        -13    1    3    3    0    0 -0.24208037982E+02  0.67502904996E+01 -0.19414959565E+02  0.31757458647E+02  0.00000000000E+00 0.  1.
         14    1    3    3    0    0  0.62458698807E+02  0.12152854755E+02  0.59934317339E+02  0.87412260754E+02  0.00000000000E+00 0. -1.
        -13    1    4    4    0    0  0.29123261268E+02  0.23012074863E+03  0.36953803744E+03  0.43630503597E+03  0.00000000000E+00 0. -1.
         13    1    4    4    0    0  0.22384754188E+02  0.23916121474E+02  0.16454629583E+02  0.36658053973E+02  0.00000000000E+00 0.  1.
          1    1    1    2  501    0 -0.89758676280E+02 -0.27294001536E+03  0.35682227382E+03  0.45812117070E+03  0.00000000000E+00 0. -1.
<scales pt_clust_5="13000.00000" pt_clust_6="13000.00000" pt_clust_7="13000.00000" pt_clust_8="13000.00000" pt_clust_9="13000.00000"></scales>
<clustering>
<clus scale="   86.695">  7  8 -1 -1</clus>
<clus scale="  103.630">  5  6 -1 -1</clus>
<clus scale="  112.070">  1  5  2 -1</clus>
<clus scale="  273.162">  7  9 -1 -1</clus>
<clus scale="  561.377">  2  5  1 -1</clus>
</clustering>
</event>
<event>
 9    2  0.4178938E-005  0.2184097E+03  0.7546771E-02  0.1163096E+00
         21   -1    0    0  501  502  0.00000000000E+00  0.00000000000E+00  0.30229427772E+02  0.30229427772E+02  0.00000000000E+00 0. -1.
          2   -1    0    0  502    0 -0.00000000000E+00 -0.00000000000E+00 -0.94506178450E+03  0.94506178450E+03  0.00000000000E+00 0. -1.
         24    2    1    2    0    0  0.71176116715E+02 -0.77980967440E+01 -0.22107497769E+03  0.24796591523E+03  0.86522248301E+02 0.  0.
         23    2    1    2    0    0  0.55167078319E+02  0.24681422982E+02 -0.25077083742E+03  0.26636464179E+03  0.66419352037E+02 0.  0.
        -13    1    3    3    0    0  0.26219290468E+02  0.26435286269E+02 -0.16197370282E+03  0.16619794210E+03  0.00000000000E+00 0.  1.
         14    1    3    3    0    0  0.44956826247E+02 -0.34233383013E+02 -0.59101274876E+02  0.81767973136E+02  0.00000000000E+00 0. -1.
        -11    1    4    4    0    0 -0.13495335337E+02  0.15451686314E+02 -0.56110886239E+02  0.59743704608E+02  0.00000000000E+00 0.  1.
         11    1    4    4    0    0  0.68662413656E+02  0.92297366677E+01 -0.19465995118E+03  0.20662093718E+03  0.00000000000E+00 0. -1.
          1    1    1    2  501    0 -0.12634319503E+03 -0.16883326238E+02 -0.44298654162E+03  0.46096065526E+03  0.00000000000E+00 0. -1.
<scales pt_clust_5="13000.00000" pt_clust_6="13000.00000" pt_clust_7="13000.00000" pt_clust_8="13000.00000" pt_clust_9="13000.00000"></scales>
<clustering>
<clus scale="   66.419">  7  8 -1 -1</clus>
<clus scale="   86.522">  5  6 -1 -1</clus>
<clus scale="  112.307">  2  5  1 -1</clus>
<clus scale="   83.960">  7  9 -1 -1</clus>
<clus scale="  218.410">  1  5  2 -1</clus>
</clustering>
</event>
<event>
 9    2  0.4178938E-005  0.4700117E+03  0.7546771E-02  0.1060354E+00
         21   -1    0    0  501  502  0.00000000000E+00  0.00000000000E+00  0.51967671912E+03  0.51967671912E+03  0.00000000000E+00 0. -1.
          2   -1    0    0  502    0 -0.00000000000E+00 -0.00000000000E+00 -0.88791579917E+03  0.88791579917E+03  0.00000000000E+00 0. -1.
         24    2    1    2    0    0 -0.66381038488E+02 -0.11179253008E+03 -0.77247204184E+03  0.78766086390E+03  0.82417043380E+02 0.  0.
         23    2    1    2    0    0 -0.56036259139E+02 -0.11179775070E+03  0.15884966998E+02  0.15539664659E+03  0.90867960230E+02 0.  0.
        -13    1    3    3    0    0  0.42719056553E+01 -0.20944990563E+02 -0.33215210942E+02  0.39499266392E+02  0.00000000000E+00 0.  1.
         14    1    3    3    0    0 -0.70652944143E+02 -0.90847539512E+02 -0.73925683090E+03  0.74816159751E+03  0.00000000000E+00 0. -1.
        -11    1    4    4    0    0 -0.69603562923E+02 -0.94932735889E+02 -0.13948010604E+02  0.11853871652E+03  0.00000000000E+00 0. -1.
         11    1    4    4    0    0  0.13567303784E+02 -0.16865014810E+02  0.29832977602E+02  0.36857930071E+02  0.00000000000E+00 0.  1.
          1    1    1    2  501    0  0.12241729763E+03  0.22359028077E+03  0.38834799479E+03  0.46453500780E+03  0.00000000000E+00 0. -1.
<scales pt_clust_5="13000.00000" pt_clust_6="13000.00000" pt_clust_7="13000.00000" pt_clust_8="13000.00000" pt_clust_9="13000.00000"></scales>
<clustering>
<clus scale="   82.417">  5  6 -1 -1</clus>
<clus scale="   90.868">  7  8 -1 -1</clus>
<clus scale="  153.937">  2  5  1 -1</clus>
<clus scale="  209.020">  7  9 -1 -1</clus>
<clus scale="  470.012">  1  5  2 -1</clus>
</clustering>
</event>
<event>
 9    2  0.4178938E-005  0.5105459E+03  0.7546771E-02  0.1039759E+00
         21   -1    0    0  501  502  0.00000000000E+00  0.00000000000E+00  0.64908769016E+03  0.64908769016E+03  0.00000000000E+00 0. -1.
          2   -1    0    0  502    0 -0.00000000000E+00 -0.00000000000E+00 -0.21958007766E+03  0.21958007766E+03  0.00000000000E+00 0. -1.
         24    2    1    2    0    0  0.19195264786E+03 -0.55750941674E+02  0.24274231432E+03  0.32503333211E+03  0.82273016882E+02 0.  0.
         23    2    1    2    0    0  0.41819440699E+02  0.70895030871E+01 -0.11903981503E+03  0.15564720362E+03  0.90864997435E+02 0.  0.
        -11    1    3    3    0    0  0.12424634433E+03 -0.41609344445E+02  0.94819220681E+02  0.16173798637E+03  0.00000000000E+00 0.  1.
         12    1    3    3    0    0  0.67706303524E+02 -0.14141597228E+02  0.14792309364E+03  0.16329534574E+03  0.00000000000E+00 0. -1.
        -11    1    4    4    0    0  0.43519877927E+02  0.33264326730E+02 -0.29234846081E+02  0.62090026840E+02  0.00000000000E+00 0. -1.
         11    1    4    4    0    0 -0.17004372289E+01 -0.26174823643E+02 -0.89804968952E+02  0.93557176785E+02  0.00000000000E+00 0.  1.
          1    1    1    2  501    0 -0.23377208856E+03  0.48661438587E+02  0.30580511321E+03  0.38798723208E+03  0.00000000000E+00 0. -1.
<scales pt_clust_5="13000.00000" pt_clust_6="13000.00000" pt_clust_7="13000.00000" pt_clust_8="13000.00000" pt_clust_9="13000.00000"></scales>
<clustering>
<clus scale="   82.273">  5  6 -1 -1</clus>
<clus scale="   90.865">  7  8 -1 -1</clus>
<clus scale="  216.155">  2  5  1 -1</clus>
<clus scale="  192.923">  7  9 -1 -1</clus>
<clus scale="  510.546">  1  5  2 -1</clus>
</clustering>
</event>
<event>
 9    2  0.4178938E-005  0.6324398E+03  0.7546771E-02  0.1039755E+00
         21   -1    0    0  501  502  0.00000000000E+00  0.00000000000E+00  0.59489547235E+02  0.59489547235E+02  0.00000000000E+00 0. -1.
          2   -1    0    0  502    0 -0.00000000000E+00 -0.00000000000E+00 -0.25271506138E+04  0.25271506138E+04  0.00000000000E+00 0. -1.
         24    2    1    2    0    0  0.67347478712E+02  0.52932279674E+02 -0.17790981013E+03  0.21115265063E+03  0.74806632118E+02 0.  0.
         23    2    1    2    0    0  0.46912234665E+01  0.26509457898E+03 -0.14050415156E+04  0.14325972819E+04  0.88860386064E+02 0.  0.
        -11    1    3    3    0    0 -0.72692383492E+01  0.32171700811E+02 -0.78389818434E+02  0.85046009861E+02  0.00000000000E+00 0.  1.
         12    1    3    3    0    0  0.74616717061E+02  0.20760578863E+02 -0.99519991697E+02  0.12610664077E+03  0.00000000000E+00 0. -1.
        -11    1    4    4    0    0 -0.24204023651E+02  0.16579560330E+02 -0.15982886220E+03  0.16249917468E+03  0.00000000000E+00 0.  1.
         11    1    4    4    0    0  0.28895247118E+02  0.24851501865E+03 -0.12452126534E+04  0.12700981072E+04  0.00000000000E+00 0. -1.
          1    1    1    2  501    0 -0.72038702179E+02 -0.31802685866E+03 -0.88470974081E+03  0.94289022845E+03  0.00000000000E+00 0. -1.
<scales pt_clust_5="13000.00000" pt_clust_6="13000.00000" pt_clust_7="13000.00000" pt_clust_8="13000.00000" pt_clust_9="13000.00000"></scales>
<clustering>
<clus scale="   74.807">  5  6 -1 -1</clus>
<clus scale="   88.860">  7  8 -1 -1</clus>
<clus scale="  113.726">  2  5  1 -1</clus>
<clus scale="  300.776">  7  9 -1 -1</clus>
<clus scale="  632.440">  1  5  2 -1</clus>
</clustering>
</event>
<event>
 9    2  0.4178938E-005  0.4694894E+03  0.7546771E-02  0.1074623E+00
          2   -1    0    0  502    0 -0.00000000000E+00  0.00000000000E+00  0.11091794568E+03  0.11091794568E+03  0.00000000000E+00 0. -1.
         21   -1    0    0  501  502  0.00000000000E+00 -0.00000000000E+00 -0.10301282827E+04  0.10301282827E+04  0.00000000000E+00 0. -1.
         24    2    1    2    0    0  0.65283067238E+02  0.64215357320E+01  0.51170722061E+01  0.10431989057E+03  0.80952703177E+02 0.  0.
         23    2    1    2    0    0  0.99404408872E+02 -0.10309650090E+03 -0.11345757929E+03  0.20367298130E+03  0.89999644520E+02 0.  0.
        -11    1    3    3    0    0  0.73232832307E+02 -0.14938079597E+02 -0.12155888837E+02  0.75722913198E+02  0.00000000000E+00 0.  1.
         12    1    3    3    0    0 -0.79497650695E+01  0.21359615330E+02  0.17272961043E+02  0.28596977373E+02  0.00000000000E+00 0. -1.
        -13    1    4    4    0    0  0.41434381164E+02 -0.50510335756E+02  0.61240097950E+00  0.65333582449E+02  0.00000000000E+00 0.  1.
         13    1    4    4    0    0  0.57970027708E+02 -0.52586165144E+02 -0.11406998027E+03  0.13833939885E+03  0.00000000000E+00 0. -1.
          1    1    1    2  501    0 -0.16468747611E+03  0.96674965168E+02 -0.81086982990E+03  0.83305335646E+03  0.00000000000E+00 0. -1.
<scales pt_clust_5="13000.00000" pt_clust_6="13000.00000" pt_clust_7="13000.00000" pt_clust_8="13000.00000" pt_clust_9="13000.00000"></scales>
<clustering>
<clus scale="   80.953">  5  6 -1 -1</clus>
<clus scale="   90.000">  7  8 -1 -1</clus>
<clus scale="  104.194">  1  5  2 -1</clus>
<clus scale="  180.657">  7  9 -1 -1</clus>
<clus scale="  469.489">  2  5  1 -1</clus>
</clustering>
</event>
<event>
 9    2  0.4178938E-005  0.5753043E+03  0.7546771E-02  0.1060906E+00
         21   -1    0    0  501  502  0.00000000000E+00  0.00000000000E+00  0.60684769310E+03  0.60684769310E+03  0.00000000000E+00 0. -1.
          2   -1    0    0  502    0 -0.00000000000E+00 -0.00000000000E+00 -0.18471904457E+03  0.18471904457E+03  0.00000000000E+00 0. -1.
         24    2    1    2    0    0 -0.12485815342E+02  0.30365884737E+00  0.86875394264E+01  0.83111675923E+02  0.81707340796E+02 0.  0.
         23    2    1    2    0    0 -0.22047410346E+03  0.17643555540E+02  0.64072482186E+01  0.23912682886E+03  0.90666764043E+02 0.  0.
        -11    1    3    3    0    0 -0.22312473165E+02  0.86563823099E+01  0.41471708528E+02  0.47881959250E+02  0.00000000000E+00 0.  1.
         12    1    3    3    0    0  0.98266578229E+01 -0.83527234625E+01 -0.32784169101E+02  0.35229716673E+02  0.00000000000E+00 0. -1.
        -13    1    4    4    0    0 -0.59267933996E+02  0.32984430881E+02  0.32315503248E+02  0.75132898459E+02  0.00000000000E+00 0. -1.
         13    1    4    4    0    0 -0.16120616946E+03 -0.15340875341E+02 -0.25908255030E+02  0.16399393040E+03  0.00000000000E+00 0.  1.
          1    1    1    2  501    0  0.23295991880E+03 -0.17947214388E+02  0.40703386089E+03  0.46932823288E+03  0.00000000000E+00 0. -1.
<scales pt_clust_5="13000.00000" pt_clust_6="13000.00000" pt_clust_7="13000.00000" pt_clust_8="13000.00000" pt_clust_9="13000.00000"></scales>
<clustering>
<clus scale="   81.707">  5  6 -1 -1</clus>
<clus scale="   82.656">  2  5  1 -1</clus>
<clus scale="   90.667">  7  8 -1 -1</clus>
<clus scale="  231.017">  7  9 -1 -1</clus>
<clus scale="  575.304">  1  5  2 -1</clus>
</clustering>
</event>
<event>
 9    2  0.4178938E-005  0.2033671E+03  0.7546771E-02  0.1157438E+00
         21   -1    0    0  501  502  0.00000000000E+00  0.00000000000E+00  0.18218761215E+03  0.18218761215E+03  0.00000000000E+00 0.  1.
          2   -1    0    0  502    0 -0.00000000000E+00 -0.00000000000E+00 -0.10369203219E+04  0.10369203219E+04  0.00000000000E+00 0. -1.
         24    2    1    2    0    0 -0.42111355305E+02 -0.12878997591E+03 -0.97165260533E+03  0.98452654580E+03  0.82604538644E+02 0.  0.
         23    2    1    2    0    0  0.60099834574E+02  0.70683276169E+02  0.44359645032E+02  0.13989789498E+03  0.94844753503E+02 0.  0.
        -11    1    3    3    0    0 -0.47007050805E+02 -0.94609542329E+02 -0.47181471478E+03  0.48349741820E+03  0.00000000000E+00 0.  1.
         12    1    3    3    0    0  0.48956954996E+01 -0.34180433576E+02 -0.49983789056E+03  0.50102912761E+03  0.00000000000E+00 0. -1.
        -13    1    4    4    0    0 -0.16885848192E+01  0.35294439555E+02 -0.22771627801E+02  0.42036838783E+02  0.00000000000E+00 0. -1.
         13    1    4    4    0    0  0.61788419393E+02  0.35388836614E+02  0.67131272833E+02  0.97861056198E+02  0.00000000000E+00 0.  1.
          1    1    1    2  501    0 -0.17988479269E+02  0.58106699736E+02  0.72560250545E+02  0.94683493280E+02  0.00000000000E+00 0. -1.
<scales pt_clust_5="13000.00000" pt_clust_6="13000.00000" pt_clust_7="13000.00000" pt_clust_8="13000.00000" pt_clust_9="13000.00000"></scales>
<clustering>
<clus scale="   82.605">  5  6 -1 -1</clus>
<clus scale="   94.845">  7  8 -1 -1</clus>
<clus scale="   60.827">  7  9 -1 -1</clus>
<clus scale="  158.694">  2  5  1 -1</clus>
<clus scale="  203.367">  1  5  2 -1</clus>
</clustering>
</event>
<event>
 9    2  0.4178938E-005  0.4968740E+03  0.7546771E-02  0.1051743E+00
          2   -1    0    0  502    0 -0.00000000000E+00  0.00000000000E+00  0.38511573496E+03  0.38511573496E+03  0.00000000000E+00 0. -1.
         21   -1    0    0  501  502  0.00000000000E+00 -0.00000000000E+00 -0.29019696853E+03  0.29019696853E+03  0.00000000000E+00 0. -1.
         24    2    1    2    0    0  0.14065550984E+03 -0.35303080390E+02 -0.13802788803E+02  0.16668305592E+03  0.81008914444E+02 0.  0.
         23    2    1    2    0    0  0.14665558298E+03  0.92792213940E+02  0.28061564227E+01  0.19706787803E+03  0.93325339824E+02 0.  0.
        -13    1    3    3    0    0  0.73975284342E+02 -0.34968303055E+02 -0.44648999746E+02  0.93212971685E+02  0.00000000000E+00 0.  1.
         14    1    3    3    0    0  0.66680225500E+02 -0.33477733567E+00  0.30846210943E+02  0.73470084239E+02  0.00000000000E+00 0. -1.
        -13    1    4    4    0    0  0.11221721299E+03  0.62821372793E+02  0.43649734319E+02  0.13581062947E+03  0.00000000000E+00 0. -1.
         13    1    4    4    0    0  0.34438369983E+02  0.29970841147E+02 -0.40843577896E+02  0.61257248563E+02  0.00000000000E+00 0.  1.
          1    1    1    2  501    0 -0.28731109282E+03 -0.57489133550E+02  0.10591539880E+03  0.31156176954E+03  0.00000000000E+00 0. -1.
<scales pt_clust_5="13000.00000" pt_clust_6="13000.00000" pt_clust_7="13000.00000" pt_clust_8="13000.00000" pt_clust_9="13000.00000"></scales>
<clustering>
<clus scale="   81.009">  5  6 -1 -1</clus>
<clus scale="   93.325">  7  8 -1 -1</clus>
<clus scale="  166.111">  1  5  2 -1</clus>
<clus scale="  208.707">  7  9 -1 -1</clus>
<clus scale="  496.874">  2  5  1 -1</clus>
</clustering>
</event>
<event>
 9    2  0.4178938E-005  0.2834625E+03  0.7546771E-02  0.1131254E+00
         21   -1    0    0  501  502  0.00000000000E+00  0.00000000000E+00  0.97556285563E+03  0.97556285563E+03  0.00000000000E+00 0. -1.
         -1   -1    0    0    0  501 -0.00000000000E+00 -0.00000000000E+00 -0.40043651395E+02  0.40043651395E+02  0.00000000000E+00 0.  1.
         24    2    1    2    0    0  0.69185413960E+02 -0.27705179787E+02  0.31083639430E+03  0.32961844787E+03  0.80466506458E+02 0.  0.
         23    2    1    2    0    0 -0.44753082069E+02 -0.10023922968E+03  0.41420895210E+03  0.43846845269E+03  0.92923551814E+02 0.  0.
        -13    1    3    3    0    0  0.69144152236E+02  0.69357245464E+01  0.25136485516E+03  0.26079361279E+03  0.00000000000E+00 0.  1.
         14    1    3    3    0    0  0.41261723794E-01 -0.34640904333E+02  0.59471539140E+02  0.68824835076E+02  0.00000000000E+00 0. -1.
        -13    1    4    4    0    0 -0.70853778743E+02 -0.90547908520E+02  0.35230981705E+03  0.37059599146E+03  0.00000000000E+00 0.  1.
         13    1    4    4    0    0  0.26100696674E+02 -0.96913211562E+01  0.61899135053E+02  0.67872461227E+02  0.00000000000E+00 0. -1.
         -2    1    1    2    0  502 -0.24432331891E+02  0.12794440946E+03  0.21047385783E+03  0.24751960646E+03  0.00000000000E+00 0.  1.
<scales pt_clust_5="13000.00000" pt_clust_6="13000.00000" pt_clust_7="13000.00000" pt_clust_8="13000.00000" pt_clust_9="13000.00000"></scales>
<clustering>
<clus scale="   80.467">  5  6 -1 -1</clus>
<clus scale="   92.924">  7  8 -1 -1</clus>
<clus scale="  109.677">  2  5  1 -1</clus>
<clus scale="  112.552">  7  9 -1 -1</clus>
<clus scale="  283.463">  1  5  2 -1</clus>
</clustering>
</event>
<event>
 9    2  0.4178938E-005  0.1296160E+03  0.7546771E-02  0.1248748E+00
         21   -1    0    0  501  502  0.00000000000E+00  0.00000000000E+00  0.18450271331E+03  0.18450271331E+03  0.00000000000E+00 0.  1.
          2   -1    0    0  502    0 -0.00000000000E+00 -0.00000000000E+00 -0.98693210561E+02  0.98693210561E+02  0.00000000000E+00 0. -1.
         24    2    1    2    0    0  0.22107087204E+02 -0.20089229170E+02  0.12194028420E+03  0.14863835785E+03  0.79571528079E+02 0.  0.
         23    2    1    2    0    0  0.12029977212E+02  0.15072304822E+02 -0.38980395931E+02  0.99936344207E+02  0.89977257694E+02 0.  0.
        -13    1    3    3    0    0  0.24444301966E+02 -0.26063907291E+02  0.13197563580E+03  0.13672753785E+03  0.00000000000E+00 0.  1.
         14    1    3    3    0    0 -0.23372147624E+01  0.59746781207E+01 -0.10035351597E+02  0.11910820004E+02  0.00000000000E+00 0. -1.
        -11    1    4    4    0    0 -0.44377451048E+01  0.40541459303E+02 -0.52708778258E+02  0.66644720792E+02  0.00000000000E+00 0. -1.
         11    1    4    4    0    0  0.16467722317E+02 -0.25469154481E+02  0.13728382327E+02  0.33291623415E+02  0.00000000000E+00 0.  1.
          1    1    1    2  501    0 -0.34137064416E+02  0.50169243484E+01  0.28496144760E+01  0.34621221809E+02  0.00000000000E+00 0. -1.
<scales pt_clust_5="13000.00000" pt_clust_6="13000.00000" pt_clust_7="13000.00000" pt_clust_8="13000.00000" pt_clust_9="13000.00000"></scales>
<clustering>
<clus scale="   79.572">  5  6 -1 -1</clus>
<clus scale="   84.994">  2  5  1 -1</clus>
<clus scale="   89.977">  7  8 -1 -1</clus>
<clus scale="   30.049">  7  9 -1 -1</clus>
<clus scale="  129.616">  1  5  2 -1</clus>
</clustering>
</event>
<event>
 9    2  0.4337661E-005  0.3569860E+03  0.7546771E-02  0.1096642E+00
          2   -1    0    0  502    0 -0.00000000000E+00  0.00000000000E+00  0.19251493290E+03  0.19251493290E+03  0.00000000000E+00 0. -1.
         21   -1    0    0  501  502  0.00000000000E+00 -0.00000000000E+00 -0.52769542604E+03  0.52769542604E+03  0.00000000000E+00 0. -1.
         24    2    1    2    0    0 -0.85537089523E+02  0.54897476624E+02 -0.33845885443E+03  0.36320935574E+03  0.83882735575E+02 0.  0.
         23    2    1    2    0    0 -0.25699866135E+02 -0.46837887028E+02  0.14294065116E+03  0.17827167573E+03  0.92165556642E+02 0.  0.
        -11    1    3    3    0    0  0.10648468637E+02  0.30303395843E+02 -0.95133810850E+02  0.10040979858E+03  0.00000000000E+00 0.  1.
         12    1    3    3    0    0 -0.96185558159E+02  0.24594080782E+02 -0.24332504358E+03  0.26279955716E+03  0.00000000000E+00 0. -1.
        -11    1    4    4    0    0  0.12669422744E+02  0.19787567752E+02  0.63550609417E+02  0.67755015072E+02  0.00000000000E+00 0. -1.
         11    1    4    4    0    0 -0.38369288879E+02 -0.66625454780E+02  0.79390041744E+02  0.11051666065E+03  0.00000000000E+00 0.  1.
          1    1    1    2  501    0  0.11123695566E+03 -0.80595895967E+01 -0.13966228986E+03  0.17872932747E+03  0.00000000000E+00 0. -1.
<scales pt_clust_5="13000.00000" pt_clust_6="13000.00000" pt_clust_7="13000.00000" pt_clust_8="13000.00000" pt_clust_9="13000.00000"></scales>
<clustering>
<clus scale="   83.883">  5  6 -1 -1</clus>
<clus scale="   92.166">  7  8 -1 -1</clus>
<clus scale="  111.529">  7  9 -1 -1</clus>
<clus scale="  131.783">  1  5  2 -1</clus>
<clus scale="  356.986">  2  5  1 -1</clus>
</clustering>
</event>
<event>
 9    2  0.4178938E-005  0.1462840E+03  0.7546771E-02  0.1222653E+00
          2   -1    0    0  502    0 -0.00000000000E+00  0.00000000000E+00  0.28506756416E+03  0.28506756416E+03  0.00000000000E+00 0. -1.
         21   -1    0    0  501  502  0.00000000000E+00 -0.00000000000E+00 -0.66343179182E+02  0.66343179182E+02  0.00000000000E+00 0. -1.
         24    2    1    2    0    0 -0.44734115007E+02 -0.39731283944E+02  0.16920687417E+03  0.19697304257E+03  0.81164630625E+02 0.  0.
         23    2    1    2    0    0  0.49614797613E+01  0.29999675927E+02  0.58558231721E+02  0.11250559680E+03  0.91125440857E+02 0.  0.
        -11    1    3    3    0    0 -0.66476309442E+02 -0.31394269300E+02  0.10115970320E+03  0.12505193087E+03  0.00000000000E+00 0.  1.
         12    1    3    3    0    0  0.21742194435E+02 -0.83370146433E+01  0.68047170964E+02  0.71921111701E+02  0.00000000000E+00 0. -1.
        -13    1    4    4    0    0 -0.15927853189E+02 -0.17384704548E+02  0.55881341115E+02  0.60651865134E+02  0.00000000000E+00 0.  1.
         13    1    4    4    0    0  0.20889332951E+02  0.47384380475E+02  0.26768906054E+01  0.51853731664E+02  0.00000000000E+00 0. -1.
          1    1    1    2  501    0  0.39772635245E+02  0.97316080165E+01 -0.90407209124E+01  0.41932103972E+02  0.00000000000E+00 0. -1.
<scales pt_clust_5="13000.00000" pt_clust_6="13000.00000" pt_clust_7="13000.00000" pt_clust_8="13000.00000" pt_clust_9="13000.00000"></scales>
<clustering>
<clus scale="   81.165">  5  6 -1 -1</clus>
<clus scale="   91.125">  7  8 -1 -1</clus>
<clus scale="   40.946">  7  9 -1 -1</clus>
<clus scale="  100.834">  1  5  2 -1</clus>
<clus scale="  146.284">  2  5  1 -1</clus>
</clustering>
</event>
<event>
 9    2  0.4178938E-005  0.2743503E+03  0.7546771E-02  0.1129869E+00
         21   -1    0    0  501  502  0.00000000000E+00  0.00000000000E+00  0.58990550685E+03  0.58990550685E+03  0.00000000000E+00 0.  1.
          2   -1    0    0  502    0 -0.00000000000E+00 -0.00000000000E+00 -0.68518178995E+02  0.68518178995E+02  0.00000000000E+00 0. -1.
         24    2    1    2    0    0  0.84064349273E+02  0.38922712243E+02  0.12996751185E+03  0.18043040452E+03  0.84153338564E+02 0.  0.
         23    2    1    2    0    0  0.57050818580E+02 -0.68321219199E+02  0.17881422927E+03  0.22112970212E+03  0.94874821097E+02 0.  0.
        -13    1    3    3    0    0  0.48149356764E+02  0.64894512937E+02  0.85686621089E+02  0.11777884105E+03  0.00000000000E+00 0.  1.
         14    1    3    3    0    0  0.35914992509E+02 -0.25971800694E+02  0.44280890759E+02  0.62651563465E+02  0.00000000000E+00 0. -1.
        -11    1    4    4    0    0  0.78757703393E+02 -0.60562225012E+02  0.16907605674E+03  0.19610525720E+03  0.00000000000E+00 0.  1.
         11    1    4    4    0    0 -0.21706884813E+02 -0.77589941874E+01  0.97381725316E+01  0.25024444916E+02  0.00000000000E+00 0. -1.
          1    1    1    2  501    0 -0.14111516785E+03  0.29398506956E+02  0.21260558674E+03  0.25686357921E+03  0.00000000000E+00 0. -1.
<scales pt_clust_5="13000.00000" pt_clust_6="13000.00000" pt_clust_7="13000.00000" pt_clust_8="13000.00000" pt_clust_9="13000.00000"></scales>
<clustering>
<clus scale="   84.153">  5  6 -1 -1</clus>
<clus scale="   94.875">  7  8 -1 -1</clus>
<clus scale="  125.154">  2  5  1 -1</clus>
<clus scale="  109.825">  7  9 -1 -1</clus>
<clus scale="  274.350">  1  5  2 -1</clus>
</clustering>
</event>
<event>
 9    2  0.7570850E-005  0.4996140E+03  0.7546771E-02  0.1040981E+00
          2   -1    0    0  502    0 -0.00000000000E+00  0.00000000000E+00  0.92618130591E+03  0.92618130591E+03  0.00000000000E+00 0. -1.
         21   -1    0    0  501  502  0.00000000000E+00 -0.00000000000E+00 -0.27300677507E+03  0.27300677507E+03  0.00000000000E+00 0. -1.
         24    2    1    2    0    0  0.18812550487E+03 -0.87025282179E+02  0.66310820326E+03  0.69947534544E+03  0.81170587874E+02 0.  0.
         23    2    1    2    0    0 -0.12780677999E+01 -0.32312240238E+02  0.18945237418E+03  0.20153794692E+03  0.60659934379E+02 0.  0.
        -13    1    3    3    0    0  0.34946794529E+02  0.34772309389E+01  0.50191888515E+02  0.61258430077E+02  0.00000000000E+00 0.  1.
         14    1    3    3    0    0  0.15317871034E+03 -0.90502513117E+02  0.61291631474E+03  0.63821691536E+03  0.00000000000E+00 0. -1.
        -11    1    4    4    0    0  0.24070308215E+02  0.38328290778E+01  0.59849216732E+02  0.64621970411E+02  0.00000000000E+00 0.  1.
         11    1    4    4    0    0 -0.25348376015E+02 -0.36145069316E+02  0.12960315745E+03  0.13691597651E+03  0.00000000000E+00 0. -1.
          1    1    1    2  501    0 -0.18684743707E+03  0.11933752242E+03 -0.19938604659E+03  0.29817478862E+03  0.00000000000E+00 0. -1.
<scales pt_clust_5="13000.00000" pt_clust_6="13000.00000" pt_clust_7="13000.00000" pt_clust_8="13000.00000" pt_clust_9="13000.00000"></scales>
<clustering>
<clus scale="   60.660">  7  8 -1 -1</clus>
<clus scale="   81.171">  5  6 -1 -1</clus>
<clus scale="  221.706">  7  9 -1 -1</clus>
<clus scale="  222.606">  1  5  2 -1</clus>
<clus scale="  499.614">  2  5  1 -1</clus>
</clustering>
</event>
<event>
 9    2  0.4178938E-005  0.3956690E+03  0.7546771E-02  0.1054583E+00
         21   -1    0    0  501  502  0.00000000000E+00  0.00000000000E+00  0.50209415664E+03  0.50209415664E+03  0.00000000000E+00 0. -1.
          2   -1    0    0  502    0 -0.00000000000E+00 -0.00000000000E+00 -0.28666476543E+03  0.28666476543E+03  0.00000000000E+00 0. -1.
         24    2    1    2    0    0 -0.95501378344E+01  0.29230096198E+03  0.24773898017E+03  0.39177297101E+03  0.81119670918E+02 0.  0.
         23    2    1    2    0    0  0.15538076420E+02  0.95409349554E+01  0.38794027793E+02  0.86824524596E+02  0.75505365507E+02 0.  0.
        -11    1    3    3    0    0 -0.22657060831E+02  0.99524310009E+02  0.13082817117E+03  0.16593505073E+03  0.00000000000E+00 0.  1.
         12    1    3    3    0    0  0.13106922997E+02  0.19277665197E+03  0.11691080900E+03  0.22583792028E+03  0.00000000000E+00 0. -1.
        -11    1    4    4    0    0 -0.10523439605E+02  0.28538267284E+02 -0.66154822592E+01  0.31127802464E+02  0.00000000000E+00 0.  1.
         11    1    4    4    0    0  0.26061516025E+02 -0.18997332328E+02  0.45409510052E+02  0.55696722133E+02  0.00000000000E+00 0. -1.
          1    1    1    2  501    0 -0.59879385857E+01 -0.30184189693E+03 -0.71103616757E+02  0.31016142647E+03  0.00000000000E+00 0. -1.
<scales pt_clust_5="13000.00000" pt_clust_6="13000.00000" pt_clust_7="13000.00000" pt_clust_8="13000.00000" pt_clust_9="13000.00000"></scales>
<clustering>
<clus scale="   75.505">  7  8 -1 -1</clus>
<clus scale="   81.120">  5  6 -1 -1</clus>
<clus scale="  301.901">  7  9 -1 -1</clus>
<clus scale="  303.499">  2  5  1 -1</clus>
<clus scale="  395.669">  1  5  2 -1</clus>
</clustering>
</event>
<event>
 9    2  0.4178938E-005  0.7949573E+03  0.7546771E-02  0.1021584E+00
         21   -1    0    0  501  502  0.00000000000E+00  0.00000000000E+00  0.24798235906E+03  0.24798235906E+03  0.00000000000E+00 0. -1.
          2   -1    0    0  502    0 -0.00000000000E+00 -0.00000000000E+00 -0.97236450050E+03  0.97236450050E+03  0.00000000000E+00 0. -1.
         24    2    1    2    0    0 -0.56751470693E+02  0.12268035602E+01 -0.30736994806E+03  0.32265185721E+03  0.80035626570E+02 0.  0.
         23    2    1    2    0    0  0.35206417733E+03  0.35808175828E+02 -0.47065766822E+03  0.59527307628E+03  0.87177888678E+02 0.  0.
        -11    1    3    3    0    0 -0.27534431993E+02  0.37164028470E+02 -0.10008628922E+03  0.11025686032E+03  0.00000000000E+00 0.  1.
         12    1    3    3    0    0 -0.29217038700E+02 -0.35937224910E+02 -0.20728365884E+03  0.21239499689E+03  0.00000000000E+00 0. -1.
        -11    1    4    4    0    0  0.30487867784E+03  0.47812225948E+02 -0.35868054565E+03  0.47316883983E+03  0.00000000000E+00 0. -1.
         11    1    4    4    0    0  0.47185499483E+02 -0.12004050120E+02 -0.11197712257E+03  0.12210423645E+03  0.00000000000E+00 0.  1.
          1    1    1    2  501    0 -0.29531270663E+03 -0.37034979389E+02  0.53645474829E+02  0.30242192607E+03  0.00000000000E+00 0. -1.
<scales pt_clust_5="13000.00000" pt_clust_6="13000.00000" pt_clust_7="13000.00000" pt_clust_8="13000.00000" pt_clust_9="13000.00000"></scales>
<clustering>
<clus scale="   80.036">  5  6 -1 -1</clus>
<clus scale="   87.178">  7  8 -1 -1</clus>
<clus scale="   98.122">  2  5  1 -1</clus>
<clus scale="  308.257">  7  9 -1 -1</clus>
<clus scale="  794.957">  1  5  2 -1</clus>
</clustering>
</event>
<event>
 9    2  0.4178938E-005  0.2647933E+03  0.7546771E-02  0.1142692E+00
         21   -1    0    0  501  502  0.00000000000E+00  0.00000000000E+00  0.23661010811E+02  0.23661010811E+02  0.00000000000E+00 0. -1.
          2   -1    0    0  502    0 -0.00000000000E+00 -0.00000000000E+00 -0.15104758556E+04  0.15104758556E+04  0.00000000000E+00 0. -1.
         24    2    1    2    0    0  0.60585048935E+02 -0.20726567973E+01 -0.60119758530E+03  0.60978117876E+03  0.81973808860E+02 0.  0.
         23    2    1    2    0    0  0.78443007463E+02  0.14709821577E+02 -0.48688473470E+03  0.50189134037E+03  0.92024390136E+02 0.  0.
        -11    1    3    3    0    0  0.23857318264E+02  0.21786490104E+02 -0.73725383040E+02  0.80493818957E+02  0.00000000000E+00 0.  1.
         12    1    3    3    0    0  0.36727730671E+02 -0.23859146901E+02 -0.52747220225E+03  0.52928735980E+03  0.00000000000E+00 0. -1.
        -13    1    4    4    0    0  0.42758497555E+02  0.53900985653E+02 -0.27221371982E+03  0.28077377838E+03  0.00000000000E+00 0. -1.
         13    1    4    4    0    0  0.35684509908E+02 -0.39191164077E+02 -0.21467101488E+03  0.22111756199E+03  0.00000000000E+00 0.  1.
          1    1    1    2  501    0 -0.13902805640E+03 -0.12637164779E+02 -0.39873252474E+03  0.42246434724E+03  0.00000000000E+00 0. -1.
<scales pt_clust_5="13000.00000" pt_clust_6="13000.00000" pt_clust_7="13000.00000" pt_clust_8="13000.00000" pt_clust_9="13000.00000"></scales>
<clustering>
<clus scale="   81.974">  5  6 -1 -1</clus>
<clus scale="   92.024">  7  8 -1 -1</clus>
<clus scale="  101.954">  2  5  1 -1</clus>
<clus scale="  112.364">  7  9 -1 -1</clus>
<clus scale="  264.793">  1  5  2 -1</clus>
</clustering>
</event>
<event>
 9    2  0.4178938E-005  0.2557478E+03  0.7546771E-02  0.1137866E+00
         21   -1    0    0  501  502  0.00000000000E+00  0.00000000000E+00  0.35286315935E+02  0.35286315935E+02  0.00000000000E+00 0.  1.
          4   -1    0    0  502    0 -0.00000000000E+00 -0.00000000000E+00 -0.10568742241E+04  0.10568742241E+04  0.00000000000E+00 0. -1.
         24    2    1    2    0    0  0.85335110906E+02 -0.50127816055E+02 -0.40993750446E+03  0.42919511249E+03  0.79779746349E+02 0.  0.
         23    2    1    2    0    0  0.51589340428E+02  0.26408180256E+02 -0.35561228548E+03  0.37164696867E+03  0.91118163426E+02 0.  0.
        -11    1    3    3    0    0  0.71237929455E+02 -0.11345007279E+02 -0.15530004979E+03  0.17123567750E+03  0.00000000000E+00 0.  1.
         12    1    3    3    0    0  0.14097181450E+02 -0.38782808776E+02 -0.25463745467E+03  0.25795943499E+03  0.00000000000E+00 0. -1.
        -13    1    4    4    0    0  0.40568495308E+02  0.49432908306E+02 -0.32745707758E+03  0.33364285230E+03  0.00000000000E+00 0.  1.
         13    1    4    4    0    0  0.11020845121E+02 -0.23024728050E+02 -0.28155207901E+02  0.38004116368E+02  0.00000000000E+00 0. -1.
          3    1    1    2  501    0 -0.13692445133E+03  0.23719635799E+02 -0.25603811820E+03  0.29131845885E+03  0.00000000000E+00 0. -1.
<scales pt_clust_5="13000.00000" pt_clust_6="13000.00000" pt_clust_7="13000.00000" pt_clust_8="13000.00000" pt_clust_9="13000.00000"></scales>
<clustering>
<clus scale="   79.780">  5  6 -1 -1</clus>
<clus scale="   91.118">  7  8 -1 -1</clus>
<clus scale="  127.121">  2  5  1 -1</clus>
<clus scale="  100.303">  7  9 -1 -1</clus>
<clus scale="  255.748">  1  5  2 -1</clus>
</clustering>
</event>
<event>
 9    2  0.4178938E-005  0.7940133E+03  0.7546771E-02  0.1011269E+00
         21   -1    0    0  501  502  0.00000000000E+00  0.00000000000E+00  0.72480877671E+02  0.72480877671E+02  0.00000000000E+00 0. -1.
          2   -1    0    0  502    0 -0.00000000000E+00 -0.00000000000E+00 -0.30116316089E+04  0.30116316089E+04  0.00000000000E+00 0. -1.
         24    2    1    2    0    0  0.10078884165E+03  0.39110969282E+02 -0.55796192265E+03  0.57402935469E+03  0.80623410989E+02 0.  0.
         23    2    1    2    0    0  0.29026460019E+03  0.16865430097E+03 -0.11602944471E+04  0.12113636688E+04  0.91765585913E+02 0.  0.
        -13    1    3    3    0    0  0.60812185339E+02  0.55807977327E+02 -0.45333232174E+03  0.46078503247E+03  0.00000000000E+00 0.  1.
         14    1    3    3    0    0  0.39976656307E+02 -0.16697008046E+02 -0.10462960091E+03  0.11324432221E+03  0.00000000000E+00 0. -1.
        -11    1    4    4    0    0  0.55257868820E+02 -0.54814653557E+01 -0.18574644038E+03  0.19386907604E+03  0.00000000000E+00 0.  1.
         11    1    4    4    0    0  0.23500673137E+03  0.17413576632E+03 -0.97454800668E+03  0.10174945927E+04  0.00000000000E+00 0. -1.
          1    1    1    2  501    0 -0.39105344184E+03 -0.20776527025E+03 -0.12208943615E+04  0.12987194631E+04  0.00000000000E+00 0. -1.
<scales pt_clust_5="13000.00000" pt_clust_6="13000.00000" pt_clust_7="13000.00000" pt_clust_8="13000.00000" pt_clust_9="13000.00000"></scales>
<clustering>
<clus scale="   80.623">  5  6 -1 -1</clus>
<clus scale="   91.766">  7  8 -1 -1</clus>
<clus scale="  134.864">  2  5  1 -1</clus>
<clus scale="  387.573">  7  9 -1 -1</clus>
<clus scale="  794.013">  1  5  2 -1</clus>
</clustering>
</event>
<event>
 9    2  0.4178938E-005  0.3607014E+03  0.7546771E-02  0.1072256E+00
         21   -1    0    0  501  502  0.00000000000E+00  0.00000000000E+00  0.35600730784E+03  0.35600730784E+03  0.00000000000E+00 0. -1.
          2   -1    0    0  502    0 -0.00000000000E+00 -0.00000000000E+00 -0.26569001518E+03  0.26569001518E+03  0.00000000000E+00 0. -1.
         24    2    1    2    0    0  0.17056785792E+03  0.14391157735E+03 -0.16149940135E+02  0.24561122418E+03  0.10129223379E+03 0.  0.
         23    2    1    2    0    0 -0.26890263331E+02  0.34066651431E+02 -0.33126909527E+02  0.10811963512E+03  0.93321167818E+02 0.  0.
        -11    1    3    3    0    0  0.58807673313E+01  0.57574979086E+02  0.67238110384E+01  0.58263807600E+02  0.00000000000E+00 0.  1.
         12    1    3    3    0    0  0.16468709059E+03  0.86336598260E+02 -0.22873751174E+02  0.18734741658E+03  0.00000000000E+00 0. -1.
        -13    1    4    4    0    0 -0.58291699203E+02  0.37571796618E+02 -0.12724909213E+02  0.70508761240E+02  0.00000000000E+00 0. -1.
         13    1    4    4    0    0  0.31401435872E+02 -0.35051451864E+01 -0.20402000314E+02  0.37610873885E+02  0.00000000000E+00 0.  1.
          1    1    1    2  501    0 -0.14367759459E+03 -0.17797822878E+03  0.13959414232E+03  0.26796646372E+03  0.00000000000E+00 0. -1.
<scales pt_clust_5="13000.00000" pt_clust_6="13000.00000" pt_clust_7="13000.00000" pt_clust_8="13000.00000" pt_clust_9="13000.00000"></scales>
<clustering>
<clus scale="   93.321">  7  8 -1 -1</clus>
<clus scale="  101.292">  5  6 -1 -1</clus>
<clus scale="  228.735">  7  9 -1 -1</clus>
<clus scale="  245.080">  2  5  1 -1</clus>
<clus scale="  360.701">  1  5  2 -1</clus>
</clustering>
</event>
<event>
 9    2  0.4178938E-005  0.2194314E+03  0.7546771E-02  0.1165577E+00
         -1   -1    0    0    0  501 -0.00000000000E+00  0.00000000000E+00  0.76034946226E+02  0.76034946226E+02  0.00000000000E+00 0.  1.
         21   -1    0    0  501  502  0.00000000000E+00 -0.00000000000E+00 -0.43106885228E+03  0.43106885228E+03  0.00000000000E+00 0.  1.
         24    2    1    2    0    0 -0.12143748845E+00  0.65745621079E+02 -0.19791153546E+02  0.10643206327E+03  0.81323999503E+02 0.  0.
         23    2    1    2    0    0 -0.80766365450E+02 -0.17557603739E+02 -0.20941092028E+03  0.24351394293E+03  0.92815039911E+02 0.  0.
        -11    1    3    3    0    0  0.37437764231E+02  0.52413077741E+02 -0.82329867648E+01  0.64934574611E+02  0.00000000000E+00 0.  1.
         12    1    3    3    0    0 -0.37559201720E+02  0.13332543338E+02 -0.11558166781E+02  0.41497488659E+02  0.00000000000E+00 0. -1.
        -13    1    4    4    0    0 -0.29865239987E+02  0.38373371446E+02 -0.84635518167E+02  0.97609523772E+02  0.00000000000E+00 0. -1.
         13    1    4    4    0    0 -0.50901125463E+02 -0.55930975185E+02 -0.12477540211E+03  0.14590441916E+03  0.00000000000E+00 0.  1.
         -2    1    1    2    0  502  0.80887802938E+02 -0.48188017340E+02 -0.12583183223E+03  0.15715779230E+03  0.00000000000E+00 0.  1.
<scales pt_clust_5="13000.00000" pt_clust_6="13000.00000" pt_clust_7="13000.00000" pt_clust_8="13000.00000" pt_clust_9="13000.00000"></scales>
<clustering>
<clus scale="   81.324">  5  6 -1 -1</clus>
<clus scale="   92.815">  7  8 -1 -1</clus>
<clus scale="   94.154">  7  9 -1 -1</clus>
<clus scale="  104.576">  1  5  2 -1</clus>
<clus scale="  219.431">  2  5  1 -1</clus>
</clustering>
</event>
<event>
 9    2  0.4178938E-005  0.1909994E+03  0.7546771E-02  0.1175128E+00
          2   -1    0    0  502    0 -0.00000000000E+00  0.00000000000E+00  0.11959561038E+03  0.11959561038E+03  0.00000000000E+00 0. -1.
         21   -1    0    0  501  502  0.00000000000E+00 -0.00000000000E+00 -0.21436605605E+03  0.21436605605E+03  0.00000000000E+00 0.  1.
         24    2    1    2    0    0  0.54569549082E+02 -0.82346624125E+02 -0.55176060938E+02  0.13890147271E+03  0.80563138151E+02 0.  0.
         23    2    1    2    0    0 -0.54386480328E+02  0.32570387120E+01 -0.44274147924E+02  0.11583206603E+03  0.92132349377E+02 0.  0.
        -13    1    3    3    0    0  0.56747890576E+02 -0.22692740279E+02 -0.57233462074E+01  0.61384364768E+02  0.00000000000E+00 0.  1.
         14    1    3    3    0    0 -0.21783414934E+01 -0.59653883846E+02 -0.49452714730E+02  0.77517107943E+02  0.00000000000E+00 0. -1.
        -13    1    4    4    0    0 -0.44903523387E+02  0.30486536544E+02 -0.61674240542E+02  0.82155141468E+02  0.00000000000E+00 0.  1.
         13    1    4    4    0    0 -0.94829569408E+01 -0.27229497832E+02  0.17400092619E+02  0.33676924558E+02  0.00000000000E+00 0. -1.
          1    1    1    2  501    0 -0.18306875412E+00  0.79089585413E+02  0.46797631914E+01  0.79228127698E+02  0.00000000000E+00 0. -1.
<scales pt_clust_5="13000.00000" pt_clust_6="13000.00000" pt_clust_7="13000.00000" pt_clust_8="13000.00000" pt_clust_9="13000.00000"></scales>
<clustering>
<clus scale="   80.563">  5  6 -1 -1</clus>
<clus scale="   92.132">  7  8 -1 -1</clus>
<clus scale="   79.090">  7  9 -1 -1</clus>
<clus scale="  127.472">  1  5  2 -1</clus>
<clus scale="  190.999">  2  5  1 -1</clus>
</clustering>
</event>
<event>
 9    2  0.4178938E-005  0.2812079E+03  0.7546771E-02  0.1099352E+00
          2   -1    0    0  502    0 -0.00000000000E+00  0.00000000000E+00  0.32164140085E+03  0.32164140085E+03  0.00000000000E+00 0. -1.
         21   -1    0    0  501  502  0.00000000000E+00 -0.00000000000E+00 -0.22133938483E+03  0.22133938483E+03  0.00000000000E+00 0. -1.
         24    2    1    2    0    0  0.89100516759E+02 -0.21802250467E+03  0.65458212093E+02  0.25962240294E+03  0.87443124084E+02 0.  0.
         23    2    1    2    0    0 -0.51446211468E+02  0.73662708540E+02  0.42780092828E+02  0.13395763935E+03  0.89674999274E+02 0.  0.
        -13    1    3    3    0    0 -0.11877034929E+02 -0.41920986454E+02 -0.68998098197E+01  0.44113948355E+02  0.00000000000E+00 0.  1.
         14    1    3    3    0    0  0.10097755169E+03 -0.17610151821E+03  0.72358021913E+02  0.21550845458E+03  0.00000000000E+00 0. -1.
        -11    1    4    4    0    0  0.25523487802E+02  0.24106764282E+02  0.15967738560E+02  0.38568811084E+02  0.00000000000E+00 0.  1.
         11    1    4    4    0    0 -0.76969699270E+02  0.49555944258E+02  0.26812354268E+02  0.95388828269E+02  0.00000000000E+00 0. -1.
          1    1    1    2  501    0 -0.37654305291E+02  0.14435979613E+03 -0.79362889009E+01  0.14940074339E+03  0.00000000000E+00 0. -1.
<scales pt_clust_5="13000.00000" pt_clust_6="13000.00000" pt_clust_7="13000.00000" pt_clust_8="13000.00000" pt_clust_9="13000.00000"></scales>
<clustering>
<clus scale="   87.443">  5  6 -1 -1</clus>
<clus scale="   89.675">  7  8 -1 -1</clus>
<clus scale="  149.190">  7  9 -1 -1</clus>
<clus scale="  251.235">  1  5  2 -1</clus>
<clus scale="  281.208">  2  5  1 -1</clus>
</clustering>
</event>
<event>
 9    2  0.4178938E-005  0.3127013E+03  0.7546771E-02  0.1104842E+00
          4   -1    0    0  502    0 -0.00000000000E+00  0.00000000000E+00  0.80218604916E+03  0.80218604916E+03  0.00000000000E+00 0. -1.
         21   -1    0    0  501  502  0.00000000000E+00 -0.00000000000E+00 -0.74301094265E+02  0.74301094265E+02  0.00000000000E+00 0. -1.
         24    2    1    2    0    0 -0.59139733101E+02  0.12291268425E+03  0.14418389732E+03  0.21430211878E+03  0.80816866343E+02 0.  0.
         23    2    1    2    0    0  0.15871326978E+02 -0.11616517536E-01  0.37368601038E+02  0.10053034383E+03  0.91967595015E+02 0.  0.
        -11    1    3    3    0    0 -0.17365739267E+02  0.11755698214E+02  0.72777851877E+02  0.75738900604E+02  0.00000000000E+00 0.  1.
         12    1    3    3    0    0 -0.41773993834E+02  0.11115698603E+03  0.71406045445E+02  0.13856321817E+03  0.00000000000E+00 0. -1.
        -11    1    4    4    0    0 -0.18799906929E+02 -0.28069183401E+02 -0.10232060106E+02  0.35298875497E+02  0.00000000000E+00 0. -1.
         11    1    4    4    0    0  0.34671233908E+02  0.28057566883E+02  0.47600661144E+02  0.65231468337E+02  0.00000000000E+00 0.  1.
          3    1    1    2  501    0  0.43268406122E+02 -0.12290106773E+03  0.54633245653E+03  0.56165468081E+03  0.00000000000E+00 0. -1.
<scales pt_clust_5="13000.00000" pt_clust_6="13000.00000" pt_clust_7="13000.00000" pt_clust_8="13000.00000" pt_clust_9="13000.00000"></scales>
<clustering>
<clus scale="   80.817">  5  6 -1 -1</clus>
<clus scale="   91.968">  7  8 -1 -1</clus>
<clus scale="  130.295">  7  9 -1 -1</clus>
<clus scale="  158.545">  1  5  2 -1</clus>
<clus scale="  312.701">  2  5  1 -1</clus>
</clustering>
</event>
<event>
 9    2  0.4178938E-005  0.3036130E+03  0.7546771E-02  0.1129263E+00
          2   -1    0    0  502    0 -0.00000000000E+00  0.00000000000E+00  0.27122254042E+03  0.27122254042E+03  0.00000000000E+00 0. -1.
         21   -1    0    0  501  502  0.00000000000E+00 -0.00000000000E+00 -0.19489373589E+03  0.19489373589E+03  0.00000000000E+00 0. -1.
         24    2    1    2    0    0  0.28899510497E+02  0.37279419208E+02  0.12747614058E+03  0.15822523585E+03  0.80994580307E+02 0.  0.
         23    2    1    2    0    0  0.70079287785E+02  0.74274433734E+02  0.40129306649E+02  0.13304113306E+03  0.75244825401E+02 0.  0.
        -11    1    3    3    0    0  0.19104276391E+02  0.10795173916E+02 -0.52218515562E+01  0.22556083215E+02  0.00000000000E+00 0.  1.
         12    1    3    3    0    0  0.97952341056E+01  0.26484245292E+02  0.13269799213E+03  0.13566915263E+03  0.00000000000E+00 0. -1.
        -11    1    4    4    0    0  0.48408185917E+02  0.80414867003E+02  0.85467722916E+01  0.94249406446E+02  0.00000000000E+00 0. -1.
         11    1    4    4    0    0  0.21671101868E+02 -0.61404332685E+01  0.31582534358E+02  0.38791726610E+02  0.00000000000E+00 0.  1.
          1    1    1    2  501    0 -0.98978798282E+02 -0.11155385294E+03 -0.91276642695E+02  0.17484990740E+03  0.00000000000E+00 0. -1.
<scales pt_clust_5="13000.00000" pt_clust_6="13000.00000" pt_clust_7="13000.00000" pt_clust_8="13000.00000" pt_clust_9="13000.00000"></scales>
<clustering>
<clus scale="   75.245">  7  8 -1 -1</clus>
<clus scale="   80.995">  5  6 -1 -1</clus>
<clus scale="   93.729">  1  5  2 -1</clus>
<clus scale="  133.818">  7  9 -1 -1</clus>
<clus scale="  303.613">  2  5  1 -1</clus>
</clustering>
</event>
<event>
 9    2  0.4178938E-005  0.6570709E+03  0.7546771E-02  0.9983102E-01
          2   -1    0    0  502    0 -0.00000000000E+00  0.00000000000E+00  0.13259611977E+04  0.13259611977E+04  0.00000000000E+00 0. -1.
         21   -1    0    0  501  502  0.00000000000E+00 -0.00000000000E+00 -0.28156527401E+03  0.28156527401E+03  0.00000000000E+00 0. -1.
         24    2    1    2    0    0  0.34710973166E+03  0.66581194712E+01  0.85082044670E+03  0.92253480964E+03  0.81520218933E+02 0.  0.
         23    2    1    2    0    0  0.13513790382E+03 -0.43318170897E+02  0.91250334433E+02  0.19064646279E+03  0.88773494142E+02 0.  0.
        -13    1    3    3    0    0  0.37015838624E+02  0.25092346275E+02  0.83537777615E+02  0.94754200116E+02  0.00000000000E+00 0.  1.
         14    1    3    3    0    0  0.31009389303E+03 -0.18434226804E+02  0.76728266909E+03  0.82778060952E+03  0.00000000000E+00 0. -1.
        -11    1    4    4    0    0  0.94999755845E+02 -0.69395551582E+02  0.77375042507E+02  0.14081048751E+03  0.00000000000E+00 0.  1.
         11    1    4    4    0    0  0.40138147971E+02  0.26077380685E+02  0.13875291926E+02  0.49835975278E+02  0.00000000000E+00 0. -1.
          1    1    1    2  501    0 -0.48224763547E+03  0.36660051426E+02  0.10232514259E+03  0.49434519932E+03  0.00000000000E+00 0. -1.
<scales pt_clust_5="13000.00000" pt_clust_6="13000.00000" pt_clust_7="13000.00000" pt_clust_8="13000.00000" pt_clust_9="13000.00000"></scales>
<clustering>
<clus scale="   81.520">  5  6 -1 -1</clus>
<clus scale="   88.773">  7  8 -1 -1</clus>
<clus scale="  356.616">  1  5  2 -1</clus>
<clus scale="  249.928">  7  9 -1 -1</clus>
<clus scale="  657.071">  2  5  1 -1</clus>
</clustering>
</event>
<event>
 9    2  0.4178938E-005  0.2837974E+03  0.7546771E-02  0.1104889E+00
         -1   -1    0    0    0  501 -0.00000000000E+00  0.00000000000E+00  0.15224519853E+03  0.15224519853E+03  0.00000000000E+00 0.  1.
         21   -1    0    0  501  502  0.00000000000E+00 -0.00000000000E+00 -0.49655189409E+03  0.49655189409E+03  0.00000000000E+00 0.  1.
         24    2    1    2    0    0  0.57544896293E+02  0.18692335376E+03 -0.12534596956E+02  0.21220381627E+03  0.81373142053E+02 0.  0.
         23    2    1    2    0    0  0.31981302914E+02 -0.13972706476E+02 -0.89774752554E+02  0.12596555345E+03  0.81177424189E+02 0.  0.
        -13    1    3    3    0    0 -0.20970253275E+00  0.12093467037E+03  0.10923727673E+02  0.12142720576E+03  0.00000000000E+00 0.  1.
         14    1    3    3    0    0  0.57754598825E+02  0.65988683396E+02 -0.23458324628E+02  0.90776610513E+02  0.00000000000E+00 0. -1.
        -11    1    4    4    0    0  0.56002116065E+02 -0.51870636438E+01 -0.81618014124E+02  0.99119336471E+02  0.00000000000E+00 0.  1.
         11    1    4    4    0    0 -0.24020813150E+02 -0.87856428326E+01 -0.81567384303E+01  0.26846216981E+02  0.00000000000E+00 0. -1.
         -2    1    1    2    0  502 -0.89526199207E+02 -0.17295064729E+03 -0.24199734604E+03  0.31062772290E+03  0.00000000000E+00 0.  1.
<scales pt_clust_5="13000.00000" pt_clust_6="13000.00000" pt_clust_7="13000.00000" pt_clust_8="13000.00000" pt_clust_9="13000.00000"></scales>
<clustering>
<clus scale="   81.177">  7  8 -1 -1</clus>
<clus scale="   81.373">  5  6 -1 -1</clus>
<clus scale="  194.748">  7  9 -1 -1</clus>
<clus scale="  211.833">  1  5  2 -1</clus>
<clus scale="  283.797">  2  5  1 -1</clus>
</clustering>
</event>
<event>
 9    2  0.4178938E-005  0.2547489E+03  0.7546771E-02  0.1124833E+00
         21   -1    0    0  501  502  0.00000000000E+00  0.00000000000E+00  0.10243289276E+03  0.10243289276E+03  0.00000000000E+00 0.  1.
          2   -1    0    0  502    0 -0.00000000000E+00 -0.00000000000E+00 -0.45799619529E+03  0.45799619529E+03  0.00000000000E+00 0. -1.
         24    2    1    2    0    0 -0.11641430601E+03 -0.74928064253E+02 -0.12356184262E+03  0.21586898662E+03  0.11029680402E+03 0.  0.
         23    2    1    2    0    0  0.40925220972E+02  0.18739738536E+02 -0.14312891952E+02  0.10740183671E+03  0.96458509944E+02 0.  0.
        -11    1    3    3    0    0 -0.13412446587E+03 -0.76732718621E+02 -0.12390320517E+03  0.19806384501E+03  0.00000000000E+00 0.  1.
         12    1    3    3    0    0  0.17710159852E+02  0.18046543678E+01  0.34136254451E+00  0.17805141610E+02  0.00000000000E+00 0. -1.
        -13    1    4    4    0    0 -0.28958594440E+02  0.89153525196E+00 -0.19760275015E+02  0.35069409685E+02  0.00000000000E+00 0. -1.
         13    1    4    4    0    0  0.69883815412E+02  0.17848203284E+02  0.54473830631E+01  0.72332427024E+02  0.00000000000E+00 0.  1.
          1    1    1    2  501    0  0.75489085041E+02  0.56188325717E+02 -0.21768856795E+03  0.23715826472E+03  0.00000000000E+00 0. -1.
<scales pt_clust_5="13000.00000" pt_clust_6="13000.00000" pt_clust_7="13000.00000" pt_clust_8="13000.00000" pt_clust_9="13000.00000"></scales>
<clustering>
<clus scale="   96.459">  7  8 -1 -1</clus>
<clus scale="   94.105">  7  9 -1 -1</clus>
<clus scale="  110.297">  5  6 -1 -1</clus>
<clus scale="  177.008">  2  5  1 -1</clus>
<clus scale="  254.749">  1  5  2 -1</clus>
</clustering>
</event>
<event>
 9    2  0.4178938E-005  0.1775126E+03  0.7546771E-02  0.1203281E+00
          2   -1    0    0  502    0 -0.00000000000E+00  0.00000000000E+00  0.32512985762E+03  0.32512985762E+03  0.00000000000E+00 0. -1.
         21   -1    0    0  501  502  0.00000000000E+00 -0.00000000000E+00 -0.74409613564E+02  0.74409613564E+02  0.00000000000E+00 0.  1.
         24    2    1    2    0    0  0.14870322119E+02  0.41856409632E+02  0.19612862822E+03  0.21382204967E+03  0.72665979719E+02 0.  0.
         23    2    1    2    0    0  0.61673830470E+01  0.14183549748E+02  0.78617175185E+02  0.12121711463E+03  0.90959985422E+02 0.  0.
        -11    1    3    3    0    0  0.25021621272E+02  0.49371266307E+02  0.81611623804E+02  0.98610651593E+02  0.00000000000E+00 0.  1.
         12    1    3    3    0    0 -0.10151299153E+02 -0.75148566741E+01  0.11451700442E+03  0.11521139807E+03  0.00000000000E+00 0. -1.
        -11    1    4    4    0    0 -0.22497136594E+02  0.29912693433E+02  0.80177454871E+02  0.88483414564E+02  0.00000000000E+00 0. -1.
         11    1    4    4    0    0  0.28664519641E+02 -0.15729143685E+02 -0.15602796863E+01  0.32733700066E+02  0.00000000000E+00 0.  1.
          1    1    1    2  501    0 -0.21037705166E+02 -0.56039959380E+02 -0.24025559353E+02  0.64500306885E+02  0.00000000000E+00 0. -1.
<scales pt_clust_5="13000.00000" pt_clust_6="13000.00000" pt_clust_7="13000.00000" pt_clust_8="13000.00000" pt_clust_9="13000.00000"></scales>
<clustering>
<clus scale="   72.666">  5  6 -1 -1</clus>
<clus scale="   85.167">  1  5  2 -1</clus>
<clus scale="   90.960">  7  8 -1 -1</clus>
<clus scale="   52.379">  7  9 -1 -1</clus>
<clus scale="  177.513">  2  5  1 -1</clus>
</clustering>
</event>
<event>
 9    2  0.5562363E-005  0.7283475E+03  0.7546771E-02  0.1026866E+00
         21   -1    0    0  501  502  0.00000000000E+00  0.00000000000E+00  0.42380466734E+03  0.42380466734E+03  0.00000000000E+00 0. -1.
          4   -1    0    0  502    0 -0.00000000000E+00 -0.00000000000E+00 -0.59171728811E+03  0.59171728811E+03  0.00000000000E+00 0. -1.
         24    2    1    2    0    0  0.52591579123E+02 -0.43467305967E+02  0.17842833681E+03  0.20902203350E+03  0.84842549656E+02 0.  0.
         23    2    1    2    0    0  0.17504404316E+03 -0.10310190559E+03 -0.46166080783E+03  0.51222253890E+03  0.89279381096E+02 0.  0.
        -11    1    3    3    0    0  0.41312851944E+02  0.18766680725E+02  0.67611367249E+02  0.81426267399E+02  0.00000000000E+00 0.  1.
         12    1    3    3    0    0  0.11278727179E+02 -0.62233986691E+02  0.11081696956E+03  0.12759576611E+03  0.00000000000E+00 0. -1.
        -13    1    4    4    0    0  0.15401842844E+02 -0.47130717444E+02 -0.71975405340E+02  0.87401260080E+02  0.00000000000E+00 0.  1.
         13    1    4    4    0    0  0.15964220031E+03 -0.55971188146E+02 -0.38968540249E+03  0.42482127882E+03  0.00000000000E+00 0. -1.
          3    1    1    2  501    0 -0.22763562228E+03  0.14656921156E+03  0.11531985025E+03  0.29427738304E+03  0.00000000000E+00 0. -1.
<scales pt_clust_5="13000.00000" pt_clust_6="13000.00000" pt_clust_7="13000.00000" pt_clust_8="13000.00000" pt_clust_9="13000.00000"></scales>
<clustering>
<clus scale="   84.843">  5  6 -1 -1</clus>
<clus scale="   89.279">  7  8 -1 -1</clus>
<clus scale="  108.874">  2  5  1 -1</clus>
<clus scale="  260.227">  7  9 -1 -1</clus>
<clus scale="  728.347">  1  5  2 -1</clus>
</clustering>
</event>
<event>
 9    2  0.4178938E-005  0.3139077E+03  0.7546771E-02  0.1119017E+00
         21   -1    0    0  501  502  0.00000000000E+00  0.00000000000E+00  0.60827616267E+02  0.60827616267E+02  0.00000000000E+00 0. -1.
          2   -1    0    0  502    0 -0.00000000000E+00 -0.00000000000E+00 -0.10258579449E+04  0.10258579449E+04  0.00000000000E+00 0. -1.
         24    2    1    2    0    0  0.38158469904E+02 -0.62380994560E+02 -0.57849544088E+03  0.58874251983E+03  0.81322335365E+02 0.  0.
         23    2    1    2    0    0 -0.49281573567E+02 -0.30026214052E+02 -0.38927049235E+03  0.40482860008E+03  0.94997011540E+02 0.  0.
        -11    1    3    3    0    0  0.26682719772E+02  0.20991842335E+01 -0.55007068713E+02  0.61173129046E+02  0.00000000000E+00 0.  1.
         12    1    3    3    0    0  0.11475750132E+02 -0.64480178794E+02 -0.52348837217E+03  0.52756939079E+03  0.00000000000E+00 0. -1.
        -11    1    4    4    0    0  0.27250069895E+02 -0.19857204372E+02 -0.10667317441E+03  0.11187511347E+03  0.00000000000E+00 0. -1.
         11    1    4    4    0    0 -0.76531643462E+02 -0.10169009680E+02 -0.28259731795E+03  0.29295348661E+03  0.00000000000E+00 0.  1.
          1    1    1    2  501    0  0.11123103664E+02  0.92407208613E+02  0.27356045989E+01  0.93114441260E+02  0.00000000000E+00 0. -1.
<scales pt_clust_5="13000.00000" pt_clust_6="13000.00000" pt_clust_7="13000.00000" pt_clust_8="13000.00000" pt_clust_9="13000.00000"></scales>
<clustering>
<clus scale="   81.322">  5  6 -1 -1</clus>
<clus scale="   94.997">  7  8 -1 -1</clus>
<clus scale="   93.074">  7  9 -1 -1</clus>
<clus scale="  109.365">  2  5  1 -1</clus>
<clus scale="  313.908">  1  5  2 -1</clus>
</clustering>
</event>
<event>
 9    2  0.4178938E-005  0.2533588E+03  0.7546771E-02  0.1144763E+00
         21   -1    0    0  501  502  0.00000000000E+00  0.00000000000E+00  0.50848443525E+02  0.50848443525E+02  0.00000000000E+00 0. -1.
          2   -1    0    0  502    0 -0.00000000000E+00 -0.00000000000E+00 -0.77447738377E+03  0.77447738377E+03  0.00000000000E+00 0. -1.
         24    2    1    2    0    0 -0.15190970387E+02  0.75263078772E+02 -0.39579718690E+03  0.41100185557E+03  0.79823652639E+02 0.  0.
         23    2    1    2    0    0 -0.63840512452E+02  0.35094885506E+02 -0.16964262539E+03  0.20588056031E+03  0.91109399864E+02 0.  0.
        -11    1    3    3    0    0  0.22416318528E+02 -0.42342117336E+01 -0.81079930081E+02  0.84228112571E+02  0.00000000000E+00 0.  1.
         12    1    3    3    0    0 -0.37607288915E+02  0.79497290505E+02 -0.31471725682E+03  0.32677374300E+03  0.00000000000E+00 0. -1.
        -13    1    4    4    0    0 -0.17589655071E+02  0.40904839288E+02 -0.14787686570E+03  0.15443500009E+03  0.00000000000E+00 0.  1.
         13    1    4    4    0    0 -0.46250857381E+02 -0.58099537821E+01 -0.21765759693E+02  0.51445560221E+02  0.00000000000E+00 0. -1.
          1    1    1    2  501    0  0.79031482839E+02 -0.11035796428E+03 -0.15818912796E+03  0.20844341142E+03  0.00000000000E+00 0. -1.
<scales pt_clust_5="13000.00000" pt_clust_6="13000.00000" pt_clust_7="13000.00000" pt_clust_8="13000.00000" pt_clust_9="13000.00000"></scales>
<clustering>
<clus scale="   79.824">  5  6 -1 -1</clus>
<clus scale="   91.109">  7  8 -1 -1</clus>
<clus scale="  110.757">  2  5  1 -1</clus>
<clus scale="  102.328">  7  9 -1 -1</clus>
<clus scale="  253.359">  1  5  2 -1</clus>
</clustering>
</event>
<event>
 9    2  0.4178938E-005  0.2373888E+03  0.7546771E-02  0.1154603E+00
         21   -1    0    0  501  502  0.00000000000E+00  0.00000000000E+00  0.84188639569E+03  0.84188639569E+03  0.00000000000E+00 0. -1.
          2   -1    0    0  502    0 -0.00000000000E+00 -0.00000000000E+00 -0.37916009769E+02  0.37916009769E+02  0.00000000000E+00 0. -1.
         24    2    1    2    0    0  0.56927880335E+02  0.41934625842E+02  0.14966752878E+03  0.18376670811E+03  0.79815646563E+02 0.  0.
         23    2    1    2    0    0 -0.29768661551E+02  0.51839237430E+02  0.16068897117E+03  0.19285995367E+03  0.88320646091E+02 0.  0.
        -13    1    3    3    0    0  0.42491611066E+02 -0.71534306606E+01  0.26985397510E+02  0.50842111089E+02  0.00000000000E+00 0.  1.
         14    1    3    3    0    0  0.14436269269E+02  0.49088056503E+02  0.12268213127E+03  0.13292459702E+03  0.00000000000E+00 0. -1.
        -13    1    4    4    0    0  0.49533807390E+01  0.63664109290E+02  0.13075831529E+03  0.14551766838E+03  0.00000000000E+00 0.  1.
         13    1    4    4    0    0 -0.34722042290E+02 -0.11824871860E+02  0.29930655879E+02  0.47342285292E+02  0.00000000000E+00 0. -1.
          1    1    1    2  501    0 -0.27159218784E+02 -0.93773863272E+02  0.49361388598E+03  0.50317574368E+03  0.00000000000E+00 0. -1.
<scales pt_clust_5="13000.00000" pt_clust_6="13000.00000" pt_clust_7="13000.00000" pt_clust_8="13000.00000" pt_clust_9="13000.00000"></scales>
<clustering>
<clus scale="   79.816">  5  6 -1 -1</clus>
<clus scale="   88.321">  7  8 -1 -1</clus>
<clus scale="   97.628">  7  9 -1 -1</clus>
<clus scale="  106.629">  2  5  1 -1</clus>
<clus scale="  237.389">  1  5  2 -1</clus>
</clustering>
</event>
<event>
 9    2  0.4178938E-005  0.3066479E+03  0.7546771E-02  0.1085475E+00
         -1   -1    0    0    0  501 -0.00000000000E+00  0.00000000000E+00  0.43368756238E+02  0.43368756238E+02  0.00000000000E+00 0.  1.
         21   -1    0    0  501  502  0.00000000000E+00 -0.00000000000E+00 -0.21992029132E+04  0.21992029132E+04  0.00000000000E+00 0.  1.
         24    2    1    2    0    0  0.12206889182E+03 -0.23753614065E+03 -0.13875103159E+04  0.14153144876E+04  0.81277239616E+02 0.  0.
         23    2    1    2    0    0 -0.56568304845E+02  0.10477508368E+03 -0.29718980257E+03  0.33341195569E+03  0.93080407025E+02 0.  0.
        -11    1    3    3    0    0  0.83410229965E+02 -0.21996473402E+03 -0.12224116467E+04  0.12448421525E+04  0.00000000000E+00 0.  1.
         12    1    3    3    0    0  0.38658661851E+02 -0.17571406623E+02 -0.16509866919E+03  0.17047233510E+03  0.00000000000E+00 0. -1.
        -11    1    4    4    0    0 -0.51978883110E+02  0.69810553591E+01 -0.87925329610E+02  0.10237872343E+03  0.00000000000E+00 0.  1.
         11    1    4    4    0    0 -0.45894217350E+01  0.97794028318E+02 -0.20926447296E+03  0.23103323226E+03  0.00000000000E+00 0. -1.
         -2    1    1    2    0  502 -0.65500586970E+02  0.13276105697E+03 -0.47113403842E+03  0.49384522606E+03  0.00000000000E+00 0.  1.
<scales pt_clust_5="13000.00000" pt_clust_6="13000.00000" pt_clust_7="13000.00000" pt_clust_8="13000.00000" pt_clust_9="13000.00000"></scales>
<clustering>
<clus scale="   81.277">  5  6 -1 -1</clus>
<clus scale="   93.080">  7  8 -1 -1</clus>
<clus scale="  148.040">  7  9 -1 -1</clus>
<clus scale="  279.160">  1  5  2 -1</clus>
<clus scale="  306.648">  2  5  1 -1</clus>
</clustering>
</event>
<event>
 9    2  0.4178938E-005  0.3593053E+03  0.7546771E-02  0.1103777E+00
          2   -1    0    0  502    0 -0.00000000000E+00  0.00000000000E+00  0.98050243553E+03  0.98050243553E+03  0.00000000000E+00 0. -1.
         21   -1    0    0  501  502  0.00000000000E+00 -0.00000000000E+00 -0.55656043272E+02  0.55656043272E+02  0.00000000000E+00 0.  1.
         24    2    1    2    0    0 -0.54201104501E+02 -0.47135433812E+02  0.23338753050E+03  0.25691805257E+03  0.79860112023E+02 0.  0.
         23    2    1    2    0    0  0.11289941706E+03  0.15802327995E+03  0.34023972627E+03  0.40628401128E+03  0.10763824187E+03 0.  0.
        -13    1    3    3    0    0  0.20713751033E+02 -0.59882980129E+01  0.56159334269E+02  0.60156379716E+02  0.00000000000E+00 0.  1.
         14    1    3    3    0    0 -0.74914855534E+02 -0.41147135799E+02  0.17722819623E+03  0.19676167285E+03  0.00000000000E+00 0. -1.
        -13    1    4    4    0    0  0.10023380591E+03  0.10483345308E+03  0.31348437574E+03  0.34541181590E+03  0.00000000000E+00 0. -1.
         13    1    4    4    0    0  0.12665611155E+02  0.53189826872E+02  0.26755350527E+02  0.60872195380E+02  0.00000000000E+00 0.  1.
          1    1    1    2  501    0 -0.58698312561E+02 -0.11088784614E+03  0.35121913550E+03  0.37295641496E+03  0.00000000000E+00 0. -1.
<scales pt_clust_5="13000.00000" pt_clust_6="13000.00000" pt_clust_7="13000.00000" pt_clust_8="13000.00000" pt_clust_9="13000.00000"></scales>
<clustering>
<clus scale="   79.860">  5  6 -1 -1</clus>
<clus scale="  107.411">  1  5  2 -1</clus>
<clus scale="  107.638">  7  8 -1 -1</clus>
<clus scale="  158.975">  7  9 -1 -1</clus>
<clus scale="  359.305">  2  5  1 -1</clus>
</clustering>
</event>
<event>
 9    2  0.4178938E-005  0.4433275E+03  0.7546771E-02  0.1073657E+00
          2   -1    0    0  502    0 -0.00000000000E+00  0.00000000000E+00  0.49494176234E+03  0.49494176234E+03  0.00000000000E+00 0. -1.
         21   -1    0    0  501  502  0.00000000000E+00 -0.00000000000E+00 -0.35204145109E+03  0.35204145109E+03  0.00000000000E+00 0. -1.
         24    2    1    2    0    0  0.77719565722E+02  0.63243024672E+02  0.33914619928E+03  0.36216192345E+03  0.78109559271E+02 0.  0.
         23    2    1    2    0    0 -0.23285890904E+03  0.19228499937E+02 -0.17924793210E+03  0.30830302259E+03  0.91257470070E+02 0.  0.
        -11    1    3    3    0    0  0.52961294304E+02 -0.55222211746E+00  0.96832907962E+02  0.11037126305E+03  0.00000000000E+00 0.  1.
         12    1    3    3    0    0  0.24758271418E+02  0.63795246789E+02  0.24231329132E+03  0.25179066040E+03  0.00000000000E+00 0. -1.
        -13    1    4    4    0    0 -0.17637483344E+02 -0.25314301650E+02 -0.26276532318E+02  0.40525927964E+02  0.00000000000E+00 0.  1.
         13    1    4    4    0    0 -0.21522142570E+03  0.44542801587E+02 -0.15297139978E+03  0.26777709462E+03  0.00000000000E+00 0. -1.
          1    1    1    2  501    0  0.15513934332E+03 -0.82471524609E+02 -0.16997955930E+02  0.17651826739E+03  0.00000000000E+00 0. -1.
<scales pt_clust_5="13000.00000" pt_clust_6="13000.00000" pt_clust_7="13000.00000" pt_clust_8="13000.00000" pt_clust_9="13000.00000"></scales>
<clustering>
<clus scale="   78.110">  5  6 -1 -1</clus>
<clus scale="   91.257">  7  8 -1 -1</clus>
<clus scale="  127.048">  1  5  2 -1</clus>
<clus scale="  203.720">  7  9 -1 -1</clus>
<clus scale="  443.327">  2  5  1 -1</clus>
</clustering>
</event>
<event>
 9    2  0.5250327E-005  0.6207860E+03  0.7546771E-02  0.9943556E-01
         -3   -1    0    0    0  501 -0.00000000000E+00  0.00000000000E+00  0.13686116020E+04  0.13686116020E+04  0.00000000000E+00 0.  1.
         21   -1    0    0  501  502  0.00000000000E+00 -0.00000000000E+00 -0.23959163099E+03  0.23959163099E+03  0.00000000000E+00 0.  1.
         24    2    1    2    0    0 -0.15655023459E+03 -0.44742302805E+03  0.71912547100E+03  0.86430217143E+03  0.71982348611E+02 0.  0.
         23    2    1    2    0    0 -0.61635183650E+02 -0.79051295128E+01  0.36083406153E+02  0.11567869511E+03  0.90654075292E+02 0.  0.
        -11    1    3    3    0    0 -0.14246248991E+03 -0.34994761250E+03  0.52760737360E+03  0.64894409097E+03  0.00000000000E+00 0.  1.
         12    1    3    3    0    0 -0.14087744688E+02 -0.97475415542E+02  0.19151809741E+03  0.21535808046E+03  0.00000000000E+00 0. -1.
        -11    1    4    4    0    0 -0.71949944647E+02  0.17641244778E+02  0.51565821668E+01  0.74260341985E+02  0.00000000000E+00 0.  1.
         11    1    4    4    0    0  0.10314760998E+02 -0.25546374291E+02  0.30926823986E+02  0.41418353127E+02  0.00000000000E+00 0. -1.
         -4    1    1    2    0  502  0.21818541824E+03  0.45532815756E+03  0.37381109383E+03  0.62822236642E+03  0.00000000000E+00 0.  1.
<scales pt_clust_5="13000.00000" pt_clust_6="13000.00000" pt_clust_7="13000.00000" pt_clust_8="13000.00000" pt_clust_9="13000.00000"></scales>
<clustering>
<clus scale="   71.982">  5  6 -1 -1</clus>
<clus scale="   90.654">  7  8 -1 -1</clus>
<clus scale="  479.455">  1  5  2 -1</clus>
<clus scale="  105.913">  7  9 -1 -1</clus>
<clus scale="  620.786">  2  5  1 -1</clus>
</clustering>
</event>
<event>
 9    2  0.4178938E-005  0.2271150E+03  0.7546771E-02  0.1163817E+00
          2   -1    0    0  502    0 -0.00000000000E+00  0.00000000000E+00  0.12951438753E+03  0.12951438753E+03  0.00000000000E+00 0. -1.
         21   -1    0    0  501  502  0.00000000000E+00 -0.00000000000E+00 -0.26145367261E+03  0.26145367261E+03  0.00000000000E+00 0. -1.
         24    2    1    2    0    0  0.49686981584E+02  0.26128437665E+02  0.40050208225E+02  0.10607931584E+03  0.80605897276E+02 0.  0.
         23    2    1    2    0    0 -0.78767022267E+02 -0.84858865811E+02 -0.67223320186E+02  0.16131341106E+03  0.89987615295E+02 0.  0.
        -11    1    3    3    0    0  0.39021334461E+02 -0.23177631682E+02  0.73904929672E+01  0.45983546404E+02  0.00000000000E+00 0.  1.
         12    1    3    3    0    0  0.10665647123E+02  0.49306069347E+02  0.32659715258E+02  0.60095769433E+02  0.00000000000E+00 0. -1.
        -13    1    4    4    0    0 -0.34590145619E+00 -0.51695082324E+02  0.17665435254E+01  0.51726413565E+02  0.00000000000E+00 0.  1.
         13    1    4    4    0    0 -0.78421120810E+02 -0.33163783487E+02 -0.68989863711E+02  0.10958699749E+03  0.00000000000E+00 0. -1.
          1    1    1    2  501    0  0.29080040683E+02  0.58730428146E+02 -0.10476617312E+03  0.12357533325E+03  0.00000000000E+00 0. -1.
<scales pt_clust_5="13000.00000" pt_clust_6="13000.00000" pt_clust_7="13000.00000" pt_clust_8="13000.00000" pt_clust_9="13000.00000"></scales>
<clustering>
<clus scale="   80.606">  5  6 -1 -1</clus>
<clus scale="   89.988">  7  8 -1 -1</clus>
<clus scale="   65.536">  7  9 -1 -1</clus>
<clus scale="   98.228">  1  5  2 -1</clus>
<clus scale="  227.115">  2  5  1 -1</clus>
</clustering>
</event>
<event>
 9    2  0.4178938E-005  0.2936983E+03  0.7546771E-02  0.1119398E+00
          2   -1    0    0  502    0 -0.00000000000E+00  0.00000000000E+00  0.52777232966E+03  0.52777232966E+03  0.00000000000E+00 0. -1.
         21   -1    0    0  501  502  0.00000000000E+00 -0.00000000000E+00 -0.97615594877E+02  0.97615594877E+02  0.00000000000E+00 0. -1.
         24    2    1    2    0    0  0.91756381961E+02  0.55802976932E+02  0.24435490544E+03  0.27785226970E+03  0.77196878827E+02 0.  0.
         23    2    1    2    0    0 -0.65912219906E+02  0.85503428458E+02  0.13468097348E+03  0.19506020494E+03  0.90852968696E+02 0.  0.
        -11    1    3    3    0    0  0.20276317331E+02  0.46758271949E+02  0.15443502735E+03  0.16262731232E+03  0.00000000000E+00 0.  1.
         12    1    3    3    0    0  0.71480064630E+02  0.90447049827E+01  0.89919878094E+02  0.11522495738E+03  0.00000000000E+00 0. -1.
        -13    1    4    4    0    0 -0.86834236919E+02  0.59612547039E+02  0.11678853288E+03  0.15726856608E+03  0.00000000000E+00 0. -1.
         13    1    4    4    0    0  0.20922017013E+02  0.25890881419E+02  0.17892440605E+02  0.37791638855E+02  0.00000000000E+00 0.  1.
          1    1    1    2  501    0 -0.25844162055E+02 -0.14130640539E+03  0.51120855854E+02  0.15247544989E+03  0.00000000000E+00 0. -1.
<scales pt_clust_5="13000.00000" pt_clust_6="13000.00000" pt_clust_7="13000.00000" pt_clust_8="13000.00000" pt_clust_9="13000.00000"></scales>
<clustering>
<clus scale="   77.197">  5  6 -1 -1</clus>
<clus scale="   90.853">  7  8 -1 -1</clus>
<clus scale="  132.259">  1  5  2 -1</clus>
<clus scale="  120.355">  7  9 -1 -1</clus>
<clus scale="  293.698">  2  5  1 -1</clus>
</clustering>
</event>
<event>
 9    2  0.4178938E-005  0.2693809E+03  0.7546771E-02  0.1147148E+00
         21   -1    0    0  501  502  0.00000000000E+00  0.00000000000E+00  0.18963430719E+03  0.18963430719E+03  0.00000000000E+00 0.  1.
         -1   -1    0    0    0  501 -0.00000000000E+00 -0.00000000000E+00 -0.24668862660E+03  0.24668862660E+03  0.00000000000E+00 0.  1.
         24    2    1    2    0    0  0.19612292554E+02  0.28373678428E+02  0.93481620430E+02  0.12773401649E+03  0.79921573830E+02 0.  0.
         23    2    1    2    0    0  0.26575211595E+01  0.85566734798E+02 -0.14457455519E+03  0.19233961418E+03  0.93616220023E+02 0.  0.
        -13    1    3    3    0    0  0.32186758016E+02  0.34343148088E+02  0.10134866309E+03  0.11174520447E+03  0.00000000000E+00 0.  1.
         14    1    3    3    0    0 -0.12574465462E+02 -0.59694696595E+01 -0.78670426571E+01  0.15988812021E+02  0.00000000000E+00 0. -1.
        -11    1    4    4    0    0  0.42836668719E+02  0.65569255051E+02 -0.68686982222E+02  0.10417393590E+03  0.00000000000E+00 0.  1.
         11    1    4    4    0    0 -0.40179147559E+02  0.19997479746E+02 -0.75887572965E+02  0.88165678273E+02  0.00000000000E+00 0. -1.
         -2    1    1    2    0  502 -0.22269813713E+02 -0.11394041323E+03 -0.59613846555E+01  0.11624930312E+03  0.00000000000E+00 0.  1.
<scales pt_clust_5="13000.00000" pt_clust_6="13000.00000" pt_clust_7="13000.00000" pt_clust_8="13000.00000" pt_clust_9="13000.00000"></scales>
<clustering>
<clus scale="   79.922">  5  6 -1 -1</clus>
<clus scale="   87.047">  2  5  1 -1</clus>
<clus scale="   93.616">  7  8 -1 -1</clus>
<clus scale="  107.745">  7  9 -1 -1</clus>
<clus scale="  269.381">  1  5  2 -1</clus>
</clustering>
</event>
<event>
 9    2  0.4178938E-005  0.4446510E+03  0.7546771E-02  0.1076516E+00
          2   -1    0    0  502    0 -0.00000000000E+00  0.00000000000E+00  0.10187185709E+04  0.10187185709E+04  0.00000000000E+00 0. -1.
         21   -1    0    0  501  502  0.00000000000E+00 -0.00000000000E+00 -0.79280076555E+02  0.79280076555E+02  0.00000000000E+00 0. -1.
         24    2    1    2    0    0 -0.78278668302E+02 -0.31290478105E+02  0.27324095611E+03  0.29704065979E+03  0.80410755134E+02 0.  0.
         23    2    1    2    0    0 -0.12778157492E+03  0.28805836606E+02  0.78192208098E+02  0.17788715257E+03  0.91498144947E+02 0.  0.
        -13    1    3    3    0    0 -0.31767674239E+02  0.26570902631E+02  0.81240014571E+02  0.91187378297E+02  0.00000000000E+00 0.  1.
         14    1    3    3    0    0 -0.46510994063E+02 -0.57861380736E+02  0.19200094154E+03  0.20585328149E+03  0.00000000000E+00 0. -1.
        -11    1    4    4    0    0 -0.78650549518E+02  0.49802028971E+02  0.13631172011E+02  0.94084854676E+02  0.00000000000E+00 0. -1.
         11    1    4    4    0    0 -0.49131025405E+02 -0.20996192364E+02  0.64561036087E+02  0.83802297890E+02  0.00000000000E+00 0.  1.
          1    1    1    2  501    0  0.20606024322E+03  0.24846414991E+01  0.58800533013E+03  0.62307083510E+03  0.00000000000E+00 0. -1.
<scales pt_clust_5="13000.00000" pt_clust_6="13000.00000" pt_clust_7="13000.00000" pt_clust_8="13000.00000" pt_clust_9="13000.00000"></scales>
<clustering>
<clus scale="   80.411">  5  6 -1 -1</clus>
<clus scale="   91.498">  7  8 -1 -1</clus>
<clus scale="  116.501">  1  5  2 -1</clus>
<clus scale="  143.358">  7  9 -1 -1</clus>
<clus scale="  444.651">  2  5  1 -1</clus>
</clustering>
</event>
<event>
 9    2  0.4178938E-005  0.2206031E+03  0.7546771E-02  0.1149927E+00
         21   -1    0    0  501  502  0.00000000000E+00  0.00000000000E+00  0.28387175513E+02  0.28387175513E+02  0.00000000000E+00 0. -1.
          2   -1    0    0  502    0 -0.00000000000E+00 -0.00000000000E+00 -0.13392511846E+04  0.13392511846E+04  0.00000000000E+00 0. -1.
         24    2    1    2    0    0 -0.11522098779E+03 -0.49648692278E+02 -0.75804067056E+03  0.77242464656E+03  0.79204215275E+02 0.  0.
         23    2    1    2    0    0  0.40264322719E+02  0.25894380340E+01 -0.13388005039E+03  0.16702385646E+03  0.91351955970E+02 0.  0.
        -11    1    3    3    0    0 -0.11840390675E+02 -0.30283583742E+02 -0.81332812571E+02  0.87591761578E+02  0.00000000000E+00 0.  1.
         12    1    3    3    0    0 -0.10338059711E+03 -0.19365108536E+02 -0.67670785799E+03  0.68483288498E+03  0.00000000000E+00 0. -1.
        -13    1    4    4    0    0 -0.90733275389E+01  0.29150249119E+02 -0.92386378927E+02  0.97300078661E+02  0.00000000000E+00 0.  1.
         13    1    4    4    0    0  0.49337650258E+02 -0.26560811085E+02 -0.41493671468E+02  0.69723777798E+02  0.00000000000E+00 0. -1.
          1    1    1    2  501    0  0.74956665066E+02  0.47059254244E+02 -0.41894328815E+03  0.42818985711E+03  0.00000000000E+00 0. -1.
<scales pt_clust_5="13000.00000" pt_clust_6="13000.00000" pt_clust_7="13000.00000" pt_clust_8="13000.00000" pt_clust_9="13000.00000"></scales>
<clustering>
<clus scale="   79.204">  5  6 -1 -1</clus>
<clus scale="   91.352">  7  8 -1 -1</clus>
<clus scale="   88.505">  7  9 -1 -1</clus>
<clus scale="  148.372">  2  5  1 -1</clus>
<clus scale="  220.603">  1  5  2 -1</clus>
</clustering>
</event>
<event>
 9    2  0.4178938E-005  0.2265020E+03  0.7546771E-02  0.1162713E+00
          2   -1    0    0  502    0 -0.00000000000E+00  0.00000000000E+00  0.31393413955E+03  0.31393413955E+03  0.00000000000E+00 0. -1.
         21   -1    0    0  501  502  0.00000000000E+00 -0.00000000000E+00 -0.88083668383E+02  0.88083668383E+02  0.00000000000E+00 0. -1.
         24    2    1    2    0    0  0.61012464644E+02 -0.21797069640E+02  0.40591807705E+02  0.10940217692E+03  0.78252848997E+02 0.  0.
         23    2    1    2    0    0 -0.48176021545E+02  0.81936385949E+02  0.43294293558E+02  0.13790495277E+03  0.90049318436E+02 0.  0.
        -11    1    3    3    0    0  0.12828805082E+01 -0.36598036006E+02  0.18107823965E+01  0.36665255417E+02  0.00000000000E+00 0.  1.
         12    1    3    3    0    0  0.59729584136E+02  0.14800966366E+02  0.38781025308E+02  0.72736921507E+02  0.00000000000E+00 0. -1.
        -13    1    4    4    0    0 -0.25367726220E+02 -0.92553624165E+01  0.34039518899E+02  0.43449650332E+02  0.00000000000E+00 0.  1.
         13    1    4    4    0    0 -0.22808295325E+02  0.91191748365E+02  0.92547746586E+01  0.94455302442E+02  0.00000000000E+00 0. -1.
          1    1    1    2  501    0 -0.12836443099E+02 -0.60139316308E+02  0.14196436990E+03  0.15471067823E+03  0.00000000000E+00 0. -1.
<scales pt_clust_5="13000.00000" pt_clust_6="13000.00000" pt_clust_7="13000.00000" pt_clust_8="13000.00000" pt_clust_9="13000.00000"></scales>
<clustering>
<clus scale="   78.253">  5  6 -1 -1</clus>
<clus scale="   90.049">  7  8 -1 -1</clus>
<clus scale="   61.494">  7  9 -1 -1</clus>
<clus scale="  101.593">  1  5  2 -1</clus>
<clus scale="  226.502">  2  5  1 -1</clus>
</clustering>
</event>
<event>
 9    2  0.4178938E-005  0.4608358E+03  0.7546771E-02  0.1069134E+00
         21   -1    0    0  501  502  0.00000000000E+00  0.00000000000E+00  0.23519410610E+03  0.23519410610E+03  0.00000000000E+00 0. -1.
          4   -1    0    0  502    0 -0.00000000000E+00 -0.00000000000E+00 -0.40336157546E+03  0.40336157546E+03  0.00000000000E+00 0. -1.
         24    2    1    2    0    0  0.33208187530E+02  0.93559931829E+02 -0.11954615741E+03  0.17516201628E+03  0.80834421098E+02 0.  0.
         23    2    1    2    0    0 -0.15919221872E+03 -0.16491278542E+03  0.91727360356E+02  0.26174804631E+03  0.86946775752E+02 0.  0.
        -13    1    3    3    0    0 -0.20551528732E+02  0.58392911210E+02 -0.43743366187E+02  0.75799600910E+02  0.00000000000E+00 0.  1.
         14    1    3    3    0    0  0.53759716262E+02  0.35167020620E+02 -0.75802791218E+02  0.99362415371E+02  0.00000000000E+00 0. -1.
        -11    1    4    4    0    0 -0.21745739736E+02 -0.79047536452E+02  0.19232937383E+02  0.84209833726E+02  0.00000000000E+00 0. -1.
         11    1    4    4    0    0 -0.13744647899E+03 -0.85865248967E+02  0.72494422973E+02  0.17753821259E+03  0.00000000000E+00 0.  1.
          3    1    1    2  501    0  0.12598403119E+03  0.71352853589E+02 -0.14034867230E+03  0.20164561897E+03  0.00000000000E+00 0. -1.
<scales pt_clust_5="13000.00000" pt_clust_6="13000.00000" pt_clust_7="13000.00000" pt_clust_8="13000.00000" pt_clust_9="13000.00000"></scales>
<clustering>
<clus scale="   80.834">  5  6 -1 -1</clus>
<clus scale="   86.947">  7  8 -1 -1</clus>
<clus scale="  128.025">  2  5  1 -1</clus>
<clus scale="  199.668">  7  9 -1 -1</clus>
<clus scale="  460.836">  1  5  2 -1</clus>
</clustering>
</event>
<event>
 9    2  0.4178938E-005  0.1935561E+03  0.7546771E-02  0.1187461E+00
         21   -1    0    0  501  502  0.00000000000E+00  0.00000000000E+00  0.31609490942E+03  0.31609490942E+03  0.00000000000E+00 0. -1.
          4   -1    0    0  502    0 -0.00000000000E+00 -0.00000000000E+00 -0.88386746029E+02  0.88386746029E+02  0.00000000000E+00 0. -1.
         24    2    1    2    0    0  0.47008307385E+02  0.19647942422E+02 -0.14951227578E+02  0.94082670723E+02  0.77667155991E+02 0.  0.
         23    2    1    2    0    0  0.35230780115E+02  0.17309698289E+02  0.16008242374E+03  0.18813660197E+03  0.90709233752E+02 0.  0.
        -13    1    3    3    0    0  0.54782176021E+02  0.48264355754E+01 -0.37087559384E+02  0.66331503458E+02  0.00000000000E+00 0.  1.
         14    1    3    3    0    0 -0.77738686356E+01  0.14821506847E+02  0.22136331806E+02  0.27751167265E+02  0.00000000000E+00 0. -1.
        -11    1    4    4    0    0  0.35727461925E+01 -0.30212936711E+02  0.18830961557E+02  0.35779759268E+02  0.00000000000E+00 0.  1.
         11    1    4    4    0    0  0.31658033922E+02  0.47522635001E+02  0.14125146219E+03  0.15235684271E+03  0.00000000000E+00 0. -1.
          3    1    1    2  501    0 -0.82239087500E+02 -0.36957640711E+02  0.82576967221E+02  0.12226238275E+03  0.00000000000E+00 0. -1.
<scales pt_clust_5="13000.00000" pt_clust_6="13000.00000" pt_clust_7="13000.00000" pt_clust_8="13000.00000" pt_clust_9="13000.00000"></scales>
<clustering>
<clus scale="   77.667">  5  6 -1 -1</clus>
<clus scale="   90.709">  7  8 -1 -1</clus>
<clus scale="   90.162">  7  9 -1 -1</clus>
<clus scale="   92.887">  2  5  1 -1</clus>
<clus scale="  193.556">  1  5  2 -1</clus>
</clustering>
</event>
<event>
 9    2  0.4178938E-005  0.3416813E+03  0.7546771E-02  0.1113867E+00
         21   -1    0    0  501  502  0.00000000000E+00  0.00000000000E+00  0.16969589513E+03  0.16969589513E+03  0.00000000000E+00 0.  1.
          2   -1    0    0  502    0 -0.00000000000E+00 -0.00000000000E+00 -0.28945652085E+03  0.28945652085E+03  0.00000000000E+00 0. -1.
         24    2    1    2    0    0 -0.33187741877E+02  0.46503780834E+02 -0.55886971309E+02  0.11155211558E+03  0.77823473867E+02 0.  0.
         23    2    1    2    0    0 -0.12036224591E+03 -0.95421441413E+02 -0.27699983170E+02  0.18243653091E+03  0.94464157333E+02 0.  0.
        -11    1    3    3    0    0 -0.78821157146E+01  0.40043773350E+02  0.88365628376E+01  0.41757830105E+02  0.00000000000E+00 0.  1.
         12    1    3    3    0    0 -0.25305626163E+02  0.64600074843E+01 -0.64723534146E+02  0.69794285472E+02  0.00000000000E+00 0. -1.
        -11    1    4    4    0    0 -0.35910032409E+02  0.14015299999E+02  0.86428324149E+01  0.39505159332E+02  0.00000000000E+00 0. -1.
         11    1    4    4    0    0 -0.84452213496E+02 -0.10943674141E+03 -0.36342815585E+02  0.14293137157E+03  0.00000000000E+00 0.  1.
          1    1    1    2  501    0  0.15354998778E+03  0.48917660578E+02 -0.36173671238E+02  0.16516376950E+03  0.00000000000E+00 0. -1.
<scales pt_clust_5="13000.00000" pt_clust_6="13000.00000" pt_clust_7="13000.00000" pt_clust_8="13000.00000" pt_clust_9="13000.00000"></scales>
<clustering>
<clus scale="   77.823">  5  6 -1 -1</clus>
<clus scale="   94.464">  7  8 -1 -1</clus>
<clus scale="   96.543">  2  5  1 -1</clus>
<clus scale="  154.891">  7  9 -1 -1</clus>
<clus scale="  341.681">  1  5  2 -1</clus>
</clustering>
</event>
<event>
 9    2  0.4178938E-005  0.1971442E+03  0.7546771E-02  0.1190019E+00
         21   -1    0    0  501  502  0.00000000000E+00  0.00000000000E+00  0.59257410874E+03  0.59257410874E+03  0.00000000000E+00 0. -1.
         -1   -1    0    0    0  501 -0.00000000000E+00 -0.00000000000E+00 -0.17186173800E+03  0.17186173800E+03  0.00000000000E+00 0.  1.
         24    2    1    2    0    0 -0.23793506901E+02  0.14061452546E+02 -0.14403293220E+03  0.16626941065E+03  0.78333747143E+02 0.  0.
         23    2    1    2    0    0  0.26067062130E+02 -0.85789318256E+02  0.39658984438E+03  0.41533778950E+03  0.84750668853E+02 0.  0.
        -11    1    3    3    0    0 -0.23514769991E+02  0.25745649021E+02 -0.14939535751E+03  0.15341041587E+03  0.00000000000E+00 0.  1.
         12    1    3    3    0    0 -0.27873690963E+00 -0.11684196476E+02  0.53624253119E+01  0.12858994781E+02  0.00000000000E+00 0. -1.
        -11    1    4    4    0    0  0.53249106846E+02 -0.40113651783E+02  0.26860461307E+03  0.27675442291E+03  0.00000000000E+00 0. -1.
         11    1    4    4    0    0 -0.27182044716E+02 -0.45675666474E+02  0.12798523131E+03  0.13858336659E+03  0.00000000000E+00 0.  1.
         -2    1    1    2    0  502 -0.22735552297E+01  0.71727865711E+02  0.16815545856E+03  0.18282864660E+03  0.00000000000E+00 0.  1.
<scales pt_clust_5="13000.00000" pt_clust_6="13000.00000" pt_clust_7="13000.00000" pt_clust_8="13000.00000" pt_clust_9="13000.00000"></scales>
<clustering>
<clus scale="   78.334">  5  6 -1 -1</clus>
<clus scale="   83.066">  2  5  1 -1</clus>
<clus scale="   84.751">  7  8 -1 -1</clus>
<clus scale="   78.933">  7  9 -1 -1</clus>
<clus scale="  197.144">  1  5  2 -1</clus>
</clustering>
</event>
<event>
 9    2  0.4178938E-005  0.1591893E+03  0.7546771E-02  0.1219424E+00
          2   -1    0    0  502    0 -0.00000000000E+00  0.00000000000E+00  0.44131834763E+03  0.44131834763E+03  0.00000000000E+00 0. -1.
         21   -1    0    0  501  502  0.00000000000E+00 -0.00000000000E+00 -0.42076355412E+02  0.42076355412E+02  0.00000000000E+00 0. -1.
         24    2    1    2    0    0 -0.19304933032E+02 -0.83196661735E+01  0.45054129943E+02  0.95077472524E+02  0.81042913768E+02 0.  0.
         23    2    1    2    0    0  0.62873316212E+02  0.18214072565E+02  0.21909095498E+03  0.24602430149E+03  0.90787135863E+02 0.  0.
        -11    1    3    3    0    0 -0.47784579747E+02  0.11324553849E+02  0.27433342959E+02  0.56251221208E+02  0.00000000000E+00 0.  1.
         12    1    3    3    0    0  0.28479646715E+02 -0.19644220022E+02  0.17620786984E+02  0.38826251316E+02  0.00000000000E+00 0. -1.
        -11    1    4    4    0    0  0.17131208160E+02 -0.31515851100E+02  0.35813435058E+02  0.50688551905E+02  0.00000000000E+00 0. -1.
         11    1    4    4    0    0  0.45742108052E+02  0.49729923665E+02  0.18327751992E+03  0.19533574958E+03  0.00000000000E+00 0.  1.
          1    1    1    2  501    0 -0.43568383180E+02 -0.98944063917E+01  0.13509690730E+03  0.14229292903E+03  0.00000000000E+00 0. -1.
<scales pt_clust_5="13000.00000" pt_clust_6="13000.00000" pt_clust_7="13000.00000" pt_clust_8="13000.00000" pt_clust_9="13000.00000"></scales>
<clustering>
<clus scale="   81.043">  5  6 -1 -1</clus>
<clus scale="   83.725">  1  5  2 -1</clus>
<clus scale="   90.787">  7  8 -1 -1</clus>
<clus scale="   52.419">  7  9 -1 -1</clus>
<clus scale="  159.189">  2  5  1 -1</clus>
</clustering>
</event>
<event>
 9    2  0.4178938E-005  0.2310374E+03  0.7546771E-02  0.1168495E+00
          2   -1    0    0  502    0 -0.00000000000E+00  0.00000000000E+00  0.18912479110E+03  0.18912479110E+03  0.00000000000E+00 0. -1.
         21   -1    0    0  501  502  0.00000000000E+00 -0.00000000000E+00 -0.15430242313E+03  0.15430242313E+03  0.00000000000E+00 0.  1.
         24    2    1    2    0    0  0.20730556946E+02 -0.25924968437E+01  0.70693029751E+02  0.10962178737E+03  0.81135410150E+02 0.  0.
         23    2    1    2    0    0 -0.35302540316E+02  0.62380944859E+02 -0.94214101896E+02  0.14900590906E+03  0.90492056575E+02 0.  0.
        -11    1    3    3    0    0 -0.48850039352E+01  0.21079183771E+02  0.71532258961E+02  0.74733254471E+02  0.00000000000E+00 0.  1.
         12    1    3    3    0    0  0.25615560881E+02 -0.23671680614E+02 -0.83922920952E+00  0.34888532901E+02  0.00000000000E+00 0. -1.
        -11    1    4    4    0    0  0.30624120563E+02  0.17198026905E+02 -0.23221761456E+02  0.42105333329E+02  0.00000000000E+00 0. -1.
         11    1    4    4    0    0 -0.65926660879E+02  0.45182917954E+02 -0.70992340440E+02  0.10690057573E+03  0.00000000000E+00 0.  1.
          1    1    1    2  501    0  0.14571983371E+02 -0.59788448015E+02  0.58343440113E+02  0.84799517803E+02  0.00000000000E+00 0. -1.
<scales pt_clust_5="13000.00000" pt_clust_6="13000.00000" pt_clust_7="13000.00000" pt_clust_8="13000.00000" pt_clust_9="13000.00000"></scales>
<clustering>
<clus scale="   81.135">  5  6 -1 -1</clus>
<clus scale="   83.782">  1  5  2 -1</clus>
<clus scale="   90.492">  7  8 -1 -1</clus>
<clus scale="   68.384">  7  9 -1 -1</clus>
<clus scale="  231.037">  2  5  1 -1</clus>
</clustering>
</event>
<event>
 9    2  0.4178938E-005  0.2696118E+03  0.7546771E-02  0.1147002E+00
         -1   -1    0    0    0  501 -0.00000000000E+00  0.00000000000E+00  0.40121094104E+03  0.40121094104E+03  0.00000000000E+00 0.  1.
         21   -1    0    0  501  502  0.00000000000E+00 -0.00000000000E+00 -0.96973428013E+02  0.96973428013E+02  0.00000000000E+00 0.  1.
         24    2    1    2    0    0  0.24478692340E+02  0.26227182080E+02 -0.57942555957E+01  0.87319141075E+02  0.79397654510E+02 0.  0.
         23    2    1    2    0    0  0.57918098580E+02 -0.24639509895E+02  0.24289956728E+02  0.11347636651E+03  0.91242929417E+02 0.  0.
        -11    1    3    3    0    0 -0.48318640420E+01  0.48975665158E+02 -0.91802860708E+01  0.50062364508E+02  0.00000000000E+00 0.  1.
         12    1    3    3    0    0  0.29310556382E+02 -0.22748483079E+02  0.33860304751E+01  0.37256776567E+02  0.00000000000E+00 0. -1.
        -11    1    4    4    0    0  0.54114444309E+02  0.25793677452E+02  0.88597526878E+01  0.60598532136E+02  0.00000000000E+00 0.  1.
         11    1    4    4    0    0  0.38036542705E+01 -0.50433187347E+02  0.15430204040E+02  0.52877834378E+02  0.00000000000E+00 0. -1.
         -2    1    1    2    0  502 -0.82396790920E+02 -0.15876721844E+01  0.28574181189E+03  0.29738886146E+03  0.00000000000E+00 0.  1.
<scales pt_clust_5="13000.00000" pt_clust_6="13000.00000" pt_clust_7="13000.00000" pt_clust_8="13000.00000" pt_clust_9="13000.00000"></scales>
<clustering>
<clus scale="   79.398">  5  6 -1 -1</clus>
<clus scale="   87.127">  1  5  2 -1</clus>
<clus scale="   91.243">  7  8 -1 -1</clus>
<clus scale="   65.601">  7  9 -1 -1</clus>
<clus scale="  269.612">  2  5  1 -1</clus>
</clustering>
</event>
<event>
 9    2  0.4178938E-005  0.5171386E+03  0.7546771E-02  0.1073925E+00
          2   -1    0    0  502    0 -0.00000000000E+00  0.00000000000E+00  0.83652592812E+03  0.83652592812E+03  0.00000000000E+00 0. -1.
         21   -1    0    0  501  502  0.00000000000E+00 -0.00000000000E+00 -0.13330806859E+03  0.13330806859E+03  0.00000000000E+00 0. -1.
         24    2    1    2    0    0  0.12448890108E+02 -0.16398690760E+02  0.31042957704E+03  0.32043815642E+03  0.76747624486E+02 0.  0.
         23    2    1    2    0    0  0.17274825074E+03  0.18313446766E+03  0.19909193293E+03  0.33377411082E+03  0.91582574306E+02 0.  0.
        -13    1    3    3    0    0 -0.28057634618E+02  0.66639626923E+01  0.17123783298E+03  0.17364917132E+03  0.00000000000E+00 0.  1.
         14    1    3    3    0    0  0.40506524726E+02 -0.23062653452E+02  0.13919174407E+03  0.14678898510E+03  0.00000000000E+00 0. -1.
        -11    1    4    4    0    0  0.85089092015E+01  0.64309772064E+02  0.55245468454E+02  0.85206866528E+02  0.00000000000E+00 0.  1.
         11    1    4    4    0    0  0.16423934154E+03  0.11882469560E+03  0.14384646448E+03  0.24856724430E+03  0.00000000000E+00 0. -1.
          1    1    1    2  501    0 -0.18519714085E+03 -0.16673577690E+03  0.19369634956E+03  0.31562172947E+03  0.00000000000E+00 0. -1.
<scales pt_clust_5="13000.00000" pt_clust_6="13000.00000" pt_clust_7="13000.00000" pt_clust_8="13000.00000" pt_clust_9="13000.00000"></scales>
<clustering>
<clus scale="   76.748">  5  6 -1 -1</clus>
<clus scale="   79.461">  1  5  2 -1</clus>
<clus scale="   91.583">  7  8 -1 -1</clus>
<clus scale="  250.238">  7  9 -1 -1</clus>
<clus scale="  517.139">  2  5  1 -1</clus>
</clustering>
</event>
<event>
 9    2  0.4178938E-005  0.6283676E+03  0.7546771E-02  0.1026973E+00
          2   -1    0    0  502    0 -0.00000000000E+00  0.00000000000E+00  0.79506118065E+03  0.79506118065E+03  0.00000000000E+00 0. -1.
         21   -1    0    0  501  502  0.00000000000E+00 -0.00000000000E+00 -0.20607796669E+03  0.20607796669E+03  0.00000000000E+00 0. -1.
         24    2    1    2    0    0 -0.19072914598E+01  0.14834554571E+03  0.58684567126E+02  0.17890895912E+03  0.80959857577E+02 0.  0.
         23    2    1    2    0    0  0.87814328938E+02  0.15915494832E+03 -0.31192099468E+01  0.20056212337E+03  0.84698181331E+02 0.  0.
        -13    1    3    3    0    0  0.19498649394E+02  0.67165751795E+01 -0.63786915181E+01  0.21586973290E+02  0.00000000000E+00 0.  1.
         14    1    3    3    0    0 -0.21405940854E+02  0.14162897054E+03  0.65063258644E+02  0.15732198583E+03  0.00000000000E+00 0. -1.
        -11    1    4    4    0    0  0.68878990125E+02  0.13960422923E+03  0.29118476502E+02  0.15837153081E+03  0.00000000000E+00 0.  1.
         11    1    4    4    0    0  0.18935338813E+02  0.19550719089E+02 -0.32237686449E+02  0.42190592559E+02  0.00000000000E+00 0. -1.
          1    1    1    2  501    0 -0.85907037478E+02 -0.30750049403E+03  0.53341785679E+03  0.62166806485E+03  0.00000000000E+00 0. -1.
<scales pt_clust_5="13000.00000" pt_clust_6="13000.00000" pt_clust_7="13000.00000" pt_clust_8="13000.00000" pt_clust_9="13000.00000"></scales>
<clustering>
<clus scale="   80.960">  5  6 -1 -1</clus>
<clus scale="   84.698">  7  8 -1 -1</clus>
<clus scale="  169.011">  1  5  2 -1</clus>
<clus scale="  200.886">  7  9 -1 -1</clus>
<clus scale="  628.368">  2  5  1 -1</clus>
</clustering>
</event>
<event>
 9    2  0.4178938E-005  0.5001570E+03  0.7546771E-02  0.1059436E+00
          2   -1    0    0  502    0 -0.00000000000E+00  0.00000000000E+00  0.19729672234E+03  0.19729672234E+03  0.00000000000E+00 0. -1.
         21   -1    0    0  501  502  0.00000000000E+00 -0.00000000000E+00 -0.96070295249E+03  0.96070295249E+03  0.00000000000E+00 0. -1.
         24    2    1    2    0    0  0.92762234774E+02 -0.45633704064E+02 -0.62563006423E+03  0.63921327857E+03  0.80581456254E+02 0.  0.
         23    2    1    2    0    0 -0.25183429292E+02  0.13895229299E+03 -0.28546876410E+03  0.33146753030E+03  0.91849678993E+02 0.  0.
        -11    1    3    3    0    0  0.16381088319E+02 -0.46597705061E+02 -0.16300299530E+03  0.17032223181E+03  0.00000000000E+00 0.  1.
         12    1    3    3    0    0  0.76381146454E+02  0.96400099678E+00 -0.46262706892E+03  0.46889104676E+03  0.00000000000E+00 0. -1.
        -11    1    4    4    0    0 -0.60087485928E+02  0.91180829211E+02 -0.17978324487E+03  0.21034843645E+03  0.00000000000E+00 0. -1.
         11    1    4    4    0    0  0.34904056637E+02  0.47771463778E+02 -0.10568551923E+03  0.12111909385E+03  0.00000000000E+00 0.  1.
          1    1    1    2  501    0 -0.67578805482E+02 -0.93318588924E+02  0.14769259817E+03  0.18731886596E+03  0.00000000000E+00 0. -1.
<scales pt_clust_5="13000.00000" pt_clust_6="13000.00000" pt_clust_7="13000.00000" pt_clust_8="13000.00000" pt_clust_9="13000.00000"></scales>
<clustering>
<clus scale="   80.581">  5  6 -1 -1</clus>
<clus scale="   91.850">  7  8 -1 -1</clus>
<clus scale="  115.218">  7  9 -1 -1</clus>
<clus scale="  131.075">  1  5  2 -1</clus>
<clus scale="  500.157">  2  5  1 -1</clus>
</clustering>
</event>
<event>
 9    2  0.4178938E-005  0.2012527E+03  0.7546771E-02  0.1180990E+00
         21   -1    0    0  501  502  0.00000000000E+00  0.00000000000E+00  0.31173293298E+03  0.31173293298E+03  0.00000000000E+00 0.  1.
         -3   -1    0    0    0  501 -0.00000000000E+00 -0.00000000000E+00 -0.76411358541E+02  0.76411358541E+02  0.00000000000E+00 0.  1.
         24    2    1    2    0    0 -0.35503174423E+02 -0.37523130282E+02  0.12914147921E+03  0.16059900596E+03  0.80287348702E+02 0.  0.
         23    2    1    2    0    0  0.92551911579E+02  0.23426832845E+02  0.11153684770E+03  0.16853716062E+03  0.82762511316E+02 0.  0.
        -13    1    3    3    0    0 -0.48582568327E+02 -0.33586711457E+02  0.13372850185E+03  0.14619044202E+03  0.00000000000E+00 0.  1.
         14    1    3    3    0    0  0.13079393904E+02 -0.39364188246E+01 -0.45870226365E+01  0.14408563937E+02  0.00000000000E+00 0. -1.
        -11    1    4    4    0    0  0.67079031245E+02  0.49352922703E+02  0.50195015323E+02  0.97236037431E+02  0.00000000000E+00 0.  1.
         11    1    4    4    0    0  0.25472880334E+02 -0.25926089858E+02  0.61341832380E+02  0.71301123186E+02  0.00000000000E+00 0. -1.
         -4    1    1    2    0  502 -0.57048737156E+02  0.14096297437E+02 -0.53567524737E+01  0.59008124946E+02  0.00000000000E+00 0.  1.
<scales pt_clust_5="13000.00000" pt_clust_6="13000.00000" pt_clust_7="13000.00000" pt_clust_8="13000.00000" pt_clust_9="13000.00000"></scales>
<clustering>
<clus scale="   80.287">  5  6 -1 -1</clus>
<clus scale="   82.763">  7  8 -1 -1</clus>
<clus scale="   58.765">  7  9 -1 -1</clus>
<clus scale="   95.470">  2  5  1 -1</clus>
<clus scale="  201.253">  1  5  2 -1</clus>
</clustering>
</event>
<event>
 9    2  0.4178938E-005  0.1885662E+03  0.7546771E-02  0.1189634E+00
         21   -1    0    0  501  502  0.00000000000E+00  0.00000000000E+00  0.63026642309E+02  0.63026642309E+02  0.00000000000E+00 0. -1.
          2   -1    0    0  502    0 -0.00000000000E+00 -0.00000000000E+00 -0.10285871758E+04  0.10285871758E+04  0.00000000000E+00 0. -1.
         24    2    1    2    0    0 -0.31689437678E+02  0.41529176546E+02 -0.87887966964E+03  0.88407878245E+03  0.80230461194E+02 0.  0.
         23    2    1    2    0    0  0.53563994040E+01 -0.23085736155E+02 -0.12639297862E+03  0.15644059898E+03  0.89088909175E+02 0.  0.
        -13    1    3    3    0    0 -0.22617104711E+02  0.42696193919E+02 -0.22473762710E+03  0.22987278968E+03  0.00000000000E+00 0.  1.
         14    1    3    3    0    0 -0.90723329661E+01 -0.11670173739E+01 -0.65414204255E+03  0.65420599278E+03  0.00000000000E+00 0. -1.
        -13    1    4    4    0    0  0.29208950504E+02 -0.37326437880E+02 -0.11839860256E+03  0.12753295591E+03  0.00000000000E+00 0.  1.
         13    1    4    4    0    0 -0.23852551100E+02  0.14240701725E+02 -0.79943760565E+01  0.28907643075E+02  0.00000000000E+00 0. -1.
          1    1    1    2  501    0  0.26333038274E+02 -0.18443440391E+02  0.39712114778E+02  0.51094436667E+02  0.00000000000E+00 0. -1.
<scales pt_clust_5="13000.00000" pt_clust_6="13000.00000" pt_clust_7="13000.00000" pt_clust_8="13000.00000" pt_clust_9="13000.00000"></scales>
<clustering>
<clus scale="   80.230">  5  6 -1 -1</clus>
<clus scale="   89.089">  7  8 -1 -1</clus>
<clus scale="   32.150">  7  9 -1 -1</clus>
<clus scale="   95.738">  2  5  1 -1</clus>
<clus scale="  188.566">  1  5  2 -1</clus>
</clustering>
</event>
<event>
 9    2  0.4178938E-005  0.3720149E+03  0.7546771E-02  0.1084931E+00
         21   -1    0    0  501  502  0.00000000000E+00  0.00000000000E+00  0.43104002345E+03  0.43104002345E+03  0.00000000000E+00 0. -1.
          2   -1    0    0  502    0 -0.00000000000E+00 -0.00000000000E+00 -0.17049270599E+03  0.17049270599E+03  0.00000000000E+00 0. -1.
         24    2    1    2    0    0 -0.12397517719E+03 -0.56071134313E+02  0.13680810856E+03  0.20947859620E+03  0.81553706459E+02 0.  0.
         23    2    1    2    0    0 -0.83912131132E+02  0.97123972385E+02  0.70870242661E+02  0.17365634007E+03  0.93057086712E+02 0.  0.
        -11    1    3    3    0    0 -0.71044581172E+02 -0.74066869979E+02  0.85047909068E+02  0.13329058699E+03  0.00000000000E+00 0.  1.
         12    1    3    3    0    0 -0.52930596017E+02  0.17995735666E+02  0.51760199488E+02  0.76188009213E+02  0.00000000000E+00 0. -1.
        -13    1    4    4    0    0 -0.82477240820E+02  0.41807298091E+02  0.12641180874E+02  0.93328156956E+02  0.00000000000E+00 0. -1.
         13    1    4    4    0    0 -0.14348903123E+01  0.55316674294E+02  0.58229061787E+02  0.80328183110E+02  0.00000000000E+00 0.  1.
          1    1    1    2  501    0  0.20788730832E+03 -0.41052838072E+02  0.52868966242E+02  0.21839779318E+03  0.00000000000E+00 0. -1.
<scales pt_clust_5="13000.00000" pt_clust_6="13000.00000" pt_clust_7="13000.00000" pt_clust_8="13000.00000" pt_clust_9="13000.00000"></scales>
<clustering>
<clus scale="   81.554">  5  6 -1 -1</clus>
<clus scale="   93.057">  7  8 -1 -1</clus>
<clus scale="  158.634">  2  5  1 -1</clus>
<clus scale="  151.622">  7  9 -1 -1</clus>
<clus scale="  372.015">  1  5  2 -1</clus>
</clustering>
</event>
<event>
 9    2  0.4178938E-005  0.1615259E+03  0.7546771E-02  0.1205040E+00
         21   -1    0    0  501  502  0.00000000000E+00  0.00000000000E+00  0.56745164640E+02  0.56745164640E+02  0.00000000000E+00 0.  1.
         -1   -1    0    0    0  501 -0.00000000000E+00 -0.00000000000E+00 -0.41295681631E+03  0.41295681631E+03  0.00000000000E+00 0.  1.
         24    2    1    2    0    0  0.22423733682E+02  0.69545449108E+02 -0.25959401859E+03  0.28148513395E+03  0.80656263380E+02 0.  0.
         23    2    1    2    0    0  0.57050766436E+01 -0.54051078094E+02 -0.23839037162E+02  0.10866793420E+03  0.91029408922E+02 0.  0.
        -13    1    3    3    0    0  0.73928280004E+01  0.80408685335E+02 -0.24476334107E+03  0.25773882850E+03  0.00000000000E+00 0.  1.
         14    1    3    3    0    0  0.15030905682E+02 -0.10863236227E+02 -0.14830677523E+02  0.23746305454E+02  0.00000000000E+00 0. -1.
        -11    1    4    4    0    0 -0.77432942332E+00 -0.20954042856E+02  0.35028083490E+02  0.40824479557E+02  0.00000000000E+00 0.  1.
         11    1    4    4    0    0  0.64794060670E+01 -0.33097035238E+02 -0.58867120653E+02  0.67843454647E+02  0.00000000000E+00 0. -1.
         -2    1    1    2    0  502 -0.28128810326E+02 -0.15494371014E+02 -0.72778595914E+02  0.79548912794E+02  0.00000000000E+00 0.  1.
<scales pt_clust_5="13000.00000" pt_clust_6="13000.00000" pt_clust_7="13000.00000" pt_clust_8="13000.00000" pt_clust_9="13000.00000"></scales>
<clustering>
<clus scale="   80.656">  5  6 -1 -1</clus>
<clus scale="   91.029">  7  8 -1 -1</clus>
<clus scale="   32.114">  7  9 -1 -1</clus>
<clus scale="  108.834">  2  5  1 -1</clus>
<clus scale="  161.526">  1  5  2 -1</clus>
</clustering>
</event>
<event>
 9    2  0.4178938E-005  0.3228455E+03  0.7546771E-02  0.1103137E+00
         -3   -1    0    0    0  501 -0.00000000000E+00  0.00000000000E+00  0.16909972006E+03  0.16909972006E+03  0.00000000000E+00 0.  1.
         21   -1    0    0  501  502  0.00000000000E+00 -0.00000000000E+00 -0.55320165863E+03  0.55320165863E+03  0.00000000000E+00 0.  1.
         24    2    1    2    0    0  0.11161303352E+03 -0.25680934401E+02  0.69287069404E+02  0.16571286149E+03  0.97688662764E+02 0.  0.
         23    2    1    2    0    0  0.13289149497E+02 -0.65309307688E+02 -0.47906036217E+02  0.12265739379E+03  0.91147906062E+02 0.  0.
        -13    1    3    3    0    0  0.37051955684E+02 -0.31733255314E+01  0.78912746506E+02  0.87236110505E+02  0.00000000000E+00 0.  1.
         14    1    3    3    0    0  0.74561077837E+02 -0.22507608870E+02 -0.96256771015E+01  0.78476750984E+02  0.00000000000E+00 0. -1.
        -13    1    4    4    0    0  0.16281003302E+02  0.20924407924E+02 -0.13657611466E+02  0.29823351026E+02  0.00000000000E+00 0.  1.
         13    1    4    4    0    0 -0.29918538055E+01 -0.86233715611E+02 -0.34248424752E+02  0.92834042761E+02  0.00000000000E+00 0. -1.
         -4    1    1    2    0  502 -0.12490218302E+03  0.90990242089E+02 -0.40548297176E+03  0.43393112341E+03  0.00000000000E+00 0.  1.
<scales pt_clust_5="13000.00000" pt_clust_6="13000.00000" pt_clust_7="13000.00000" pt_clust_8="13000.00000" pt_clust_9="13000.00000"></scales>
<clustering>
<clus scale="   91.148">  7  8 -1 -1</clus>
<clus scale="   97.689">  5  6 -1 -1</clus>
<clus scale="  150.533">  1  5  2 -1</clus>
<clus scale="  126.105">  7  9 -1 -1</clus>
<clus scale="  322.845">  2  5  1 -1</clus>
</clustering>
</event>
<event>
 9    2  0.4178938E-005  0.2580655E+03  0.7546771E-02  0.1152717E+00
          2   -1    0    0  502    0 -0.00000000000E+00  0.00000000000E+00  0.73943211055E+02  0.73943211055E+02  0.00000000000E+00 0. -1.
         21   -1    0    0  501  502  0.00000000000E+00 -0.00000000000E+00 -0.42427946124E+03  0.42427946124E+03  0.00000000000E+00 0.  1.
         24    2    1    2    0    0  0.21474036801E+02  0.22908927839E+02 -0.42781796990E+02  0.96741016114E+02  0.80886270861E+02 0.  0.
         23    2    1    2    0    0 -0.86365686738E+02 -0.25683957536E+01 -0.30445200897E+03  0.33340604647E+03  0.10489488813E+03 0.  0.
        -13    1    3    3    0    0  0.36606983047E+02 -0.60145150454E+01 -0.51013202183E+02  0.63076084184E+02  0.00000000000E+00 0.  1.
         14    1    3    3    0    0 -0.15132946246E+02  0.28923442884E+02  0.82314051931E+01  0.33664931930E+02  0.00000000000E+00 0. -1.
        -11    1    4    4    0    0  0.44539495576E+01  0.26415593728E+02 -0.14638592088E+03  0.14881686427E+03  0.00000000000E+00 0.  1.
         11    1    4    4    0    0 -0.90819636295E+02 -0.28983989482E+02 -0.15806608809E+03  0.18458918221E+03  0.00000000000E+00 0. -1.
          1    1    1    2  501    0  0.64891649937E+02 -0.20340532085E+02 -0.31024442261E+01  0.68075609709E+02  0.00000000000E+00 0. -1.
<scales pt_clust_5="13000.00000" pt_clust_6="13000.00000" pt_clust_7="13000.00000" pt_clust_8="13000.00000" pt_clust_9="13000.00000"></scales>
<clustering>
<clus scale="   80.886">  5  6 -1 -1</clus>
<clus scale="   86.767">  1  5  2 -1</clus>
<clus scale="  104.895">  7  8 -1 -1</clus>
<clus scale="   79.873">  7  9 -1 -1</clus>
<clus scale="  258.065">  2  5  1 -1</clus>
</clustering>
</event>
<event>
 9    2  0.4178938E-005  0.1584611E+03  0.7546771E-02  0.1211410E+00
         21   -1    0    0  501  502  0.00000000000E+00  0.00000000000E+00  0.99278799138E+02  0.99278799138E+02  0.00000000000E+00 0. -1.
          2   -1    0    0  502    0 -0.00000000000E+00 -0.00000000000E+00 -0.24978629838E+03  0.24978629838E+03  0.00000000000E+00 0. -1.
         24    2    1    2    0    0 -0.11993279205E+01 -0.61642038188E+02  0.33712374744E+02  0.10606944646E+03  0.79454540472E+02 0.  0.
         23    2    1    2    0    0 -0.61662590345E+00 -0.56689616705E+01 -0.11542353994E+03  0.14673037191E+03  0.90413998455E+02 0.  0.
        -11    1    3    3    0    0  0.24684467910E+02  0.71957521560E+01  0.16461464987E+02  0.30530012031E+02  0.00000000000E+00 0.  1.
         12    1    3    3    0    0 -0.25883795831E+02 -0.68837790344E+02  0.17250909757E+02  0.75539434426E+02  0.00000000000E+00 0. -1.
        -11    1    4    4    0    0 -0.34513749040E+02  0.20721031423E+01 -0.10482650473E+03  0.11038155905E+03  0.00000000000E+00 0. -1.
         11    1    4    4    0    0  0.33897123137E+02 -0.77410648127E+01 -0.10597035204E+02  0.36348812862E+02  0.00000000000E+00 0.  1.
          1    1    1    2  501    0  0.18159538239E+01  0.67310999858E+02 -0.68796334047E+02  0.96265279143E+02  0.00000000000E+00 0. -1.
<scales pt_clust_5="13000.00000" pt_clust_6="13000.00000" pt_clust_7="13000.00000" pt_clust_8="13000.00000" pt_clust_9="13000.00000"></scales>
<clustering>
<clus scale="   79.455">  5  6 -1 -1</clus>
<clus scale="   90.414">  7  8 -1 -1</clus>
<clus scale="   67.336">  7  9 -1 -1</clus>
<clus scale="  100.569">  2  5  1 -1</clus>
<clus scale="  158.461">  1  5  2 -1</clus>
</clustering>
</event>
<event>
 9    2  0.4178938E-005  0.3954720E+03  0.7546771E-02  0.1091329E+00
          2   -1    0    0  502    0 -0.00000000000E+00  0.00000000000E+00  0.26720301155E+03  0.26720301155E+03  0.00000000000E+00 0. -1.
         21   -1    0    0  501  502  0.00000000000E+00 -0.00000000000E+00 -0.24916426663E+03  0.24916426663E+03  0.00000000000E+00 0.  1.
         24    2    1    2    0    0  0.21752790881E+02 -0.72968792208E+02 -0.36259781635E+02  0.11718510101E+03  0.81363060338E+02 0.  0.
         23    2    1    2    0    0  0.10300351574E+03 -0.55200094194E+02  0.13701869628E+03  0.20211866974E+03  0.91766327544E+02 0.  0.
        -13    1    3    3    0    0  0.21460006459E+02 -0.44521597108E+02 -0.61676616728E+02  0.79036128051E+02  0.00000000000E+00 0.  1.
         14    1    3    3    0    0  0.29278442284E+00 -0.28447195100E+02  0.25416835093E+02  0.38148972961E+02  0.00000000000E+00 0. -1.
        -11    1    4    4    0    0  0.58111657820E+02 -0.67173586766E+02  0.46230022369E+02  0.10013226504E+03  0.00000000000E+00 0.  1.
         11    1    4    4    0    0  0.44891857917E+02  0.11973492572E+02  0.90788673915E+02  0.10198640470E+03  0.00000000000E+00 0. -1.
          1    1    1    2  501    0 -0.12475630662E+03  0.12816888640E+03 -0.82720169721E+02  0.19706350743E+03  0.00000000000E+00 0. -1.
<scales pt_clust_5="13000.00000" pt_clust_6="13000.00000" pt_clust_7="13000.00000" pt_clust_8="13000.00000" pt_clust_9="13000.00000"></scales>
<clustering>
<clus scale="   81.363">  5  6 -1 -1</clus>
<clus scale="   91.766">  7  8 -1 -1</clus>
<clus scale="  111.434">  1  5  2 -1</clus>
<clus scale="  162.096">  7  9 -1 -1</clus>
<clus scale="  395.472">  2  5  1 -1</clus>
</clustering>
</event>
<event>
 9    2  0.4178938E-005  0.3285294E+03  0.7546771E-02  0.1122512E+00
         -3   -1    0    0    0  501 -0.00000000000E+00  0.00000000000E+00  0.58425678453E+03  0.58425678453E+03  0.00000000000E+00 0.  1.
         21   -1    0    0  501  502  0.00000000000E+00 -0.00000000000E+00 -0.14624353649E+03  0.14624353649E+03  0.00000000000E+00 0.  1.
         24    2    1    2    0    0 -0.94586044185E+01  0.34626068931E+02  0.38855404845E+03  0.39826880345E+03  0.79720520503E+02 0.  0.
         23    2    1    2    0    0 -0.11346388291E+03 -0.36329897769E+02 -0.64513308285E+02  0.16459329557E+03  0.93461606049E+02 0.  0.
        -13    1    3    3    0    0  0.14707405255E+02  0.50317105510E+02  0.31390154458E+03  0.31824879979E+03  0.00000000000E+00 0.  1.
         14    1    3    3    0    0 -0.24166009674E+02 -0.15691036580E+02  0.74652503870E+02  0.80020003665E+02  0.00000000000E+00 0. -1.
        -11    1    4    4    0    0 -0.12455379704E+03 -0.15915566695E+02 -0.64923096185E+02  0.14135756802E+03  0.00000000000E+00 0.  1.
         11    1    4    4    0    0  0.11089914129E+02 -0.20414331074E+02  0.40978789978E+00  0.23235727549E+02  0.00000000000E+00 0. -1.
         -4    1    1    2    0  502  0.12292248733E+03  0.17038288385E+01  0.11397250787E+03  0.16763822200E+03  0.00000000000E+00 0.  1.
<scales pt_clust_5="13000.00000" pt_clust_6="13000.00000" pt_clust_7="13000.00000" pt_clust_8="13000.00000" pt_clust_9="13000.00000"></scales>
<clustering>
<clus scale="   79.721">  5  6 -1 -1</clus>
<clus scale="   87.429">  1  5  2 -1</clus>
<clus scale="   93.462">  7  8 -1 -1</clus>
<clus scale="  119.103">  7  9 -1 -1</clus>
<clus scale="  328.529">  2  5  1 -1</clus>
</clustering>
</event>
<event>
 9    2  0.4178938E-005  0.3554275E+03  0.7546771E-02  0.1079538E+00
          2   -1    0    0  502    0 -0.00000000000E+00  0.00000000000E+00  0.15685574599E+04  0.15685574599E+04  0.00000000000E+00 0. -1.
         21   -1    0    0  501  502  0.00000000000E+00 -0.00000000000E+00 -0.65515194920E+02  0.65515194920E+02  0.00000000000E+00 0. -1.
         24    2    1    2    0    0  0.14971110581E+03 -0.12324041558E+03  0.97601265528E+03  0.99839277286E+03  0.81153006113E+02 0.  0.
         23    2    1    2    0    0  0.37650953778E+02 -0.14443077160E+02  0.64718258040E+02  0.11819261504E+03  0.90304177794E+02 0.  0.
        -13    1    3    3    0    0  0.20376298865E+02 -0.91368680976E+01  0.33708311084E+02  0.40434220039E+02  0.00000000000E+00 0.  1.
         14    1    3    3    0    0  0.12933480695E+03 -0.11410354748E+03  0.94230434420E+03  0.95795855283E+03  0.00000000000E+00 0. -1.
        -11    1    4    4    0    0  0.65227963590E+02  0.45422281093E+01  0.44237241136E+02  0.78944617128E+02  0.00000000000E+00 0. -1.
         11    1    4    4    0    0 -0.27577009812E+02 -0.18985305269E+02  0.20481016904E+02  0.39247997908E+02  0.00000000000E+00 0.  1.
          1    1    1    2  501    0 -0.18736205959E+03  0.13768349274E+03  0.46231135162E+03  0.51748726688E+03  0.00000000000E+00 0. -1.
<scales pt_clust_5="13000.00000" pt_clust_6="13000.00000" pt_clust_7="13000.00000" pt_clust_8="13000.00000" pt_clust_9="13000.00000"></scales>
<clustering>
<clus scale="   81.153">  5  6 -1 -1</clus>
<clus scale="   90.304">  7  8 -1 -1</clus>
<clus scale="  210.208">  1  5  2 -1</clus>
<clus scale="   69.931">  7  9 -1 -1</clus>
<clus scale="  355.427">  2  5  1 -1</clus>
</clustering>
</event>
<event>
 9    2  0.4178938E-005  0.2590652E+03  0.7546771E-02  0.1143795E+00
         -3   -1    0    0    0  501 -0.00000000000E+00  0.00000000000E+00  0.44861294424E+03  0.44861294424E+03  0.00000000000E+00 0.  1.
         21   -1    0    0  501  502  0.00000000000E+00 -0.00000000000E+00 -0.76112921816E+02  0.76112921816E+02  0.00000000000E+00 0.  1.
         24    2    1    2    0    0 -0.20236416479E+02  0.67297783056E+02  0.14712050002E+03  0.18134459871E+03  0.79390917612E+02 0.  0.
         23    2    1    2    0    0  0.42259715976E+02 -0.10947315341E+03  0.24930686919E+03  0.29012429120E+03  0.90818139201E+02 0.  0.
        -13    1    3    3    0    0  0.19148402626E+02  0.59446767731E+02  0.11083553780E+03  0.12722065853E+03  0.00000000000E+00 0.  1.
         14    1    3    3    0    0 -0.39384819105E+02  0.78510153245E+01  0.36284962215E+02  0.54123940179E+02  0.00000000000E+00 0. -1.
        -11    1    4    4    0    0 -0.18820157598E+02 -0.75654022421E+02  0.14456376210E+03  0.16424497178E+03  0.00000000000E+00 0.  1.
         11    1    4    4    0    0  0.61079873574E+02 -0.33819130990E+02  0.10474310708E+03  0.12587931942E+03  0.00000000000E+00 0. -1.
         -4    1    1    2    0  502 -0.22023299497E+02  0.42175370354E+02 -0.23927346775E+02  0.53256976153E+02  0.00000000000E+00 0.  1.
<scales pt_clust_5="13000.00000" pt_clust_6="13000.00000" pt_clust_7="13000.00000" pt_clust_8="13000.00000" pt_clust_9="13000.00000"></scales>
<clustering>
<clus scale="   79.391">  5  6 -1 -1</clus>
<clus scale="   90.818">  7  8 -1 -1</clus>
<clus scale="   47.579">  7  9 -1 -1</clus>
<clus scale="  106.026">  1  5  2 -1</clus>
<clus scale="  259.065">  2  5  1 -1</clus>
</clustering>
</event>
<event>
 9    2  0.4178938E-005  0.2528960E+03  0.7546771E-02  0.1132279E+00
         -3   -1    0    0    0  501 -0.00000000000E+00  0.00000000000E+00  0.51892406920E+02  0.51892406920E+02  0.00000000000E+00 0.  1.
         21   -1    0    0  501  502  0.00000000000E+00 -0.00000000000E+00 -0.87854221647E+03  0.87854221647E+03  0.00000000000E+00 0. -1.
         24    2    1    2    0    0  0.12418543899E+03  0.52006169163E+02 -0.46761292565E+03  0.49127190439E+03  0.67524594934E+02 0.  0.
         23    2    1    2    0    0 -0.12883091256E+02  0.27789509121E+02 -0.22498001199E+03  0.24752032340E+03  0.98549854613E+02 0.  0.
        -13    1    3    3    0    0  0.69240134373E+02  0.63935588006E+02 -0.28216051012E+03  0.29748362827E+03  0.00000000000E+00 0.  1.
         14    1    3    3    0    0  0.54945304618E+02 -0.11929418843E+02 -0.18545241554E+03  0.19378827612E+03  0.00000000000E+00 0. -1.
        -13    1    4    4    0    0  0.22412554982E+02  0.51780413393E+01 -0.49453074531E+01  0.23528510339E+02  0.00000000000E+00 0.  1.
         13    1    4    4    0    0 -0.35295646239E+02  0.22611467782E+02 -0.22003470453E+03  0.22399181306E+03  0.00000000000E+00 0. -1.
         -4    1    1    2    0  502 -0.11130234773E+03 -0.79795678284E+02 -0.13405687191E+03  0.19164239560E+03  0.00000000000E+00 0.  1.
<scales pt_clust_5="13000.00000" pt_clust_6="13000.00000" pt_clust_7="13000.00000" pt_clust_8="13000.00000" pt_clust_9="13000.00000"></scales>
<clustering>
<clus scale="   67.525">  5  6 -1 -1</clus>
<clus scale="   98.550">  7  8 -1 -1</clus>
<clus scale="  136.951">  7  9 -1 -1</clus>
<clus scale="  150.620">  1  5  2 -1</clus>
<clus scale="  252.896">  2  5  1 -1</clus>
</clustering>
</event>
<event>
 9    2  0.4178938E-005  0.1828587E+03  0.7546771E-02  0.1196034E+00
         21   -1    0    0  501  502  0.00000000000E+00  0.00000000000E+00  0.10464672686E+03  0.10464672686E+03  0.00000000000E+00 0.  1.
          4   -1    0    0  502    0 -0.00000000000E+00 -0.00000000000E+00 -0.65269767063E+03  0.65269767063E+03  0.00000000000E+00 0. -1.
         24    2    1    2    0    0  0.59520157648E+01  0.43031074836E+02 -0.56628151366E+03  0.57357912996E+03  0.80194549208E+02 0.  0.
         23    2    1    2    0    0 -0.66883275387E+02 -0.28326923260E+02 -0.71179215416E+01  0.11615331230E+03  0.90361164462E+02 0.  0.
        -13    1    3    3    0    0  0.16234411281E+02  0.14350502660E+02 -0.33308746894E+02  0.39736200823E+02  0.00000000000E+00 0.  1.
         14    1    3    3    0    0 -0.10282395516E+02  0.28680572176E+02 -0.53297276677E+03  0.53384292914E+03  0.00000000000E+00 0. -1.
        -11    1    4    4    0    0 -0.66180218319E+02 -0.55032660227E+02  0.62145876924E+01  0.86296211322E+02  0.00000000000E+00 0.  1.
         11    1    4    4    0    0 -0.70305706783E+00  0.26705736967E+02 -0.13332509234E+02  0.29857100976E+02  0.00000000000E+00 0. -1.
          3    1    1    2  501    0  0.60931259622E+02 -0.14704151576E+02  0.25348491431E+02  0.67611955234E+02  0.00000000000E+00 0. -1.
<scales pt_clust_5="13000.00000" pt_clust_6="13000.00000" pt_clust_7="13000.00000" pt_clust_8="13000.00000" pt_clust_9="13000.00000"></scales>
<clustering>
<clus scale="   80.195">  5  6 -1 -1</clus>
<clus scale="   90.361">  7  8 -1 -1</clus>
<clus scale="   62.680">  7  9 -1 -1</clus>
<clus scale="   91.205">  2  5  1 -1</clus>
<clus scale="  182.859">  1  5  2 -1</clus>
</clustering>
</event>
<event>
 9    2  0.4178938E-005  0.1779010E+03  0.7546771E-02  0.1205763E+00
         -1   -1    0    0    0  501 -0.00000000000E+00  0.00000000000E+00  0.10299024983E+03  0.10299024983E+03  0.00000000000E+00 0.  1.
         21   -1    0    0  501  502  0.00000000000E+00 -0.00000000000E+00 -0.16230485834E+03  0.16230485834E+03  0.00000000000E+00 0. -1.
         24    2    1    2    0    0 -0.46618217820E+01  0.74738594088E+01 -0.11036509372E+02  0.80959717089E+02  0.79718756232E+02 0.  0.
         23    2    1    2    0    0  0.27297811645E+02  0.53024009166E+02 -0.50882774054E+02  0.11968893355E+03  0.90441517294E+02 0.  0.
        -13    1    3    3    0    0 -0.60701964767E+01  0.26591186036E+02  0.26991880310E+02  0.38373168526E+02  0.00000000000E+00 0.  1.
         14    1    3    3    0    0  0.14083746947E+01 -0.19117326627E+02 -0.38028389682E+02  0.42586548563E+02  0.00000000000E+00 0. -1.
        -13    1    4    4    0    0  0.58964368004E+02  0.35679638242E+02 -0.46902723977E+02  0.83364853479E+02  0.00000000000E+00 0. -1.
         13    1    4    4    0    0 -0.31666556359E+02  0.17344370925E+02 -0.39800500770E+01  0.36324080071E+02  0.00000000000E+00 0.  1.
         -2    1    1    2    0  502 -0.22635989863E+02 -0.60497868575E+02  0.26046749142E+01  0.64646457526E+02  0.00000000000E+00 0.  1.
<scales pt_clust_5="13000.00000" pt_clust_6="13000.00000" pt_clust_7="13000.00000" pt_clust_8="13000.00000" pt_clust_9="13000.00000"></scales>
<clustering>
<clus scale="   79.719">  5  6 -1 -1</clus>
<clus scale="   80.204">  1  5  2 -1</clus>
<clus scale="   90.442">  7  8 -1 -1</clus>
<clus scale="   62.038">  7  9 -1 -1</clus>
<clus scale="  177.901">  2  5  1 -1</clus>
</clustering>
</event>
<event>
 9    2  0.4178938E-005  0.1753004E+03  0.7546771E-02  0.1192226E+00
         21   -1    0    0  501  502  0.00000000000E+00  0.00000000000E+00  0.28523590357E+03  0.28523590357E+03  0.00000000000E+00 0. -1.
          4   -1    0    0  502    0 -0.00000000000E+00 -0.00000000000E+00 -0.72836131456E+02  0.72836131456E+02  0.00000000000E+00 0. -1.
         24    2    1    2    0    0 -0.20231688601E+02 -0.76685175810E+02  0.92739457730E+02  0.14582492867E+03  0.79839622917E+02 0.  0.
         23    2    1    2    0    0  0.14353346969E+02 -0.15895857330E+01  0.80637446451E+02  0.12458709600E+03  0.93866934363E+02 0.  0.
        -11    1    3    3    0    0 -0.39387687035E+02 -0.10714367169E+02  0.18933537294E+02  0.44996293050E+02  0.00000000000E+00 0.  1.
         12    1    3    3    0    0  0.19155998434E+02 -0.65970808641E+02  0.73805920435E+02  0.10082863562E+03  0.00000000000E+00 0. -1.
        -11    1    4    4    0    0  0.52648829577E+02 -0.13775966683E+02  0.40963717561E+02  0.68115362954E+02  0.00000000000E+00 0.  1.
         11    1    4    4    0    0 -0.38295482608E+02  0.12186380950E+02  0.39673728890E+02  0.56471733043E+02  0.00000000000E+00 0. -1.
          3    1    1    2  501    0  0.58783416317E+01  0.78274761543E+02  0.39022867930E+02  0.87660010361E+02  0.00000000000E+00 0. -1.
<scales pt_clust_5="13000.00000" pt_clust_6="13000.00000" pt_clust_7="13000.00000" pt_clust_8="13000.00000" pt_clust_9="13000.00000"></scales>
<clustering>
<clus scale="   79.840">  5  6 -1 -1</clus>
<clus scale="   93.867">  7  8 -1 -1</clus>
<clus scale="   78.495">  7  9 -1 -1</clus>
<clus scale="  112.536">  2  5  1 -1</clus>
<clus scale="  175.300">  1  5  2 -1</clus>
</clustering>
</event>
<event>
 9    2  0.4178938E-005  0.2302518E+03  0.7546771E-02  0.1165122E+00
         21   -1    0    0  501  502  0.00000000000E+00  0.00000000000E+00  0.27779650313E+03  0.27779650313E+03  0.00000000000E+00 0. -1.
          4   -1    0    0  502    0 -0.00000000000E+00 -0.00000000000E+00 -0.99380740036E+02  0.99380740036E+02  0.00000000000E+00 0. -1.
         24    2    1    2    0    0  0.29249747906E+02 -0.56135238090E+01  0.10226624939E+02  0.92039619671E+02  0.86484960134E+02 0.  0.
         23    2    1    2    0    0 -0.10112091756E+03 -0.24132776944E+02  0.15208932840E+03  0.20570519113E+03  0.91518473299E+02 0.  0.
        -13    1    3    3    0    0  0.58571729220E+02  0.79397571119E+01  0.81975515761E+01  0.59673168666E+02  0.00000000000E+00 0.  1.
         14    1    3    3    0    0 -0.29321981314E+02 -0.13553280921E+02  0.20290733633E+01  0.32366451004E+02  0.00000000000E+00 0. -1.
        -11    1    4    4    0    0 -0.66817689687E+02 -0.56177102832E+02  0.73283424296E+02  0.11397776456E+03  0.00000000000E+00 0. -1.
         11    1    4    4    0    0 -0.34303227876E+02  0.32044325888E+02  0.78805904102E+02  0.91727426573E+02  0.00000000000E+00 0.  1.
          3    1    1    2  501    0  0.71871169657E+02  0.29746300753E+02  0.16099809753E+02  0.79432432359E+02  0.00000000000E+00 0. -1.
<scales pt_clust_5="13000.00000" pt_clust_6="13000.00000" pt_clust_7="13000.00000" pt_clust_8="13000.00000" pt_clust_9="13000.00000"></scales>
<clustering>
<clus scale="   86.485">  5  6 -1 -1</clus>
<clus scale="   91.470">  2  5  1 -1</clus>
<clus scale="   91.518">  7  8 -1 -1</clus>
<clus scale="   91.687">  7  9 -1 -1</clus>
<clus scale="  230.252">  1  5  2 -1</clus>
</clustering>
</event>
<event>
 9    2  0.4178938E-005  0.4035353E+03  0.7546771E-02  0.1058003E+00
          2   -1    0    0  502    0 -0.00000000000E+00  0.00000000000E+00  0.11816212369E+04  0.11816212369E+04  0.00000000000E+00 0. -1.
         21   -1    0    0  501  502  0.00000000000E+00 -0.00000000000E+00 -0.10865282234E+03  0.10865282234E+03  0.00000000000E+00 0. -1.
         24    2    1    2    0    0 -0.22072900656E+03 -0.11102828363E+03  0.67602948564E+03  0.72423406144E+03  0.80315230171E+02 0.  0.
         23    2    1    2    0    0  0.20048675948E+03  0.18375053792E+03  0.18890907723E+03  0.34473772934E+03  0.95907568301E+02 0.  0.
        -13    1    3    3    0    0 -0.32278630701E+02 -0.19666905833E+02  0.41964956689E+02  0.56477914045E+02  0.00000000000E+00 0.  1.
         14    1    3    3    0    0 -0.18845037586E+03 -0.91361377800E+02  0.63406452895E+03  0.66775614740E+03  0.00000000000E+00 0. -1.
        -11    1    4    4    0    0  0.18367186529E+03  0.15665786838E+03  0.19728817807E+03  0.31176861137E+03  0.00000000000E+00 0. -1.
         11    1    4    4    0    0  0.16814894186E+02  0.27092669534E+02 -0.83791008392E+01  0.32969117972E+02  0.00000000000E+00 0.  1.
          1    1    1    2  501    0  0.20242247082E+02 -0.72722254283E+02  0.20802985166E+03  0.22130226844E+03  0.00000000000E+00 0. -1.
<scales pt_clust_5="13000.00000" pt_clust_6="13000.00000" pt_clust_7="13000.00000" pt_clust_8="13000.00000" pt_clust_9="13000.00000"></scales>
<clustering>
<clus scale="   80.315">  5  6 -1 -1</clus>
<clus scale="   95.908">  7  8 -1 -1</clus>
<clus scale="   75.487">  7  9 -1 -1</clus>
<clus scale="  259.806">  1  5  2 -1</clus>
<clus scale="  403.535">  2  5  1 -1</clus>
</clustering>
</event>
<event>
 9    2  0.4178938E-005  0.2467416E+03  0.7546771E-02  0.1142105E+00
         -1   -1    0    0    0  501 -0.00000000000E+00  0.00000000000E+00  0.33181643604E+03  0.33181643604E+03  0.00000000000E+00 0.  1.
         21   -1    0    0  501  502  0.00000000000E+00 -0.00000000000E+00 -0.14042486435E+03  0.14042486435E+03  0.00000000000E+00 0.  1.
         24    2    1    2    0    0 -0.40987154409E+02  0.90127027281E+02 -0.40065008057E+02  0.13393146400E+03  0.80805967015E+02 0.  0.
         23    2    1    2    0    0 -0.51161789892E+02 -0.69448999134E+01  0.17411220029E+03  0.20156528584E+03  0.87451390988E+02 0.  0.
        -13    1    3    3    0    0 -0.64711978571E+02  0.55601563798E+02 -0.20768062679E+02  0.87809375894E+02  0.00000000000E+00 0.  1.
         14    1    3    3    0    0  0.23724824162E+02  0.34525463483E+02 -0.19296945378E+02  0.46122088105E+02  0.00000000000E+00 0. -1.
        -13    1    4    4    0    0 -0.20568678517E+02 -0.32761128756E+02  0.22484993931E+02  0.44743011135E+02  0.00000000000E+00 0.  1.
         13    1    4    4    0    0 -0.30593111375E+02  0.25816228842E+02  0.15162720636E+03  0.15682227471E+03  0.00000000000E+00 0. -1.
         -2    1    1    2    0  502  0.92148944301E+02 -0.83182127368E+02  0.57344379456E+02  0.13674455055E+03  0.00000000000E+00 0.  1.
<scales pt_clust_5="13000.00000" pt_clust_6="13000.00000" pt_clust_7="13000.00000" pt_clust_8="13000.00000" pt_clust_9="13000.00000"></scales>
<clustering>
<clus scale="   80.806">  5  6 -1 -1</clus>
<clus scale="   87.451">  7  8 -1 -1</clus>
<clus scale="  124.140">  7  9 -1 -1</clus>
<clus scale="  127.798">  1  5  2 -1</clus>
<clus scale="  246.742">  2  5  1 -1</clus>
</clustering>
</event>
<event>
 9    2  0.4178938E-005  0.1941081E+03  0.7546771E-02  0.1184701E+00
         21   -1    0    0  501  502  0.00000000000E+00  0.00000000000E+00  0.13928065397E+03  0.13928065397E+03  0.00000000000E+00 0. -1.
          2   -1    0    0  502    0 -0.00000000000E+00 -0.00000000000E+00 -0.79477414629E+03  0.79477414629E+03  0.00000000000E+00 0. -1.
         24    2    1    2    0    0 -0.47155550706E+02  0.23168796452E+02 -0.72219638636E+03  0.72880564794E+03  0.82641472087E+02 0.  0.
         23    2    1    2    0    0  0.92444922173E+01 -0.54942823414E+02 -0.16010044207E+02  0.10887349513E+03  0.92157158943E+02 0.  0.
        -13    1    3    3    0    0  0.18232242790E+02 -0.87172686276E+01 -0.80464821284E+02  0.82963804841E+02  0.00000000000E+00 0.  1.
         14    1    3    3    0    0 -0.65387793496E+02  0.31886065080E+02 -0.64173156507E+03  0.64584184310E+03  0.00000000000E+00 0. -1.
        -11    1    4    4    0    0 -0.32385496897E+02 -0.54622311497E+02 -0.21139309699E+02  0.66927481179E+02  0.00000000000E+00 0. -1.
         11    1    4    4    0    0  0.41629989114E+02 -0.32051191701E+00  0.51292654913E+01  0.41946013946E+02  0.00000000000E+00 0.  1.
          1    1    1    2  501    0  0.37911058489E+02  0.31774026961E+02  0.82712938251E+02  0.96375657192E+02  0.00000000000E+00 0. -1.
<scales pt_clust_5="13000.00000" pt_clust_6="13000.00000" pt_clust_7="13000.00000" pt_clust_8="13000.00000" pt_clust_9="13000.00000"></scales>
<clustering>
<clus scale="   82.641">  5  6 -1 -1</clus>
<clus scale="   92.157">  7  8 -1 -1</clus>
<clus scale="   49.466">  7  9 -1 -1</clus>
<clus scale="   97.929">  2  5  1 -1</clus>
<clus scale="  194.108">  1  5  2 -1</clus>
</clustering>
</event>
<event>
 9    2  0.4178938E-005  0.2640485E+03  0.7546771E-02  0.1139318E+00
         21   -1    0    0  501  502  0.00000000000E+00  0.00000000000E+00  0.34364108082E+03  0.34364108082E+03  0.00000000000E+00 0.  1.
          2   -1    0    0  502    0 -0.00000000000E+00 -0.00000000000E+00 -0.13491631010E+03  0.13491631010E+03  0.00000000000E+00 0. -1.
         24    2    1    2    0    0  0.26330361596E+01  0.76812856446E+02  0.18161342886E+03  0.21312067308E+03  0.80807400375E+02 0.  0.
         23    2    1    2    0    0  0.33479724680E+02  0.63499842743E+02  0.29900980492E+02  0.12052444392E+03  0.92081219332E+02 0.  0.
        -13    1    3    3    0    0 -0.27118425308E+02  0.32458627958E+02  0.13747349799E+03  0.14383300793E+03  0.00000000000E+00 0.  1.
         14    1    3    3    0    0  0.29751461468E+02  0.44354228488E+02  0.44139930865E+02  0.69287665143E+02  0.00000000000E+00 0. -1.
        -13    1    4    4    0    0 -0.18400125764E+01 -0.19989598856E+02 -0.88474794423E+01  0.21937356294E+02  0.00000000000E+00 0.  1.
         13    1    4    4    0    0  0.35319737256E+02  0.83489441599E+02  0.38748459935E+02  0.98587087621E+02  0.00000000000E+00 0. -1.
          1    1    1    2  501    0 -0.36112760839E+02 -0.14031269919E+03 -0.27896386311E+01  0.14491227392E+03  0.00000000000E+00 0. -1.
<scales pt_clust_5="13000.00000" pt_clust_6="13000.00000" pt_clust_7="13000.00000" pt_clust_8="13000.00000" pt_clust_9="13000.00000"></scales>
<clustering>
<clus scale="   80.807">  5  6 -1 -1</clus>
<clus scale="   92.081">  7  8 -1 -1</clus>
<clus scale="  111.521">  2  5  1 -1</clus>
<clus scale="   98.913">  7  9 -1 -1</clus>
<clus scale="  264.049">  1  5  2 -1</clus>
</clustering>
</event>
<event>
 9    2  0.4178938E-005  0.1650205E+03  0.7546771E-02  0.1202060E+00
          2   -1    0    0  502    0 -0.00000000000E+00  0.00000000000E+00  0.34783153494E+03  0.34783153494E+03  0.00000000000E+00 0. -1.
         21   -1    0    0  501  502  0.00000000000E+00 -0.00000000000E+00 -0.67743318602E+02  0.67743318602E+02  0.00000000000E+00 0.  1.
         24    2    1    2    0    0  0.74217622318E+02  0.11022668470E+01  0.20950484436E+03  0.23609286176E+03  0.79612116607E+02 0.  0.
         23    2    1    2    0    0 -0.27978589975E+02  0.26844155077E+02  0.42150876031E+01  0.93902789976E+02  0.85419885524E+02 0.  0.
        -13    1    3    3    0    0  0.14069634874E+02  0.32587005806E+02  0.39889086549E+02  0.53394819960E+02  0.00000000000E+00 0.  1.
         14    1    3    3    0    0  0.60147987443E+02 -0.31484738959E+02  0.16961575781E+03  0.18269804180E+03  0.00000000000E+00 0. -1.
        -11    1    4    4    0    0  0.84130997002E+01  0.18396125867E+02 -0.34568469987E+02  0.40052176105E+02  0.00000000000E+00 0.  1.
         11    1    4    4    0    0 -0.36391689675E+02  0.84480292093E+01  0.38783557590E+02  0.53850613871E+02  0.00000000000E+00 0. -1.
          1    1    1    2  501    0 -0.46239032343E+02 -0.27946421924E+02  0.66368284375E+02  0.85579201803E+02  0.00000000000E+00 0. -1.
<scales pt_clust_5="13000.00000" pt_clust_6="13000.00000" pt_clust_7="13000.00000" pt_clust_8="13000.00000" pt_clust_9="13000.00000"></scales>
<clustering>
<clus scale="   79.612">  5  6 -1 -1</clus>
<clus scale="   85.420">  7  8 -1 -1</clus>
<clus scale="   54.028">  7  9 -1 -1</clus>
<clus scale="  108.846">  1  5  2 -1</clus>
<clus scale="  165.021">  2  5  1 -1</clus>
</clustering>
</event>
<event>
 9    2  0.4178938E-005  0.4849900E+03  0.7546771E-02  0.1056232E+00
          2   -1    0    0  502    0 -0.00000000000E+00  0.00000000000E+00  0.66460769413E+03  0.66460769413E+03  0.00000000000E+00 0. -1.
         21   -1    0    0  501  502  0.00000000000E+00 -0.00000000000E+00 -0.19732913375E+03  0.19732913375E+03  0.00000000000E+00 0.  1.
         24    2    1    2    0    0  0.87520479166E+02 -0.10195159806E+03  0.31752275744E+03  0.35435225117E+03  0.81797639303E+02 0.  0.
         23    2    1    2    0    0 -0.57788554723E+02 -0.13290787890E+03 -0.68888208203E+02  0.18532976315E+03  0.92722783336E+02 0.  0.
        -13    1    3    3    0    0  0.53575044677E+02 -0.18471367462E+02  0.65021117617E+02  0.86250927903E+02  0.00000000000E+00 0.  1.
         14    1    3    3    0    0  0.33945434489E+02 -0.83480230595E+02  0.25250163982E+03  0.26810132326E+03  0.00000000000E+00 0. -1.
        -13    1    4    4    0    0  0.12969030707E+02 -0.27421968316E+02  0.14256754020E+02  0.33517385623E+02  0.00000000000E+00 0. -1.
         13    1    4    4    0    0 -0.70757585430E+02 -0.10548591059E+03 -0.83144962223E+02  0.15181237753E+03  0.00000000000E+00 0.  1.
          1    1    1    2  501    0 -0.29731924443E+02  0.23485947696E+03  0.21864401114E+03  0.32225481355E+03  0.00000000000E+00 0. -1.
<scales pt_clust_5="13000.00000" pt_clust_6="13000.00000" pt_clust_7="13000.00000" pt_clust_8="13000.00000" pt_clust_9="13000.00000"></scales>
<clustering>
<clus scale="   81.798">  5  6 -1 -1</clus>
<clus scale="   92.723">  7  8 -1 -1</clus>
<clus scale="  157.305">  1  5  2 -1</clus>
<clus scale="  156.778">  7  9 -1 -1</clus>
<clus scale="  484.990">  2  5  1 -1</clus>
</clustering>
</event>
<event>
 9    2  0.4178938E-005  0.7815095E+03  0.7546771E-02  0.1015678E+00
         21   -1    0    0  501  502  0.00000000000E+00  0.00000000000E+00  0.93494038368E+03  0.93494038368E+03  0.00000000000E+00 0. -1.
          4   -1    0    0  502    0 -0.00000000000E+00 -0.00000000000E+00 -0.21924667706E+03  0.21924667706E+03  0.00000000000E+00 0. -1.
         24    2    1    2    0    0  0.70426142648E+02 -0.63026066748E+02  0.85590869238E+02  0.15030123129E+03  0.79577236524E+02 0.  0.
         23    2    1    2    0    0  0.32277710507E+03  0.96411176290E+02  0.45358780742E+03  0.57158857597E+03  0.86553028071E+02 0.  0.
        -11    1    3    3    0    0  0.39353434626E+02 -0.46899603104E+02  0.38090544520E+01  0.61341458118E+02  0.00000000000E+00 0.  1.
         12    1    3    3    0    0  0.31072708022E+02 -0.16126463644E+02  0.81781814786E+02  0.88959773174E+02  0.00000000000E+00 0. -1.
        -13    1    4    4    0    0  0.26104860508E+03  0.50071578218E+02  0.30826407834E+03  0.40703842467E+03  0.00000000000E+00 0. -1.
         13    1    4    4    0    0  0.61728499987E+02  0.46339598072E+02  0.14532372907E+03  0.16455015130E+03  0.00000000000E+00 0.  1.
          3    1    1    2  501    0 -0.39320324772E+03 -0.33385109542E+02  0.17651502997E+03  0.43229725347E+03  0.00000000000E+00 0. -1.
<scales pt_clust_5="13000.00000" pt_clust_6="13000.00000" pt_clust_7="13000.00000" pt_clust_8="13000.00000" pt_clust_9="13000.00000"></scales>
<clustering>
<clus scale="   79.577">  5  6 -1 -1</clus>
<clus scale="   86.553">  7  8 -1 -1</clus>
<clus scale="  123.550">  2  5  1 -1</clus>
<clus scale="  353.393">  7  9 -1 -1</clus>
<clus scale="  781.510">  1  5  2 -1</clus>
</clustering>
</event>
<event>
 9    2  0.4178938E-005  0.2764619E+03  0.7546771E-02  0.1142352E+00
          4   -1    0    0  502    0 -0.00000000000E+00  0.00000000000E+00  0.41600793114E+02  0.41600793114E+02  0.00000000000E+00 0. -1.
         21   -1    0    0  501  502  0.00000000000E+00 -0.00000000000E+00 -0.81005370621E+03  0.81005370621E+03  0.00000000000E+00 0. -1.
         24    2    1    2    0    0  0.23501838980E+02 -0.31839760140E+02 -0.17320951780E+03  0.19534216746E+03  0.81184472460E+02 0.  0.
         23    2    1    2    0    0  0.88665020404E+02 -0.38345303214E+02 -0.38657205320E+03  0.40922717150E+03  0.93258122738E+02 0.  0.
        -11    1    3    3    0    0  0.31765073351E+02 -0.55321289031E+02 -0.10655639582E+03  0.12419231214E+03  0.00000000000E+00 0.  1.
         12    1    3    3    0    0 -0.82632343714E+01  0.23481528892E+02 -0.66653121985E+02  0.71149855318E+02  0.00000000000E+00 0. -1.
        -13    1    4    4    0    0  0.52729794271E+01 -0.49169513166E+02 -0.16426079894E+03  0.17154315901E+03  0.00000000000E+00 0. -1.
         13    1    4    4    0    0  0.83392040977E+02  0.10824209952E+02 -0.22231125426E+03  0.23768401248E+03  0.00000000000E+00 0.  1.
          3    1    1    2  501    0 -0.11216685938E+03  0.70185063354E+02 -0.20867134210E+03  0.24708516037E+03  0.00000000000E+00 0. -1.
<scales pt_clust_5="13000.00000" pt_clust_6="13000.00000" pt_clust_7="13000.00000" pt_clust_8="13000.00000" pt_clust_9="13000.00000"></scales>
<clustering>
<clus scale="   81.184">  5  6 -1 -1</clus>
<clus scale="   90.316">  1  5  2 -1</clus>
<clus scale="   93.258">  7  8 -1 -1</clus>
<clus scale="  109.541">  7  9 -1 -1</clus>
<clus scale="  276.462">  2  5  1 -1</clus>
</clustering>
</event>
<event>
 9    2  0.4178938E-005  0.3638924E+03  0.7546771E-02  0.1108690E+00
          2   -1    0    0  502    0 -0.00000000000E+00  0.00000000000E+00  0.52569908191E+03  0.52569908191E+03  0.00000000000E+00 0. -1.
         21   -1    0    0  501  502  0.00000000000E+00 -0.00000000000E+00 -0.10210102259E+03  0.10210102259E+03  0.00000000000E+00 0.  1.
         24    2    1    2    0    0  0.34651848628E+02 -0.18270540196E+02  0.41541647023E+02  0.10017827606E+03  0.82312910928E+02 0.  0.
         23    2    1    2    0    0  0.13688509979E+03 -0.13673147701E+02  0.11829931435E+03  0.21137330181E+03  0.10844104126E+03 0.  0.
        -11    1    3    3    0    0  0.87723604818E+01 -0.46477808179E+02  0.55287902180E+01  0.47620462858E+02  0.00000000000E+00 0.  1.
         12    1    3    3    0    0  0.25879488146E+02  0.28207267983E+02  0.36012856805E+02  0.52557813206E+02  0.00000000000E+00 0. -1.
        -11    1    4    4    0    0  0.13278495289E+03  0.25658830881E+02  0.97235309881E+02  0.16656807859E+03  0.00000000000E+00 0.  1.
         11    1    4    4    0    0  0.41001468966E+01 -0.39331978582E+02  0.21064004469E+02  0.44805223223E+02  0.00000000000E+00 0. -1.
          1    1    1    2  501    0 -0.17153694842E+03  0.31943687898E+02  0.26375709795E+03  0.31624852662E+03  0.00000000000E+00 0. -1.
<scales pt_clust_5="13000.00000" pt_clust_6="13000.00000" pt_clust_7="13000.00000" pt_clust_8="13000.00000" pt_clust_9="13000.00000"></scales>
<clustering>
<clus scale="   82.313">  5  6 -1 -1</clus>
<clus scale="   91.159">  1  5  2 -1</clus>
<clus scale="  108.441">  7  8 -1 -1</clus>
<clus scale="  150.815">  7  9 -1 -1</clus>
<clus scale="  363.892">  2  5  1 -1</clus>
</clustering>
</event>
<event>
 9    2  0.4178938E-005  0.1678889E+03  0.7546771E-02  0.1200383E+00
         21   -1    0    0  501  502  0.00000000000E+00  0.00000000000E+00  0.44633396324E+03  0.44633396324E+03  0.00000000000E+00 0. -1.
          2   -1    0    0  502    0 -0.00000000000E+00 -0.00000000000E+00 -0.56422597995E+02  0.56422597995E+02  0.00000000000E+00 0. -1.
         24    2    1    2    0    0  0.65166137505E+02 -0.29817938346E+02  0.39560548192E+02  0.11425641410E+03  0.79710452668E+02 0.  0.
         23    2    1    2    0    0  0.80871074461E+01  0.13709316442E+01  0.12573749595E+03  0.15053709517E+03  0.82366366761E+02 0.  0.
        -11    1    3    3    0    0 -0.17339575092E+02 -0.14903899682E+02  0.13027193206E+02  0.26315296938E+02  0.00000000000E+00 0.  1.
         12    1    3    3    0    0  0.82505712597E+02 -0.14914038664E+02  0.26533354986E+02  0.87941117159E+02  0.00000000000E+00 0. -1.
        -13    1    4    4    0    0 -0.35691673820E+02 -0.10454254799E+01  0.36234799932E+02  0.50871890279E+02  0.00000000000E+00 0.  1.
         13    1    4    4    0    0  0.43778781266E+02  0.24163571242E+01  0.89502696019E+02  0.99665204889E+02  0.00000000000E+00 0. -1.
          1    1    1    2  501    0 -0.73253244951E+02  0.28447006702E+02  0.22461332110E+03  0.23796305196E+03  0.00000000000E+00 0. -1.
<scales pt_clust_5="13000.00000" pt_clust_6="13000.00000" pt_clust_7="13000.00000" pt_clust_8="13000.00000" pt_clust_9="13000.00000"></scales>
<clustering>
<clus scale="   79.710">  5  6 -1 -1</clus>
<clus scale="   82.366">  7  8 -1 -1</clus>
<clus scale="   78.583">  7  9 -1 -1</clus>
<clus scale="  107.189">  2  5  1 -1</clus>
<clus scale="  167.889">  1  5  2 -1</clus>
</clustering>
</event>
<event>
 9    2  0.4178938E-005  0.2439746E+03  0.7546771E-02  0.1138921E+00
         21   -1    0    0  501  502  0.00000000000E+00  0.00000000000E+00  0.45804748320E+03  0.45804748320E+03  0.00000000000E+00 0.  1.
         -1   -1    0    0    0  501 -0.00000000000E+00 -0.00000000000E+00 -0.85353696963E+02  0.85353696963E+02  0.00000000000E+00 0.  1.
         24    2    1    2    0    0  0.91510589206E+02  0.75483705437E+02  0.19461680953E+03  0.24134979844E+03  0.79385420158E+02 0.  0.
         23    2    1    2    0    0 -0.34694952539E+02  0.28933080136E+02  0.19549825372E+02  0.10390562883E+03  0.91505853211E+02 0.  0.
        -13    1    3    3    0    0  0.75328719906E+02  0.64997833552E+02  0.87455005977E+02  0.13246702412E+03  0.00000000000E+00 0.  1.
         14    1    3    3    0    0  0.16181869300E+02  0.10485871885E+02  0.10716180355E+03  0.10888277432E+03  0.00000000000E+00 0. -1.
        -11    1    4    4    0    0 -0.46831237522E+02 -0.18904343152E+02  0.20597304554E+02  0.54541616705E+02  0.00000000000E+00 0.  1.
         11    1    4    4    0    0  0.12136284983E+02  0.47837423289E+02 -0.10474791826E+01  0.49364012121E+02  0.00000000000E+00 0. -1.
         -2    1    1    2    0  502 -0.56815636667E+02 -0.10441678557E+03  0.15852715134E+03  0.19814575289E+03  0.00000000000E+00 0.  1.
<scales pt_clust_5="13000.00000" pt_clust_6="13000.00000" pt_clust_7="13000.00000" pt_clust_8="13000.00000" pt_clust_9="13000.00000"></scales>
<clustering>
<clus scale="   79.385">  5  6 -1 -1</clus>
<clus scale="   91.506">  7  8 -1 -1</clus>
<clus scale="  118.873">  7  9 -1 -1</clus>
<clus scale="  142.738">  2  5  1 -1</clus>
<clus scale="  243.975">  1  5  2 -1</clus>
</clustering>
</event>
<event>
 9    2  0.4178938E-005  0.8914113E+03  0.7546771E-02  0.9996823E-01
         21   -1    0    0  501  502  0.00000000000E+00  0.00000000000E+00  0.17536587656E+03  0.17536587656E+03  0.00000000000E+00 0. -1.
          2   -1    0    0  502    0 -0.00000000000E+00 -0.00000000000E+00 -0.16874968399E+04  0.16874968399E+04  0.00000000000E+00 0. -1.
         24    2    1    2    0    0  0.49175330041E+02  0.10104236525E+03 -0.41081618810E+02  0.14280448139E+03  0.77959270393E+02 0.  0.
         23    2    1    2    0    0 -0.28351393299E+03 -0.14081534389E+03 -0.14434631047E+04  0.14807729006E+04  0.94305552485E+02 0.  0.
        -13    1    3    3    0    0  0.25599546592E+02  0.78406045829E+02 -0.62710716694E+02  0.10361215564E+03  0.00000000000E+00 0.  1.
         14    1    3    3    0    0  0.23575783449E+02  0.22636319423E+02  0.21629097884E+02  0.39192325748E+02  0.00000000000E+00 0. -1.
        -11    1    4    4    0    0 -0.12728072253E+03 -0.85392075299E+02 -0.88690145703E+03  0.90004798946E+03  0.00000000000E+00 0. -1.
         11    1    4    4    0    0 -0.15623321047E+03 -0.55423268596E+02 -0.55656164766E+03  0.58072491112E+03  0.00000000000E+00 0.  1.
          1    1    1    2  501    0  0.23433860295E+03  0.39772978643E+02 -0.27586239821E+02  0.23928533447E+03  0.00000000000E+00 0. -1.
<scales pt_clust_5="13000.00000" pt_clust_6="13000.00000" pt_clust_7="13000.00000" pt_clust_8="13000.00000" pt_clust_9="13000.00000"></scales>
<clustering>
<clus scale="   77.959">  5  6 -1 -1</clus>
<clus scale="   94.306">  7  8 -1 -1</clus>
<clus scale="  136.768">  2  5  1 -1</clus>
<clus scale="  243.279">  7  9 -1 -1</clus>
<clus scale="  891.411">  1  5  2 -1</clus>
</clustering>
</event>
<event>
 9    2  0.4178938E-005  0.5001953E+03  0.7546771E-02  0.1032272E+00
         21   -1    0    0  501  502  0.00000000000E+00  0.00000000000E+00  0.89146282479E+02  0.89146282479E+02  0.00000000000E+00 0. -1.
          2   -1    0    0  502    0 -0.00000000000E+00 -0.00000000000E+00 -0.17760611766E+04  0.17760611766E+04  0.00000000000E+00 0. -1.
         24    2    1    2    0    0  0.20213318211E+03 -0.18651168779E+03 -0.75659437135E+03  0.80894442759E+03  0.79445649154E+02 0.  0.
         23    2    1    2    0    0 -0.10174909663E+03 -0.92951928322E+02 -0.15938024242E+03  0.23011183878E+03  0.92501119078E+02 0.  0.
        -13    1    3    3    0    0  0.39104500548E+02 -0.17852935924E+02 -0.59228225626E+02  0.73183823316E+02  0.00000000000E+00 0.  1.
         14    1    3    3    0    0  0.16302868156E+03 -0.16865875186E+03 -0.69736614573E+03  0.73576060427E+03  0.00000000000E+00 0. -1.
        -13    1    4    4    0    0 -0.11396927794E+03 -0.65624103831E+02 -0.10600886464E+03  0.16891831961E+03  0.00000000000E+00 0. -1.
         13    1    4    4    0    0  0.12220181308E+02 -0.27327824491E+02 -0.53371377780E+02  0.61193519173E+02  0.00000000000E+00 0.  1.
          1    1    1    2  501    0 -0.10038408548E+03  0.27946361611E+03 -0.77094028037E+03  0.82615119273E+03  0.00000000000E+00 0. -1.
<scales pt_clust_5="13000.00000" pt_clust_6="13000.00000" pt_clust_7="13000.00000" pt_clust_8="13000.00000" pt_clust_9="13000.00000"></scales>
<clustering>
<clus scale="   79.446">  5  6 -1 -1</clus>
<clus scale="   92.501">  7  8 -1 -1</clus>
<clus scale="  286.280">  2  5  1 -1</clus>
<clus scale="  143.646">  7  9 -1 -1</clus>
<clus scale="  500.195">  1  5  2 -1</clus>
</clustering>
</event>
<event>
 9    2  0.4178938E-005  0.4713314E+03  0.7546771E-02  0.1079666E+00
         21   -1    0    0  501  502  0.00000000000E+00  0.00000000000E+00  0.21406252974E+03  0.21406252974E+03  0.00000000000E+00 0. -1.
          2   -1    0    0  502    0 -0.00000000000E+00 -0.00000000000E+00 -0.37707109738E+03  0.37707109738E+03  0.00000000000E+00 0. -1.
         24    2    1    2    0    0  0.68820135733E+01 -0.40253581896E+02 -0.61865698152E+02  0.10907226821E+03  0.80010512551E+02 0.  0.
         23    2    1    2    0    0 -0.89566797791E+02  0.11090413960E+03 -0.24644455166E+03  0.30056520555E+03  0.96346179461E+02 0.  0.
        -11    1    3    3    0    0 -0.13714010062E+02 -0.20367911648E+02 -0.74007577530E+02  0.77974658889E+02  0.00000000000E+00 0.  1.
         12    1    3    3    0    0  0.20596023635E+02 -0.19885670248E+02  0.12141879378E+02  0.31097609323E+02  0.00000000000E+00 0. -1.
        -13    1    4    4    0    0 -0.35068397181E+02 -0.51771709363E+01 -0.99003644296E+02  0.10515853348E+03  0.00000000000E+00 0.  1.
         13    1    4    4    0    0 -0.54498400609E+02  0.11608131053E+03 -0.14744090736E+03  0.19540667207E+03  0.00000000000E+00 0. -1.
          1    1    1    2  501    0  0.82684784217E+02 -0.70650557701E+02  0.14530168217E+03  0.18149615336E+03  0.00000000000E+00 0. -1.
<scales pt_clust_5="13000.00000" pt_clust_6="13000.00000" pt_clust_7="13000.00000" pt_clust_8="13000.00000" pt_clust_9="13000.00000"></scales>
<clustering>
<clus scale="   80.011">  5  6 -1 -1</clus>
<clus scale="   89.830">  2  5  1 -1</clus>
<clus scale="   96.346">  7  8 -1 -1</clus>
<clus scale="  110.717">  7  9 -1 -1</clus>
<clus scale="  471.331">  1  5  2 -1</clus>
</clustering>
</event>
<event>
 9    2  0.4178938E-005  0.1633431E+03  0.7546771E-02  0.1208618E+00
         21   -1    0    0  501  502  0.00000000000E+00  0.00000000000E+00  0.68077146729E+02  0.68077146729E+02  0.00000000000E+00 0.  1.
          4   -1    0    0  502    0 -0.00000000000E+00 -0.00000000000E+00 -0.29321103982E+03  0.29321103982E+03  0.00000000000E+00 0. -1.
         24    2    1    2    0    0  0.45046715618E+02  0.32596542576E+02 -0.15594785549E+03  0.18389691001E+03  0.80041231252E+02 0.  0.
         23    2    1    2    0    0 -0.74507505637E+02  0.10797876822E+01 -0.51623116344E+02  0.12932372438E+03  0.92234186764E+02 0.  0.
        -11    1    3    3    0    0 -0.36067288057E+01  0.40921135503E+02 -0.10596518026E+03  0.11364931698E+03  0.00000000000E+00 0.  1.
         12    1    3    3    0    0  0.48653444423E+02 -0.83245929263E+01 -0.49982675235E+02  0.70247593022E+02  0.00000000000E+00 0. -1.
        -13    1    4    4    0    0  0.42044780161E+01 -0.32562231333E+02 -0.17161235932E+02  0.37047058770E+02  0.00000000000E+00 0. -1.
         13    1    4    4    0    0 -0.78711983654E+02  0.33642019015E+02 -0.34461880412E+02  0.92276665607E+02  0.00000000000E+00 0.  1.
          3    1    1    2  501    0  0.29460790020E+02 -0.33676330259E+02 -0.17562921252E+02  0.48067552165E+02  0.00000000000E+00 0. -1.
<scales pt_clust_5="13000.00000" pt_clust_6="13000.00000" pt_clust_7="13000.00000" pt_clust_8="13000.00000" pt_clust_9="13000.00000"></scales>
<clustering>
<clus scale="   80.041">  5  6 -1 -1</clus>
<clus scale="   92.234">  7  8 -1 -1</clus>
<clus scale="   44.744">  7  9 -1 -1</clus>
<clus scale="   97.459">  2  5  1 -1</clus>
<clus scale="  163.343">  1  5  2 -1</clus>
</clustering>
</event>
<event>
 9    2  0.4178938E-005  0.5980897E+03  0.7546771E-02  0.1055940E+00
         21   -1    0    0  501  502  0.00000000000E+00  0.00000000000E+00  0.11499758235E+03  0.11499758235E+03  0.00000000000E+00 0.  1.
          2   -1    0    0  502    0 -0.00000000000E+00 -0.00000000000E+00 -0.10190673434E+04  0.10190673434E+04  0.00000000000E+00 0. -1.
         24    2    1    2    0    0 -0.19694622357E+02 -0.22173953770E+02 -0.14264305643E+03  0.16582842989E+03  0.79198890386E+02 0.  0.
         23    2    1    2    0    0 -0.26374845533E+03  0.96907229387E+02 -0.29317940165E+03  0.41580498200E+03  0.89360856644E+02 0.  0.
        -13    1    3    3    0    0 -0.49925572861E+02 -0.86160786452E+01 -0.96921166441E+02  0.10936412639E+03  0.00000000000E+00 0.  1.
         14    1    3    3    0    0  0.30230950504E+02 -0.13557875125E+02 -0.45721889987E+02  0.56464303504E+02  0.00000000000E+00 0. -1.
        -13    1    4    4    0    0 -0.58978769244E+02 -0.15675404978E+02 -0.66187378948E+02  0.90027677271E+02  0.00000000000E+00 0. -1.
         13    1    4    4    0    0 -0.20476968609E+03  0.11258263437E+03 -0.22699202271E+03  0.32577730473E+03  0.00000000000E+00 0.  1.
          1    1    1    2  501    0  0.28344307769E+03 -0.74733275617E+02 -0.46824730301E+03  0.55243151390E+03  0.00000000000E+00 0. -1.
<scales pt_clust_5="13000.00000" pt_clust_6="13000.00000" pt_clust_7="13000.00000" pt_clust_8="13000.00000" pt_clust_9="13000.00000"></scales>
<clustering>
<clus scale="   79.199">  5  6 -1 -1</clus>
<clus scale="   84.570">  2  5  1 -1</clus>
<clus scale="   89.361">  7  8 -1 -1</clus>
<clus scale="  285.655">  7  9 -1 -1</clus>
<clus scale="  598.090">  1  5  2 -1</clus>
</clustering>
</event>
<event>
 9    2  0.4178938E-005  0.2272553E+03  0.7546771E-02  0.1147325E+00
         21   -1    0    0  501  502  0.00000000000E+00  0.00000000000E+00  0.41560546682E+02  0.41560546682E+02  0.00000000000E+00 0. -1.
          2   -1    0    0  502    0 -0.00000000000E+00 -0.00000000000E+00 -0.85855440328E+03  0.85855440328E+03  0.00000000000E+00 0. -1.
         24    2    1    2    0    0 -0.11996688773E+03 -0.65069035921E+00 -0.24132698190E+03  0.28121485395E+03  0.80315654393E+02 0.  0.
         23    2    1    2    0    0 -0.10474060476E+02 -0.34979254009E+01 -0.17916874075E+03  0.20147606435E+03  0.91483470745E+02 0.  0.
        -13    1    3    3    0    0 -0.56519029574E+02  0.42629533029E+01 -0.38195144522E+02  0.68347951980E+02  0.00000000000E+00 0.  1.
         14    1    3    3    0    0 -0.63447858157E+02 -0.49136436621E+01 -0.20313183738E+03  0.21286690197E+03  0.00000000000E+00 0. -1.
        -13    1    4    4    0    0 -0.37752272822E+00 -0.44987115121E+02 -0.12264903697E+03  0.13063984584E+03  0.00000000000E+00 0. -1.
         13    1    4    4    0    0 -0.10096537748E+02  0.41489189720E+02 -0.56519703775E+02  0.70836218511E+02  0.00000000000E+00 0.  1.
          1    1    1    2  501    0  0.13044094821E+03  0.41486157601E+01 -0.39649813395E+03  0.41742403166E+03  0.00000000000E+00 0. -1.
<scales pt_clust_5="13000.00000" pt_clust_6="13000.00000" pt_clust_7="13000.00000" pt_clust_8="13000.00000" pt_clust_9="13000.00000"></scales>
<clustering>
<clus scale="   80.316">  5  6 -1 -1</clus>
<clus scale="   91.483">  7  8 -1 -1</clus>
<clus scale="  130.507">  7  9 -1 -1</clus>
<clus scale="  144.371">  2  5  1 -1</clus>
<clus scale="  227.255">  1  5  2 -1</clus>
</clustering>
</event>
<event>
 9    2  0.4178938E-005  0.4374576E+03  0.7546771E-02  0.1034835E+00
          2   -1    0    0  502    0 -0.00000000000E+00  0.00000000000E+00  0.14297394417E+04  0.14297394417E+04  0.00000000000E+00 0. -1.
         21   -1    0    0  501  502  0.00000000000E+00 -0.00000000000E+00 -0.14560728818E+03  0.14560728818E+03  0.00000000000E+00 0.  1.
         24    2    1    2    0    0  0.38373698367E+03 -0.59113998298E+02  0.93473165446E+03  0.10154807764E+04  0.82032944319E+02 0.  0.
         23    2    1    2    0    0 -0.13343543128E+03 -0.23734926649E+01  0.60027797043E+02  0.17235061269E+03  0.91053552860E+02 0.  0.
        -11    1    3    3    0    0  0.30994033336E+03 -0.78923022395E+02  0.77557056339E+03  0.83892881253E+03  0.00000000000E+00 0.  1.
         12    1    3    3    0    0  0.73796650313E+02  0.19809024097E+02  0.15916109108E+03  0.17655196387E+03  0.00000000000E+00 0. -1.
        -11    1    4    4    0    0 -0.99616808542E+02  0.34639217292E+02  0.61694462949E+02  0.12218670418E+03  0.00000000000E+00 0. -1.
         11    1    4    4    0    0 -0.33818622738E+02 -0.37012709957E+02 -0.16666659053E+01  0.50163908515E+02  0.00000000000E+00 0.  1.
          1    1    1    2  501    0 -0.25030155239E+03  0.61487490963E+02  0.28937270198E+03  0.38751534076E+03  0.00000000000E+00 0. -1.
<scales pt_clust_5="13000.00000" pt_clust_6="13000.00000" pt_clust_7="13000.00000" pt_clust_8="13000.00000" pt_clust_9="13000.00000"></scales>
<clustering>
<clus scale="   82.033">  5  6 -1 -1</clus>
<clus scale="   91.054">  7  8 -1 -1</clus>
<clus scale="  257.743">  7  9 -1 -1</clus>
<clus scale="  396.835">  1  5  2 -1</clus>
<clus scale="  437.458">  2  5  1 -1</clus>
</clustering>
</event>
<event>
 9    2  0.4178938E-005  0.4449038E+03  0.7546771E-02  0.1046072E+00
         21   -1    0    0  501  502  0.00000000000E+00  0.00000000000E+00  0.50854853739E+02  0.50854853739E+02  0.00000000000E+00 0. -1.
          2   -1    0    0  502    0 -0.00000000000E+00 -0.00000000000E+00 -0.25355314619E+04  0.25355314619E+04  0.00000000000E+00 0. -1.
         24    2    1    2    0    0  0.23084901373E+03  0.11916268484E+03 -0.10150380966E+04  0.10508809552E+04  0.80977971944E+02 0.  0.
         23    2    1    2    0    0  0.52768533369E+02  0.30892273356E+02 -0.22526288209E+03  0.25042710958E+03  0.90727727290E+02 0.  0.
        -11    1    3    3    0    0  0.40239112302E+02 -0.10479799268E+02 -0.15943480725E+03  0.16476792805E+03  0.00000000000E+00 0.  1.
         12    1    3    3    0    0  0.19060990143E+03  0.12964248411E+03 -0.85560328931E+03  0.88611302715E+03  0.00000000000E+00 0. -1.
        -13    1    4    4    0    0  0.57415449654E+02 -0.12563500044E+02 -0.83720691011E+02  0.10229139502E+03  0.00000000000E+00 0.  1.
         13    1    4    4    0    0 -0.46469162849E+01  0.43455773400E+02 -0.14154219108E+03  0.14813571456E+03  0.00000000000E+00 0. -1.
          1    1    1    2  501    0 -0.28361754710E+03 -0.15005495819E+03 -0.12443756295E+04  0.12850782509E+04  0.00000000000E+00 0. -1.
<scales pt_clust_5="13000.00000" pt_clust_6="13000.00000" pt_clust_7="13000.00000" pt_clust_8="13000.00000" pt_clust_9="13000.00000"></scales>
<clustering>
<clus scale="   80.978">  5  6 -1 -1</clus>
<clus scale="   90.728">  7  8 -1 -1</clus>
<clus scale="  272.118">  2  5  1 -1</clus>
<clus scale="  102.234">  7  9 -1 -1</clus>
<clus scale="  444.904">  1  5  2 -1</clus>
</clustering>
</event>
<event>
 9    2  0.4178938E-005  0.3249723E+03  0.7546771E-02  0.1113836E+00
         21   -1    0    0  501  502  0.00000000000E+00  0.00000000000E+00  0.51828520568E+02  0.51828520568E+02  0.00000000000E+00 0. -1.
          2   -1    0    0  502    0 -0.00000000000E+00 -0.00000000000E+00 -0.16156007671E+04  0.16156007671E+04  0.00000000000E+00 0. -1.
         24    2    1    2    0    0  0.75495282470E+02  0.20040904900E+02 -0.10727281279E+04  0.10785903401E+04  0.80686490319E+02 0.  0.
         23    2    1    2    0    0  0.26800204396E+02 -0.13655811732E+03 -0.29766080277E+03  0.34097258389E+03  0.91071285772E+02 0.  0.
        -11    1    3    3    0    0  0.34178854087E+02  0.14129000041E+02 -0.13618326178E+03  0.14111592220E+03  0.00000000000E+00 0.  1.
         12    1    3    3    0    0  0.41316428383E+02  0.59119048587E+01 -0.93654486612E+03  0.93747441785E+03  0.00000000000E+00 0. -1.
        -11    1    4    4    0    0 -0.11338835710E+02 -0.72004006283E+02 -0.22519650766E+03  0.23669941524E+03  0.00000000000E+00 0.  1.
         11    1    4    4    0    0  0.38139040106E+02 -0.64554111034E+02 -0.72464295119E+02  0.10427316864E+03  0.00000000000E+00 0. -1.
          1    1    1    2  501    0 -0.10229548687E+03  0.11651721242E+03 -0.19338331590E+03  0.24786636378E+03  0.00000000000E+00 0. -1.
<scales pt_clust_5="13000.00000" pt_clust_6="13000.00000" pt_clust_7="13000.00000" pt_clust_8="13000.00000" pt_clust_9="13000.00000"></scales>
<clustering>
<clus scale="   80.686">  5  6 -1 -1</clus>
<clus scale="   91.071">  7  8 -1 -1</clus>
<clus scale="  112.301">  2  5  1 -1</clus>
<clus scale="  143.723">  7  9 -1 -1</clus>
<clus scale="  324.972">  1  5  2 -1</clus>
</clustering>
</event>
<event>
 9    2  0.4178938E-005  0.1507543E+03  0.7546771E-02  0.1223692E+00
         21   -1    0    0  501  502  0.00000000000E+00  0.00000000000E+00  0.11997967025E+03  0.11997967025E+03  0.00000000000E+00 0.  1.
          2   -1    0    0  502    0 -0.00000000000E+00 -0.00000000000E+00 -0.49287003198E+03  0.49287003198E+03  0.00000000000E+00 0. -1.
         24    2    1    2    0    0  0.24365614427E+02  0.83206776680E+01 -0.43905510744E+03  0.44821481837E+03  0.86395712796E+02 0.  0.
         23    2    1    2    0    0  0.61982625823E+01 -0.46767232445E+02  0.43351594689E+02  0.11048021637E+03  0.90005138506E+02 0.  0.
        -13    1    3    3    0    0 -0.24950370436E+01 -0.37174838701E+02 -0.17363784926E+03  0.17759024899E+03  0.00000000000E+00 0.  1.
         14    1    3    3    0    0  0.26860651471E+02  0.45495516369E+02 -0.26541725819E+03  0.27062456938E+03  0.00000000000E+00 0. -1.
        -11    1    4    4    0    0 -0.28387277801E+02 -0.85287652180E+00  0.44725900798E+02  0.52980856368E+02  0.00000000000E+00 0.  1.
         11    1    4    4    0    0  0.34585540383E+02 -0.45914355923E+02 -0.13743061088E+01  0.57499360003E+02  0.00000000000E+00 0. -1.
          1    1    1    2  501    0 -0.30563877009E+02  0.38446554777E+02  0.22813151027E+02  0.54154667498E+02  0.00000000000E+00 0. -1.
<scales pt_clust_5="13000.00000" pt_clust_6="13000.00000" pt_clust_7="13000.00000" pt_clust_8="13000.00000" pt_clust_9="13000.00000"></scales>
<clustering>
<clus scale="   86.396">  5  6 -1 -1</clus>
<clus scale="   90.005">  7  8 -1 -1</clus>
<clus scale="   49.115">  7  9 -1 -1</clus>
<clus scale="   90.151">  2  5  1 -1</clus>
<clus scale="  150.754">  1  5  2 -1</clus>
</clustering>
</event>
<event>
 9    2  0.4178938E-005  0.3829592E+03  0.7546771E-02  0.1081252E+00
         21   -1    0    0  501  502  0.00000000000E+00  0.00000000000E+00  0.16047617947E+03  0.16047617947E+03  0.00000000000E+00 0. -1.
          2   -1    0    0  502    0 -0.00000000000E+00 -0.00000000000E+00 -0.62966116257E+03  0.62966116257E+03  0.00000000000E+00 0. -1.
         24    2    1    2    0    0 -0.44082432543E+02 -0.13013045216E+03 -0.35648488788E+03  0.39093927827E+03  0.82914706556E+02 0.  0.
         23    2    1    2    0    0 -0.19561095737E+02  0.89771467506E+02 -0.22739917183E+03  0.26195658130E+03  0.92028877496E+02 0.  0.
        -11    1    3    3    0    0  0.14327896190E+01 -0.91857034639E+02 -0.27586049507E+03  0.29075553381E+03  0.00000000000E+00 0.  1.
         12    1    3    3    0    0 -0.45515222162E+02 -0.38273417521E+02 -0.80624392809E+02  0.10018374446E+03  0.00000000000E+00 0. -1.
        -13    1    4    4    0    0 -0.34370972546E+02  0.10370951400E+03 -0.18325146211E+03  0.21334977247E+03  0.00000000000E+00 0.  1.
         13    1    4    4    0    0  0.14809876809E+02 -0.13938046494E+02 -0.44147709718E+02  0.48606808829E+02  0.00000000000E+00 0. -1.
          1    1    1    2  501    0  0.63643528280E+02  0.40358984655E+02  0.11469907662E+03  0.13724148247E+03  0.00000000000E+00 0. -1.
<scales pt_clust_5="13000.00000" pt_clust_6="13000.00000" pt_clust_7="13000.00000" pt_clust_8="13000.00000" pt_clust_9="13000.00000"></scales>
<clustering>
<clus scale="   82.915">  5  6 -1 -1</clus>
<clus scale="   92.029">  7  8 -1 -1</clus>
<clus scale="   75.361">  7  9 -1 -1</clus>
<clus scale="  160.474">  2  5  1 -1</clus>
<clus scale="  382.959">  1  5  2 -1</clus>
</clustering>
</event>
<event>
 9    2  0.4178938E-005  0.2077901E+03  0.7546771E-02  0.1180882E+00
         21   -1    0    0  501  502  0.00000000000E+00  0.00000000000E+00  0.20975892192E+02  0.20975892192E+02  0.00000000000E+00 0.  1.
          2   -1    0    0  502    0 -0.00000000000E+00 -0.00000000000E+00 -0.10970989705E+04  0.10970989705E+04  0.00000000000E+00 0. -1.
         24    2    1    2    0    0  0.27433736165E+02 -0.16437164008E+02 -0.45150865548E+03  0.45980448263E+03  0.80853608613E+02 0.  0.
         23    2    1    2    0    0  0.20645516265E+02  0.54599601135E+02 -0.19607064849E+03  0.22535265965E+03  0.94513323026E+02 0.  0.
        -13    1    3    3    0    0 -0.22772138569E+02 -0.50709126825E+00 -0.51106503637E+02  0.55952677779E+02  0.00000000000E+00 0.  1.
         14    1    3    3    0    0  0.50205874734E+02 -0.15930072740E+02 -0.40040215185E+03  0.40385180485E+03  0.00000000000E+00 0. -1.
        -13    1    4    4    0    0 -0.92990438707E+01  0.59145855140E+02 -0.18267205577E+03  0.19223367123E+03  0.00000000000E+00 0.  1.
         13    1    4    4    0    0  0.29944560135E+02 -0.45462540045E+01 -0.13398592717E+02  0.33118988420E+02  0.00000000000E+00 0. -1.
          1    1    1    2  501    0 -0.48079252430E+02 -0.38162437127E+02 -0.42854377432E+03  0.43291772039E+03  0.00000000000E+00 0. -1.
<scales pt_clust_5="13000.00000" pt_clust_6="13000.00000" pt_clust_7="13000.00000" pt_clust_8="13000.00000" pt_clust_9="13000.00000"></scales>
<clustering>
<clus scale="   80.854">  5  6 -1 -1</clus>
<clus scale="   86.949">  2  5  1 -1</clus>
<clus scale="   94.513">  7  8 -1 -1</clus>
<clus scale="   57.447">  7  9 -1 -1</clus>
<clus scale="  207.790">  1  5  2 -1</clus>
</clustering>
</event>
<event>
 9    2  0.4178938E-005  0.4647001E+03  0.7546771E-02  0.1072879E+00
          2   -1    0    0  502    0 -0.00000000000E+00  0.00000000000E+00  0.10296417061E+04  0.10296417061E+04  0.00000000000E+00 0. -1.
         21   -1    0    0  501  502  0.00000000000E+00 -0.00000000000E+00 -0.98567915236E+02  0.98567915236E+02  0.00000000000E+00 0. -1.
         24    2    1    2    0    0  0.60853236686E+02 -0.44088223778E+02  0.33632451147E+02  0.11759239851E+03  0.83963935862E+02 0.  0.
         23    2    1    2    0    0  0.17663004458E+03 -0.13680974412E+02  0.55235926285E+03  0.58774936059E+03  0.94674251519E+02 0.  0.
        -13    1    3    3    0    0  0.19945128618E+02  0.12875486567E+02  0.40688204872E+02  0.47107497553E+02  0.00000000000E+00 0.  1.
         14    1    3    3    0    0  0.40908108068E+02 -0.56963710345E+02 -0.70557537252E+01  0.70484900954E+02  0.00000000000E+00 0. -1.
        -11    1    4    4    0    0  0.59909836510E+02  0.13190120717E+01  0.74481189925E+02  0.95594853188E+02  0.00000000000E+00 0.  1.
         11    1    4    4    0    0  0.11672020807E+03 -0.14999986484E+02  0.47787807293E+03  0.49215450740E+03  0.00000000000E+00 0. -1.
          1    1    1    2  501    0 -0.23748328127E+03  0.57769198190E+02  0.34508207683E+03  0.42286786221E+03  0.00000000000E+00 0. -1.
<scales pt_clust_5="13000.00000" pt_clust_6="13000.00000" pt_clust_7="13000.00000" pt_clust_8="13000.00000" pt_clust_9="13000.00000"></scales>
<clustering>
<clus scale="   83.964">  5  6 -1 -1</clus>
<clus scale="   94.674">  7  8 -1 -1</clus>
<clus scale="  112.680">  1  5  2 -1</clus>
<clus scale="  216.719">  7  9 -1 -1</clus>
<clus scale="  464.700">  2  5  1 -1</clus>
</clustering>
</event>
<event>
 9    2  0.4178938E-005  0.1599996E+03  0.7546771E-02  0.1211088E+00
          2   -1    0    0  502    0 -0.00000000000E+00  0.00000000000E+00  0.59570784667E+03  0.59570784667E+03  0.00000000000E+00 0. -1.
         21   -1    0    0  501  502  0.00000000000E+00 -0.00000000000E+00 -0.30600159665E+02  0.30600159665E+02  0.00000000000E+00 0.  1.
         24    2    1    2    0    0 -0.31254535162E+02  0.49290466172E+02  0.13222464566E+03  0.16480222156E+03  0.79183453376E+02 0.  0.
         23    2    1    2    0    0  0.13644712640E+01 -0.12419513995E+02  0.16400971432E+03  0.18847511063E+03  0.92019426361E+02 0.  0.
        -13    1    3    3    0    0 -0.26236162168E+02  0.58001174867E+02  0.13886025847E+03  0.15275681286E+03  0.00000000000E+00 0.  1.
         14    1    3    3    0    0 -0.50183729944E+01 -0.87107086945E+01 -0.66356128134E+01  0.12045408705E+02  0.00000000000E+00 0. -1.
        -13    1    4    4    0    0 -0.34487008991E+02 -0.18613930838E+02  0.13876298171E+03  0.14419083641E+03  0.00000000000E+00 0. -1.
         13    1    4    4    0    0  0.35851480255E+02  0.61944168433E+01  0.25246732610E+02  0.44284274229E+02  0.00000000000E+00 0.  1.
          1    1    1    2  501    0  0.29890063898E+02 -0.36870952177E+02  0.26887332703E+03  0.27303067414E+03  0.00000000000E+00 0. -1.
<scales pt_clust_5="13000.00000" pt_clust_6="13000.00000" pt_clust_7="13000.00000" pt_clust_8="13000.00000" pt_clust_9="13000.00000"></scales>
<clustering>
<clus scale="   79.183">  5  6 -1 -1</clus>
<clus scale="   92.019">  7  8 -1 -1</clus>
<clus scale="   47.465">  7  9 -1 -1</clus>
<clus scale="   98.369">  1  5  2 -1</clus>
<clus scale="  160.000">  2  5  1 -1</clus>
</clustering>
</event>
<event>
 9    2  0.4178938E-005  0.4843762E+03  0.7546771E-02  0.1036754E+00
         21   -1    0    0  501  502  0.00000000000E+00  0.00000000000E+00  0.39891469222E+03  0.39891469222E+03  0.00000000000E+00 0. -1.
          2   -1    0    0  502    0 -0.00000000000E+00 -0.00000000000E+00 -0.36669094351E+03  0.36669094351E+03  0.00000000000E+00 0. -1.
         24    2    1    2    0    0 -0.26188549288E+03 -0.35108970688E+02 -0.26906251240E+02  0.27763367693E+03  0.80869407121E+02 0.  0.
         23    2    1    2    0    0  0.24119137279E+02 -0.14365138266E+03 -0.38794691680E+02  0.17479892513E+03  0.88499624858E+02 0.  0.
        -11    1    3    3    0    0 -0.41490018915E+02 -0.49046767383E+01  0.25689301859E+02  0.49045058400E+02  0.00000000000E+00 0.  1.
         12    1    3    3    0    0 -0.22039547396E+03 -0.30204293950E+02 -0.52595553099E+02  0.22858861853E+03  0.00000000000E+00 0. -1.
        -13    1    4    4    0    0  0.38433545957E+02 -0.11916892299E+03 -0.60521692635E+02  0.13907280446E+03  0.00000000000E+00 0. -1.
         13    1    4    4    0    0 -0.14314408678E+02 -0.24482459670E+02  0.21727000955E+02  0.35726120666E+02  0.00000000000E+00 0.  1.
          1    1    1    2  501    0  0.23776635560E+03  0.17876035335E+03  0.97924691634E+02  0.31317303367E+03  0.00000000000E+00 0. -1.
<scales pt_clust_5="13000.00000" pt_clust_6="13000.00000" pt_clust_7="13000.00000" pt_clust_8="13000.00000" pt_clust_9="13000.00000"></scales>
<clustering>
<clus scale="   80.869">  5  6 -1 -1</clus>
<clus scale="   88.500">  7  8 -1 -1</clus>
<clus scale="  276.327">  2  5  1 -1</clus>
<clus scale="  193.052">  7  9 -1 -1</clus>
<clus scale="  484.376">  1  5  2 -1</clus>
</clustering>
</event>
<event>
 9    2  0.4178938E-005  0.3039934E+03  0.7546771E-02  0.1107652E+00
          2   -1    0    0  502    0 -0.00000000000E+00  0.00000000000E+00  0.13958354422E+03  0.13958354422E+03  0.00000000000E+00 0. -1.
         21   -1    0    0  501  502  0.00000000000E+00 -0.00000000000E+00 -0.52162903211E+03  0.52162903211E+03  0.00000000000E+00 0. -1.
         24    2    1    2    0    0  0.36589142483E+02  0.13400139882E+03 -0.30951976678E+03  0.34868738766E+03  0.80531161980E+02 0.  0.
         23    2    1    2    0    0 -0.13330714656E+03 -0.54479822236E+02 -0.78607826075E+02  0.18716552428E+03  0.90071620421E+02 0.  0.
        -13    1    3    3    0    0 -0.24357907403E+02  0.36018970407E+02 -0.10873511229E+03  0.11710678258E+03  0.00000000000E+00 0.  1.
         14    1    3    3    0    0  0.60947049886E+02  0.97982428416E+02 -0.20078465449E+03  0.23158060508E+03  0.00000000000E+00 0. -1.
        -11    1    4    4    0    0 -0.68110688777E+02  0.10541414477E+02 -0.46765559300E+01  0.69080080488E+02  0.00000000000E+00 0. -1.
         11    1    4    4    0    0 -0.65196457782E+02 -0.65021236713E+02 -0.73931270145E+02  0.11808544380E+03  0.00000000000E+00 0.  1.
          1    1    1    2  501    0  0.96718004076E+02 -0.79521576587E+02  0.60821049718E+01  0.12535966439E+03  0.00000000000E+00 0. -1.
<scales pt_clust_5="13000.00000" pt_clust_6="13000.00000" pt_clust_7="13000.00000" pt_clust_8="13000.00000" pt_clust_9="13000.00000"></scales>
<clustering>
<clus scale="   80.531">  5  6 -1 -1</clus>
<clus scale="   90.072">  7  8 -1 -1</clus>
<clus scale="  125.212">  7  9 -1 -1</clus>
<clus scale="  160.563">  1  5  2 -1</clus>
<clus scale="  303.993">  2  5  1 -1</clus>
</clustering>
</event>
<event>
 9    2  0.4178938E-005  0.2889940E+03  0.7546771E-02  0.1123251E+00
         -3   -1    0    0    0  501 -0.00000000000E+00  0.00000000000E+00  0.13856158612E+03  0.13856158612E+03  0.00000000000E+00 0.  1.
         21   -1    0    0  501  502  0.00000000000E+00 -0.00000000000E+00 -0.31096782171E+03  0.31096782171E+03  0.00000000000E+00 0.  1.
         24    2    1    2    0    0  0.95611879779E+02  0.56015837354E+01 -0.55854907484E+02  0.13791788820E+03  0.82027823940E+02 0.  0.
         23    2    1    2    0    0  0.11215845381E+02 -0.53196210492E+02  0.39370998975E+02  0.11670337860E+03  0.95467120091E+02 0.  0.
        -11    1    3    3    0    0  0.96563900748E+02 -0.58363395177E+01 -0.18050651151E+02  0.98409734243E+02  0.00000000000E+00 0.  1.
         12    1    3    3    0    0 -0.95202096886E+00  0.11437923253E+02 -0.37804256333E+02  0.39508153958E+02  0.00000000000E+00 0. -1.
        -11    1    4    4    0    0  0.46477961584E+02 -0.50063639333E+02  0.68894708141E+01  0.68658821024E+02  0.00000000000E+00 0.  1.
         11    1    4    4    0    0 -0.35262116203E+02 -0.31325711586E+01  0.32481528160E+02  0.48044557577E+02  0.00000000000E+00 0. -1.
         -4    1    1    2    0  502 -0.10682772516E+03  0.47594626756E+02 -0.15592232707E+03  0.19490814103E+03  0.00000000000E+00 0.  1.
<scales pt_clust_5="13000.00000" pt_clust_6="13000.00000" pt_clust_7="13000.00000" pt_clust_8="13000.00000" pt_clust_9="13000.00000"></scales>
<clustering>
<clus scale="   82.028">  5  6 -1 -1</clus>
<clus scale="   95.467">  7  8 -1 -1</clus>
<clus scale="  116.951">  7  9 -1 -1</clus>
<clus scale="  126.102">  1  5  2 -1</clus>
<clus scale="  288.994">  2  5  1 -1</clus>
</clustering>
</event>
<event>
 9    2  0.4178938E-005  0.2478845E+03  0.7546771E-02  0.1159893E+00
          2   -1    0    0  502    0 -0.00000000000E+00  0.00000000000E+00  0.59300278508E+02  0.59300278508E+02  0.00000000000E+00 0. -1.
         21   -1    0    0  501  502  0.00000000000E+00 -0.00000000000E+00 -0.46173642951E+03  0.46173642951E+03  0.00000000000E+00 0.  1.
         24    2    1    2    0    0  0.60298964057E+01 -0.26971248963E+02 -0.91158073286E+02  0.12311618486E+03  0.77999953390E+02 0.  0.
         23    2    1    2    0    0 -0.90985691979E+02  0.65950413618E+02 -0.24293401472E+03  0.28212858291E+03  0.89172577550E+02 0.  0.
        -13    1    3    3    0    0  0.19952542429E+02 -0.49237322081E+02 -0.76208169429E+02  0.92898347256E+02  0.00000000000E+00 0.  1.
         14    1    3    3    0    0 -0.13922646023E+02  0.22266073118E+02 -0.14949903856E+02  0.30217837607E+02  0.00000000000E+00 0. -1.
        -13    1    4    4    0    0 -0.71603214722E+02  0.14306985396E+02 -0.72126310545E+02  0.10263486183E+03  0.00000000000E+00 0.  1.
         13    1    4    4    0    0 -0.19382477257E+02  0.51643428222E+02 -0.17080770418E+03  0.17949372108E+03  0.00000000000E+00 0. -1.
          1    1    1    2  501    0  0.84955795574E+02 -0.38979164655E+02 -0.68344063001E+02  0.11579194025E+03  0.00000000000E+00 0. -1.
<scales pt_clust_5="13000.00000" pt_clust_6="13000.00000" pt_clust_7="13000.00000" pt_clust_8="13000.00000" pt_clust_9="13000.00000"></scales>
<clustering>
<clus scale="   78.000">  5  6 -1 -1</clus>
<clus scale="   82.751">  1  5  2 -1</clus>
<clus scale="   89.173">  7  8 -1 -1</clus>
<clus scale="  103.337">  7  9 -1 -1</clus>
<clus scale="  247.884">  2  5  1 -1</clus>
</clustering>
</event>
<event>
 9    2  0.4178938E-005  0.1903424E+03  0.7546771E-02  0.1195269E+00
         21   -1    0    0  501  502  0.00000000000E+00  0.00000000000E+00  0.29087411859E+02  0.29087411859E+02  0.00000000000E+00 0. -1.
          2   -1    0    0  502    0 -0.00000000000E+00 -0.00000000000E+00 -0.63933095815E+03  0.63933095815E+03  0.00000000000E+00 0. -1.
         24    2    1    2    0    0  0.15200659100E+01  0.26666141618E+01 -0.19499160443E+03  0.21162036588E+03  0.82170749222E+02 0.  0.
         23    2    1    2    0    0  0.67814423251E+02 -0.24336098348E+02 -0.24854469640E+03  0.27495152046E+03  0.92913028208E+02 0.  0.
        -13    1    3    3    0    0 -0.11427662644E+02  0.34443711952E+02 -0.45285891491E+02  0.58032514461E+02  0.00000000000E+00 0.  1.
         14    1    3    3    0    0  0.12947728554E+02 -0.31777097790E+02 -0.14970571293E+03  0.15358785142E+03  0.00000000000E+00 0. -1.
        -11    1    4    4    0    0  0.15802352591E+02  0.25083087884E+02 -0.15088678169E+03  0.15377157258E+03  0.00000000000E+00 0.  1.
         11    1    4    4    0    0  0.52012070660E+02 -0.49419186232E+02 -0.97657914703E+02  0.12117994787E+03  0.00000000000E+00 0. -1.
          1    1    1    2  501    0 -0.69334489161E+02  0.21669484186E+02 -0.16670724547E+03  0.18184648368E+03  0.00000000000E+00 0. -1.
<scales pt_clust_5="13000.00000" pt_clust_6="13000.00000" pt_clust_7="13000.00000" pt_clust_8="13000.00000" pt_clust_9="13000.00000"></scales>
<clustering>
<clus scale="   82.171">  5  6 -1 -1</clus>
<clus scale="   82.228">  2  5  1 -1</clus>
<clus scale="   92.913">  7  8 -1 -1</clus>
<clus scale="   72.390">  7  9 -1 -1</clus>
<clus scale="  190.342">  1  5  2 -1</clus>
</clustering>
</event>
<event>
 9    2  0.4178938E-005  0.1810740E+03  0.7546771E-02  0.1182382E+00
          2   -1    0    0  502    0 -0.00000000000E+00  0.00000000000E+00  0.37304190288E+03  0.37304190288E+03  0.00000000000E+00 0. -1.
         21   -1    0    0  501  502  0.00000000000E+00 -0.00000000000E+00 -0.22995398836E+03  0.22995398836E+03  0.00000000000E+00 0.  1.
         24    2    1    2    0    0  0.82818989967E+02  0.51885587163E+02 -0.18725094797E+03  0.22628437767E+03  0.81182527729E+02 0.  0.
         23    2    1    2    0    0 -0.23556627127E+01 -0.23475452476E+02  0.15384845247E+03  0.18067491594E+03  0.91746568909E+02 0.  0.
        -13    1    3    3    0    0  0.74406757586E+02  0.68227831567E+02 -0.18029058101E+03  0.20663033702E+03  0.00000000000E+00 0.  1.
         14    1    3    3    0    0  0.84122323806E+01 -0.16342244404E+02 -0.69603669552E+01  0.19654040651E+02  0.00000000000E+00 0. -1.
        -13    1    4    4    0    0 -0.29747425667E+02 -0.12771102651E+02  0.10045798904E+02  0.33895847420E+02  0.00000000000E+00 0. -1.
         13    1    4    4    0    0  0.27391762954E+02 -0.10704349825E+02  0.14380265356E+03  0.14677906852E+03  0.00000000000E+00 0.  1.
          1    1    1    2  501    0 -0.80463327254E+02 -0.28410134687E+02  0.17649041002E+03  0.19603659764E+03  0.00000000000E+00 0. -1.
<scales pt_clust_5="13000.00000" pt_clust_6="13000.00000" pt_clust_7="13000.00000" pt_clust_8="13000.00000" pt_clust_9="13000.00000"></scales>
<clustering>
<clus scale="   81.183">  5  6 -1 -1</clus>
<clus scale="   91.747">  7  8 -1 -1</clus>
<clus scale="   85.332">  7  9 -1 -1</clus>
<clus scale="  127.050">  1  5  2 -1</clus>
<clus scale="  181.074">  2  5  1 -1</clus>
</clustering>
</event>
<event>
 9    2  0.4178938E-005  0.2045630E+03  0.7546771E-02  0.1171815E+00
         -1   -1    0    0    0  501 -0.00000000000E+00  0.00000000000E+00  0.36814402260E+03  0.36814402260E+03  0.00000000000E+00 0.  1.
         21   -1    0    0  501  502  0.00000000000E+00 -0.00000000000E+00 -0.84141756586E+02  0.84141756586E+02  0.00000000000E+00 0.  1.
         24    2    1    2    0    0 -0.76004037769E+02  0.13605557171E+02  0.20394428652E+03  0.23261485139E+03  0.80960929702E+02 0.  0.
         23    2    1    2    0    0  0.50375186249E+02 -0.80337869952E+02  0.37294748999E+02  0.13637186729E+03  0.90634183104E+02 0.  0.
        -13    1    3    3    0    0 -0.83345511393E+02 -0.12661656999E+02  0.16114718056E+03  0.18186590013E+03  0.00000000000E+00 0.  1.
         14    1    3    3    0    0  0.73414736238E+01  0.26267214169E+02  0.42797105965E+02  0.50748951262E+02  0.00000000000E+00 0. -1.
        -13    1    4    4    0    0 -0.24155233850E+02 -0.20129174911E+02 -0.46429748563E+01  0.31783898761E+02  0.00000000000E+00 0. -1.
         13    1    4    4    0    0  0.74530420099E+02 -0.60208695041E+02  0.41937723855E+02  0.10458796853E+03  0.00000000000E+00 0.  1.
         -2    1    1    2    0  502  0.25628851519E+02  0.66732312781E+02  0.42763230491E+02  0.83299060507E+02  0.00000000000E+00 0.  1.
<scales pt_clust_5="13000.00000" pt_clust_6="13000.00000" pt_clust_7="13000.00000" pt_clust_8="13000.00000" pt_clust_9="13000.00000"></scales>
<clustering>
<clus scale="   80.961">  5  6 -1 -1</clus>
<clus scale="   90.634">  7  8 -1 -1</clus>
<clus scale="   71.485">  7  9 -1 -1</clus>
<clus scale="  111.877">  1  5  2 -1</clus>
<clus scale="  204.563">  2  5  1 -1</clus>
</clustering>
</event>
<event>
 9    2  0.4178938E-005  0.2193651E+03  0.7546771E-02  0.1172595E+00
         21   -1    0    0  501  502  0.00000000000E+00  0.00000000000E+00  0.71689178341E+03  0.71689178341E+03  0.00000000000E+00 0. -1.
          4   -1    0    0  502    0 -0.00000000000E+00 -0.00000000000E+00 -0.39690046682E+02  0.39690046682E+02  0.00000000000E+00 0. -1.
         24    2    1    2    0    0 -0.31547076636E+02 -0.10773917513E+02  0.36032358294E+03  0.37118228250E+03  0.82655351184E+02 0.  0.
         23    2    1    2    0    0 -0.61158204769E+02 -0.56079136178E+01  0.24430576862E+03  0.26653245929E+03  0.87077371166E+02 0.  0.
        -11    1    3    3    0    0 -0.34136583294E+02 -0.42741947187E+02  0.18373736191E+03  0.19170706437E+03  0.00000000000E+00 0.  1.
         12    1    3    3    0    0  0.25895066586E+01  0.31968029674E+02  0.17658622103E+03  0.17947521813E+03  0.00000000000E+00 0. -1.
        -11    1    4    4    0    0 -0.20265318977E+02  0.12966312045E+02  0.70602427324E+01  0.25073001989E+02  0.00000000000E+00 0.  1.
         11    1    4    4    0    0 -0.40892885793E+02 -0.18574225663E+02  0.23724552588E+03  0.24145945730E+03  0.00000000000E+00 0. -1.
          3    1    1    2  501    0  0.92705281405E+02  0.16381831131E+02  0.72572385175E+02  0.11886708830E+03  0.00000000000E+00 0. -1.
<scales pt_clust_5="13000.00000" pt_clust_6="13000.00000" pt_clust_7="13000.00000" pt_clust_8="13000.00000" pt_clust_9="13000.00000"></scales>
<clustering>
<clus scale="   82.655">  5  6 -1 -1</clus>
<clus scale="   87.077">  7  8 -1 -1</clus>
<clus scale="   89.125">  2  5  1 -1</clus>
<clus scale="   71.969">  7  9 -1 -1</clus>
<clus scale="  219.365">  1  5  2 -1</clus>
</clustering>
</event>
<event>
 9    2  0.4178938E-005  0.1988089E+03  0.7546771E-02  0.1186113E+00
         -1   -1    0    0    0  501 -0.00000000000E+00  0.00000000000E+00  0.12029016297E+03  0.12029016297E+03  0.00000000000E+00 0.  1.
         21   -1    0    0  501  502  0.00000000000E+00 -0.00000000000E+00 -0.17896854617E+03  0.17896854617E+03  0.00000000000E+00 0.  1.
         24    2    1    2    0    0 -0.21660969019E+02 -0.32977627419E+02  0.10076384925E+02  0.88896605400E+02  0.79021208732E+02 0.  0.
         23    2    1    2    0    0  0.73621869116E+01 -0.55432555151E+02 -0.31953740171E+02  0.11353684253E+03  0.93501888398E+02 0.  0.
        -13    1    3    3    0    0 -0.26883862530E+02 -0.55766433017E+02  0.17556369528E+02  0.64349539447E+02  0.00000000000E+00 0.  1.
         14    1    3    3    0    0  0.52228935116E+01  0.22788805598E+02 -0.74799846036E+01  0.24547065953E+02  0.00000000000E+00 0. -1.
        -13    1    4    4    0    0  0.14013764050E+01 -0.78590440018E+02 -0.40143519223E+02  0.88260541884E+02  0.00000000000E+00 0.  1.
         13    1    4    4    0    0  0.59608105066E+01  0.23157884867E+02  0.81897790517E+01  0.25276300646E+02  0.00000000000E+00 0. -1.
         -2    1    1    2    0  502  0.14298782107E+02  0.88410182570E+02 -0.36801027954E+02  0.96825261220E+02  0.00000000000E+00 0.  1.
<scales pt_clust_5="13000.00000" pt_clust_6="13000.00000" pt_clust_7="13000.00000" pt_clust_8="13000.00000" pt_clust_9="13000.00000"></scales>
<clustering>
<clus scale="   79.021">  5  6 -1 -1</clus>
<clus scale="   88.324">  1  5  2 -1</clus>
<clus scale="   93.502">  7  8 -1 -1</clus>
<clus scale="   74.607">  7  9 -1 -1</clus>
<clus scale="  198.809">  2  5  1 -1</clus>
</clustering>
</event>
<event>
 9    2  0.4178938E-005  0.3228678E+03  0.7546771E-02  0.1090645E+00
          2   -1    0    0  502    0 -0.00000000000E+00  0.00000000000E+00  0.67629090807E+03  0.67629090807E+03  0.00000000000E+00 0. -1.
         21   -1    0    0  501  502  0.00000000000E+00 -0.00000000000E+00 -0.13767107929E+03  0.13767107929E+03  0.00000000000E+00 0.  1.
         24    2    1    2    0    0  0.94445433335E+02  0.16700847194E+03  0.28778136832E+02  0.21048690686E+03  0.81638148100E+02 0.  0.
         23    2    1    2    0    0 -0.87927701936E+02 -0.43741810379E+01  0.97702316311E+02  0.16035967978E+03  0.91755490621E+02 0.  0.
        -11    1    3    3    0    0  0.10013751039E+03  0.10926244375E+03  0.65630916594E+01  0.14835389033E+03  0.00000000000E+00 0.  1.
         12    1    3    3    0    0 -0.56920770576E+01  0.57746028183E+02  0.22215045173E+02  0.62133016538E+02  0.00000000000E+00 0. -1.
        -13    1    4    4    0    0 -0.10297904392E+03 -0.20182748931E+02  0.85450084488E+02  0.13532828152E+03  0.00000000000E+00 0.  1.
         13    1    4    4    0    0  0.15051341980E+02  0.15808567893E+02  0.12252231823E+02  0.25031398260E+02  0.00000000000E+00 0. -1.
          1    1    1    2  501    0 -0.65177313991E+01 -0.16263429090E+03  0.41213937564E+03  0.44311540072E+03  0.00000000000E+00 0. -1.
<scales pt_clust_5="13000.00000" pt_clust_6="13000.00000" pt_clust_7="13000.00000" pt_clust_8="13000.00000" pt_clust_9="13000.00000"></scales>
<clustering>
<clus scale="   81.638">  5  6 -1 -1</clus>
<clus scale="   91.755">  7  8 -1 -1</clus>
<clus scale="  162.765">  7  9 -1 -1</clus>
<clus scale="  208.510">  1  5  2 -1</clus>
<clus scale="  322.868">  2  5  1 -1</clus>
</clustering>
</event>
<event>
 9    2  0.4178938E-005  0.2699980E+03  0.7546771E-02  0.1133990E+00
          2   -1    0    0  502    0 -0.00000000000E+00  0.00000000000E+00  0.12738796905E+04  0.12738796905E+04  0.00000000000E+00 0. -1.
         21   -1    0    0  501  502  0.00000000000E+00 -0.00000000000E+00 -0.46156713014E+02  0.46156713014E+02  0.00000000000E+00 0. -1.
         24    2    1    2    0    0 -0.86237508268E+02 -0.83326052633E+01  0.83535523678E+03  0.84374726371E+03  0.81146369284E+02 0.  0.
         23    2    1    2    0    0 -0.52892356282E+02 -0.22482157175E+02  0.84279625811E+02  0.13684112415E+03  0.91210685712E+02 0.  0.
        -11    1    3    3    0    0 -0.14728726566E+02 -0.28030303446E+02  0.10594864648E+03  0.11057915260E+03  0.00000000000E+00 0.  1.
         12    1    3    3    0    0 -0.71508781701E+02  0.19697698182E+02  0.72940659030E+03  0.73316811111E+03  0.00000000000E+00 0. -1.
        -11    1    4    4    0    0 -0.26713320343E+02  0.23535500456E+01  0.95387034408E+02  0.99084948477E+02  0.00000000000E+00 0.  1.
         11    1    4    4    0    0 -0.26179035939E+02 -0.24835707220E+02 -0.11107408597E+02  0.37756175674E+02  0.00000000000E+00 0. -1.
          1    1    1    2  501    0  0.13912986455E+03  0.30814762438E+02  0.30808811487E+03  0.33944801564E+03  0.00000000000E+00 0. -1.
<scales pt_clust_5="13000.00000" pt_clust_6="13000.00000" pt_clust_7="13000.00000" pt_clust_8="13000.00000" pt_clust_9="13000.00000"></scales>
<clustering>
<clus scale="   81.146">  5  6 -1 -1</clus>
<clus scale="   91.211">  7  8 -1 -1</clus>
<clus scale="  118.706">  1  5  2 -1</clus>
<clus scale="   78.785">  7  9 -1 -1</clus>
<clus scale="  269.998">  2  5  1 -1</clus>
</clustering>
</event>
<event>
 9    2  0.4178938E-005  0.1893928E+03  0.7546771E-02  0.1176263E+00
         21   -1    0    0  501  502  0.00000000000E+00  0.00000000000E+00  0.24961126735E+02  0.24961126735E+02  0.00000000000E+00 0. -1.
          2   -1    0    0  502    0 -0.00000000000E+00 -0.00000000000E+00 -0.10514184106E+04  0.10514184106E+04  0.00000000000E+00 0. -1.
         24    2    1    2    0    0 -0.19761350763E+02 -0.95174373685E+02 -0.52788736810E+03  0.54304885921E+03  0.82391247678E+02 0.  0.
         23    2    1    2    0    0 -0.28770502731E+02  0.11590873698E+02 -0.25971693495E+03  0.27566366682E+03  0.87037237581E+02 0.  0.
        -11    1    3    3    0    0 -0.33198972613E+02 -0.19749485295E+01 -0.13599268553E+03  0.14000029543E+03  0.00000000000E+00 0.  1.
         12    1    3    3    0    0  0.13437621850E+02 -0.93199425156E+02 -0.39189468258E+03  0.40304856378E+03  0.00000000000E+00 0. -1.
        -11    1    4    4    0    0  0.13979385136E+02 -0.18719000189E+02 -0.21498373124E+02  0.31749082252E+02  0.00000000000E+00 0.  1.
         11    1    4    4    0    0 -0.42749887867E+02  0.30309873887E+02 -0.23821856182E+03  0.24391458457E+03  0.00000000000E+00 0. -1.
          1    1    1    2  501    0  0.48531853494E+02  0.83583499987E+02 -0.23885298086E+03  0.25766701135E+03  0.00000000000E+00 0. -1.
<scales pt_clust_5="13000.00000" pt_clust_6="13000.00000" pt_clust_7="13000.00000" pt_clust_8="13000.00000" pt_clust_9="13000.00000"></scales>
<clustering>
<clus scale="   82.391">  5  6 -1 -1</clus>
<clus scale="   87.037">  7  8 -1 -1</clus>
<clus scale="   96.652">  7  9 -1 -1</clus>
<clus scale="  127.424">  2  5  1 -1</clus>
<clus scale="  189.393">  1  5  2 -1</clus>
</clustering>
</event>
<event>
 9    2  0.4178938E-005  0.3638843E+03  0.7546771E-02  0.1109523E+00
         21   -1    0    0  501  502  0.00000000000E+00  0.00000000000E+00  0.11241475522E+03  0.11241475522E+03  0.00000000000E+00 0. -1.
          2   -1    0    0  502    0 -0.00000000000E+00 -0.00000000000E+00 -0.77133784743E+03  0.77133784743E+03  0.00000000000E+00 0. -1.
         24    2    1    2    0    0  0.17481174031E+02 -0.38376491405E+02 -0.46092971327E+03  0.46949040639E+03  0.78655543853E+02 0.  0.
         23    2    1    2    0    0 -0.64872621708E+02  0.21862404344E+02  0.73667615316E+02  0.13800441776E+03  0.94508623965E+02 0.  0.
        -13    1    3    3    0    0 -0.54194054142E+00  0.24118558412E+02 -0.11604399158E+03  0.11852513042E+03  0.00000000000E+00 0.  1.
         14    1    3    3    0    0  0.18023114573E+02 -0.62495049816E+02 -0.34488572169E+03  0.35096527597E+03  0.00000000000E+00 0. -1.
        -11    1    4    4    0    0  0.10595510122E+01 -0.31432999779E+02  0.14579106743E+02  0.34665638273E+02  0.00000000000E+00 0.  1.
         11    1    4    4    0    0 -0.65932172720E+02  0.53295404123E+02  0.59088508574E+02  0.10333877949E+03  0.00000000000E+00 0. -1.
          1    1    1    2  501    0  0.47391447677E+02  0.16514087061E+02 -0.27166099425E+03  0.27625777850E+03  0.00000000000E+00 0. -1.
<scales pt_clust_5="13000.00000" pt_clust_6="13000.00000" pt_clust_7="13000.00000" pt_clust_8="13000.00000" pt_clust_9="13000.00000"></scales>
<clustering>
<clus scale="   78.656">  5  6 -1 -1</clus>
<clus scale="   89.247">  2  5  1 -1</clus>
<clus scale="   94.509">  7  8 -1 -1</clus>
<clus scale="   65.509">  7  9 -1 -1</clus>
<clus scale="  363.884">  1  5  2 -1</clus>
</clustering>
</event>
<event>
 9    2  0.4178938E-005  0.1259110E+03  0.7546771E-02  0.1256108E+00
          2   -1    0    0  502    0 -0.00000000000E+00  0.00000000000E+00  0.58691282504E+03  0.58691282504E+03  0.00000000000E+00 0. -1.
         21   -1    0    0  501  502  0.00000000000E+00 -0.00000000000E+00 -0.24786738348E+02  0.24786738348E+02  0.00000000000E+00 0.  1.
         24    2    1    2    0    0  0.25681156193E+01 -0.38535097870E+01  0.39171633929E+03  0.39981976012E+03  0.79954395508E+02 0.  0.
         23    2    1    2    0    0  0.22772825434E+02  0.11218901898E+02  0.10458165927E+03  0.14095907652E+03  0.91036654492E+02 0.  0.
        -11    1    3    3    0    0 -0.50851791288E+01  0.31233401875E+02  0.79838372056E+02  0.85881022886E+02  0.00000000000E+00 0.  1.
         12    1    3    3    0    0  0.76532947481E+01 -0.35086911662E+02  0.31187796724E+03  0.31393873724E+03  0.00000000000E+00 0. -1.
        -11    1    4    4    0    0  0.42123596019E+02 -0.13119033304E+02  0.15755442509E+02  0.46848055937E+02  0.00000000000E+00 0.  1.
         11    1    4    4    0    0 -0.19350770585E+02  0.24337935202E+02  0.88826216758E+02  0.94111020585E+02  0.00000000000E+00 0. -1.
          1    1    1    2  501    0 -0.25340941053E+02 -0.73653921110E+01  0.65828088137E+02  0.70920726746E+02  0.00000000000E+00 0. -1.
<scales pt_clust_5="13000.00000" pt_clust_6="13000.00000" pt_clust_7="13000.00000" pt_clust_8="13000.00000" pt_clust_9="13000.00000"></scales>
<clustering>
<clus scale="   79.954">  5  6 -1 -1</clus>
<clus scale="   80.088">  1  5  2 -1</clus>
<clus scale="   91.037">  7  8 -1 -1</clus>
<clus scale="   25.940">  7  9 -1 -1</clus>
<clus scale="  125.911">  2  5  1 -1</clus>
</clustering>
</event>
<event>
 9    2  0.4178938E-005  0.2641328E+03  0.7546771E-02  0.1137869E+00
         21   -1    0    0  501  502  0.00000000000E+00  0.00000000000E+00  0.26207805405E+02  0.26207805405E+02  0.00000000000E+00 0. -1.
          2   -1    0    0  502    0 -0.00000000000E+00 -0.00000000000E+00 -0.15304176967E+04  0.15304176967E+04  0.00000000000E+00 0. -1.
         24    2    1    2    0    0 -0.72801988846E+02 -0.33256399931E+02 -0.71850875568E+03  0.72771511459E+03  0.83116414181E+02 0.  0.
         23    2    1    2    0    0  0.36994140953E+01 -0.79666814491E+02 -0.49228526836E+03  0.50701026426E+03  0.91400960731E+02 0.  0.
        -11    1    3    3    0    0 -0.87972640067E+01 -0.41480977723E+02 -0.16124105471E+03  0.16672354690E+03  0.00000000000E+00 0.  1.
         12    1    3    3    0    0 -0.64004724839E+02  0.82245777920E+01 -0.55726770097E+03  0.56099156770E+03  0.00000000000E+00 0. -1.
        -11    1    4    4    0    0  0.41080803939E+02 -0.42639186605E+02 -0.35657127197E+03  0.36145373795E+03  0.00000000000E+00 0.  1.
         11    1    4    4    0    0 -0.37381389843E+02 -0.37027627886E+02 -0.13571399639E+03  0.14555652631E+03  0.00000000000E+00 0. -1.
          1    1    1    2  501    0  0.69102574750E+02  0.11292321442E+03 -0.29341586726E+03  0.32190012326E+03  0.00000000000E+00 0. -1.
<scales pt_clust_5="13000.00000" pt_clust_6="13000.00000" pt_clust_7="13000.00000" pt_clust_8="13000.00000" pt_clust_9="13000.00000"></scales>
<clustering>
<clus scale="   83.116">  5  6 -1 -1</clus>
<clus scale="   91.401">  7  8 -1 -1</clus>
<clus scale="  115.388">  2  5  1 -1</clus>
<clus scale="  108.446">  7  9 -1 -1</clus>
<clus scale="  264.133">  1  5  2 -1</clus>
</clustering>
</event>
<event>
 9    2  0.4178938E-005  0.3377244E+03  0.7546771E-02  0.1089658E+00
          2   -1    0    0  502    0 -0.00000000000E+00  0.00000000000E+00  0.27507510994E+03  0.27507510994E+03  0.00000000000E+00 0. -1.
         21   -1    0    0  501  502  0.00000000000E+00 -0.00000000000E+00 -0.30405236666E+03  0.30405236666E+03  0.00000000000E+00 0. -1.
         24    2    1    2    0    0  0.12597179962E+03  0.11268327582E+03 -0.12867531615E+03  0.22699468232E+03  0.80017709702E+02 0.  0.
         23    2    1    2    0    0 -0.17656919664E+03  0.11108400539E+02  0.29040100224E+02  0.20088127224E+03  0.90608390065E+02 0.  0.
        -11    1    3    3    0    0  0.24438274551E+02  0.17314305844E+02 -0.69440541580E+02  0.75624091828E+02  0.00000000000E+00 0.  1.
         12    1    3    3    0    0  0.10153352507E+03  0.95368969979E+02 -0.59234774568E+02  0.15137059049E+03  0.00000000000E+00 0. -1.
        -13    1    4    4    0    0 -0.10901569492E+03 -0.18243299587E+00 -0.27087091035E+02  0.11233060812E+03  0.00000000000E+00 0. -1.
         13    1    4    4    0    0 -0.67553501725E+02  0.11290833535E+02  0.56127191259E+02  0.88550664119E+02  0.00000000000E+00 0.  1.
          1    1    1    2  501    0  0.50597397026E+02 -0.12379167636E+03  0.70657959198E+02  0.15125152204E+03  0.00000000000E+00 0. -1.
<scales pt_clust_5="13000.00000" pt_clust_6="13000.00000" pt_clust_7="13000.00000" pt_clust_8="13000.00000" pt_clust_9="13000.00000"></scales>
<clustering>
<clus scale="   80.018">  5  6 -1 -1</clus>
<clus scale="   90.608">  7  8 -1 -1</clus>
<clus scale="  133.733">  7  9 -1 -1</clus>
<clus scale="  187.001">  1  5  2 -1</clus>
<clus scale="  337.724">  2  5  1 -1</clus>
</clustering>
</event>
<event>
 9    2  0.4178938E-005  0.2548890E+03  0.7546771E-02  0.1140671E+00
         21   -1    0    0  501  502  0.00000000000E+00  0.00000000000E+00  0.52779431969E+03  0.52779431969E+03  0.00000000000E+00 0. -1.
          2   -1    0    0  502    0 -0.00000000000E+00 -0.00000000000E+00 -0.11061450433E+03  0.11061450433E+03  0.00000000000E+00 0. -1.
         24    2    1    2    0    0 -0.53449377093E+02  0.72481523383E+02 -0.29995044883E+02  0.12369167059E+03  0.79306490981E+02 0.  0.
         23    2    1    2    0    0  0.28309295626E+02 -0.60525004403E+02  0.46725609982E+03  0.48039167855E+03  0.89348808739E+02 0.  0.
        -11    1    3    3    0    0 -0.26845423663E+02  0.85753798635E+02 -0.18059205560E+02  0.91654381551E+02  0.00000000000E+00 0.  1.
         12    1    3    3    0    0 -0.26603953430E+02 -0.13272275253E+02 -0.11935839324E+02  0.32037289037E+02  0.00000000000E+00 0. -1.
        -13    1    4    4    0    0 -0.17407066581E+02 -0.62882925600E+02  0.25084562231E+03  0.25919258194E+03  0.00000000000E+00 0. -1.
         13    1    4    4    0    0  0.45716362206E+02  0.23579211976E+01  0.21641047751E+03  0.22119909661E+03  0.00000000000E+00 0.  1.
          1    1    1    2  501    0  0.25140081468E+02 -0.11956518980E+02 -0.20081239579E+02  0.34325474874E+02  0.00000000000E+00 0. -1.
<scales pt_clust_5="13000.00000" pt_clust_6="13000.00000" pt_clust_7="13000.00000" pt_clust_8="13000.00000" pt_clust_9="13000.00000"></scales>
<clustering>
<clus scale="   79.306">  5  6 -1 -1</clus>
<clus scale="   89.349">  7  8 -1 -1</clus>
<clus scale="   27.839">  7  9 -1 -1</clus>
<clus scale="  120.000">  2  5  1 -1</clus>
<clus scale="  254.889">  1  5  2 -1</clus>
</clustering>
</event>
<event>
 9    2  0.4178938E-005  0.2699488E+03  0.7546771E-02  0.1116116E+00
         21   -1    0    0  501  502  0.00000000000E+00  0.00000000000E+00  0.49974006539E+02  0.49974006539E+02  0.00000000000E+00 0. -1.
          2   -1    0    0  502    0 -0.00000000000E+00 -0.00000000000E+00 -0.17234574482E+04  0.17234574482E+04  0.00000000000E+00 0. -1.
         24    2    1    2    0    0  0.58806627840E+02 -0.15546491523E+03 -0.12972645259E+04  0.13103839047E+04  0.81136725637E+02 0.  0.
         23    2    1    2    0    0 -0.56617646058E+02 -0.61630368695E+01 -0.12636128060E+03  0.16546189111E+03  0.90371031336E+02 0.  0.
        -11    1    3    3    0    0  0.19309671771E+02 -0.23699430150E+02 -0.84814622487E+02  0.90155679804E+02  0.00000000000E+00 0.  1.
         12    1    3    3    0    0  0.39496956068E+02 -0.13176548508E+03 -0.12124499034E+04  0.12202282249E+04  0.00000000000E+00 0. -1.
        -11    1    4    4    0    0 -0.33664753675E+02  0.17846670367E+02 -0.12663672347E+03  0.13224476933E+03  0.00000000000E+00 0.  1.
         11    1    4    4    0    0 -0.22952892383E+02 -0.24009707237E+02  0.27544287167E+00  0.33217121777E+02  0.00000000000E+00 0. -1.
          1    1    1    2  501    0 -0.21889817813E+01  0.16162795210E+03 -0.24985763515E+03  0.29758565890E+03  0.00000000000E+00 0. -1.
<scales pt_clust_5="13000.00000" pt_clust_6="13000.00000" pt_clust_7="13000.00000" pt_clust_8="13000.00000" pt_clust_9="13000.00000"></scales>
<clustering>
<clus scale="   81.137">  5  6 -1 -1</clus>
<clus scale="   90.371">  7  8 -1 -1</clus>
<clus scale="  161.643">  7  9 -1 -1</clus>
<clus scale="  184.961">  2  5  1 -1</clus>
<clus scale="  269.949">  1  5  2 -1</clus>
</clustering>
</event>
<event>
 9    2  0.4178938E-005  0.3790229E+03  0.7546771E-02  0.1087939E+00
          2   -1    0    0  502    0 -0.00000000000E+00  0.00000000000E+00  0.33238033134E+03  0.33238033134E+03  0.00000000000E+00 0. -1.
         21   -1    0    0  501  502  0.00000000000E+00 -0.00000000000E+00 -0.20237536460E+03  0.20237536460E+03  0.00000000000E+00 0. -1.
         24    2    1    2    0    0  0.11216692444E+03  0.22530507969E+02  0.51263132306E+02  0.14763989987E+03  0.77978128819E+02 0.  0.
         23    2    1    2    0    0  0.11127082385E+03  0.17615800327E+02  0.65028898604E+02  0.15968625085E+03  0.92625203889E+02 0.  0.
        -13    1    3    3    0    0  0.10133067699E+03  0.12278258971E+02  0.85878725628E+01  0.10243248165E+03  0.00000000000E+00 0.  1.
         14    1    3    3    0    0  0.10836247450E+02  0.10252248998E+02  0.42675259743E+02  0.45207418223E+02  0.00000000000E+00 0. -1.
        -11    1    4    4    0    0  0.57781436398E+02 -0.33975125290E+02  0.11283176884E+02  0.67972888796E+02  0.00000000000E+00 0. -1.
         11    1    4    4    0    0  0.53489387452E+02  0.51590925617E+02  0.53745721720E+02  0.91713362054E+02  0.00000000000E+00 0.  1.
          1    1    1    2  501    0 -0.22343774829E+03 -0.40146308295E+02  0.13712935822E+02  0.22742954522E+03  0.00000000000E+00 0. -1.
<scales pt_clust_5="13000.00000" pt_clust_6="13000.00000" pt_clust_7="13000.00000" pt_clust_8="13000.00000" pt_clust_9="13000.00000"></scales>
<clustering>
<clus scale="   77.978">  5  6 -1 -1</clus>
<clus scale="   92.625">  7  8 -1 -1</clus>
<clus scale="  138.454">  1  5  2 -1</clus>
<clus scale="  167.812">  7  9 -1 -1</clus>
<clus scale="  379.023">  2  5  1 -1</clus>
</clustering>
</event>
<event>
 9    2  0.4178938E-005  0.6096226E+03  0.7546771E-02  0.1030275E+00
         21   -1    0    0  501  502  0.00000000000E+00  0.00000000000E+00  0.55115337980E+03  0.55115337980E+03  0.00000000000E+00 0. -1.
          2   -1    0    0  502    0 -0.00000000000E+00 -0.00000000000E+00 -0.30069404001E+03  0.30069404001E+03  0.00000000000E+00 0. -1.
         24    2    1    2    0    0  0.31370104566E+02  0.14428602253E+03 -0.46009799613E+02  0.17395829415E+03  0.79636968078E+02 0.  0.
         23    2    1    2    0    0 -0.13628930805E+03 -0.61497993565E+02  0.44538973078E+03  0.47779105087E+03  0.86922363663E+02 0.  0.
        -11    1    3    3    0    0  0.21103794443E+02  0.15615969725E+02  0.16013091009E+02  0.30751385888E+02  0.00000000000E+00 0.  1.
         12    1    3    3    0    0  0.10266310123E+02  0.12867005280E+03 -0.62022890623E+02  0.14320690826E+03  0.00000000000E+00 0. -1.
        -11    1    4    4    0    0 -0.20875172823E+02 -0.15735680152E+02  0.15632638680E+02  0.30459216377E+02  0.00000000000E+00 0. -1.
         11    1    4    4    0    0 -0.11541413522E+03 -0.45762313413E+02  0.42975709210E+03  0.44733183449E+03  0.00000000000E+00 0.  1.
          1    1    1    2  501    0  0.10491920348E+03 -0.82788028963E+02 -0.14892059138E+03  0.20009807479E+03  0.00000000000E+00 0. -1.
<scales pt_clust_5="13000.00000" pt_clust_6="13000.00000" pt_clust_7="13000.00000" pt_clust_8="13000.00000" pt_clust_9="13000.00000"></scales>
<clustering>
<clus scale="   79.637">  5  6 -1 -1</clus>
<clus scale="   86.922">  7  8 -1 -1</clus>
<clus scale="  133.648">  7  9 -1 -1</clus>
<clus scale="  167.763">  2  5  1 -1</clus>
<clus scale="  609.623">  1  5  2 -1</clus>
</clustering>
</event>
<event>
 9    2  0.4178938E-005  0.4195764E+03  0.7546771E-02  0.1092088E+00
         21   -1    0    0  501  502  0.00000000000E+00  0.00000000000E+00  0.98734049382E+03  0.98734049382E+03  0.00000000000E+00 0.  1.
         -1   -1    0    0    0  501 -0.00000000000E+00 -0.00000000000E+00 -0.85623105229E+02  0.85623105229E+02  0.00000000000E+00 0.  1.
         24    2    1    2    0    0  0.40721646628E+02  0.18231571317E+02  0.15942818875E+02  0.92840673470E+02  0.79840932358E+02 0.  0.
         23    2    1    2    0    0  0.13903474557E+02  0.14126586797E+03  0.15054383825E+03  0.22581028119E+03  0.90429440967E+02 0.  0.
        -13    1    3    3    0    0  0.53238044010E+02  0.38920373116E+02  0.45318580389E+01  0.66103120280E+02  0.00000000000E+00 0.  1.
         14    1    3    3    0    0 -0.12516397382E+02 -0.20688801799E+02  0.11410960837E+02  0.26737553189E+02  0.00000000000E+00 0. -1.
        -11    1    4    4    0    0 -0.38350453327E+02  0.70608245421E+02  0.75258144174E+02  0.11009118882E+03  0.00000000000E+00 0.  1.
         11    1    4    4    0    0  0.52253927884E+02  0.70657622554E+02  0.75285694080E+02  0.11571909236E+03  0.00000000000E+00 0. -1.
         -2    1    1    2    0  502 -0.54625121185E+02 -0.15949743929E+03  0.73523073146E+03  0.75431264439E+03  0.00000000000E+00 0.  1.
<scales pt_clust_5="13000.00000" pt_clust_6="13000.00000" pt_clust_7="13000.00000" pt_clust_8="13000.00000" pt_clust_9="13000.00000"></scales>
<clustering>
<clus scale="   79.841">  5  6 -1 -1</clus>
<clus scale="   90.429">  7  8 -1 -1</clus>
<clus scale="   91.462">  2  5  1 -1</clus>
<clus scale="  162.569">  7  9 -1 -1</clus>
<clus scale="  419.576">  1  5  2 -1</clus>
</clustering>
</event>
<event>
 9    2  0.4178938E-005  0.8050715E+03  0.7546771E-02  0.1018176E+00
          2   -1    0    0  502    0 -0.00000000000E+00  0.00000000000E+00  0.72481345300E+03  0.72481345300E+03  0.00000000000E+00 0. -1.
         21   -1    0    0  501  502  0.00000000000E+00 -0.00000000000E+00 -0.29430429536E+03  0.29430429536E+03  0.00000000000E+00 0.  1.
         24    2    1    2    0    0 -0.67436661442E+02 -0.91217760182E+01 -0.29362224474E+01  0.10477913986E+03  0.79618695317E+02 0.  0.
         23    2    1    2    0    0  0.41655079967E+03  0.93503136913E+02  0.16920709971E+03  0.46844314497E+03  0.92469087625E+02 0.  0.
        -13    1    3    3    0    0  0.40964810133E+01 -0.25077961826E+02  0.14754273439E+02  0.29383224989E+02  0.00000000000E+00 0.  1.
         14    1    3    3    0    0 -0.71533142455E+02  0.15956185808E+02 -0.17690495886E+02  0.75395914874E+02  0.00000000000E+00 0. -1.
        -13    1    4    4    0    0  0.19851527024E+03  0.13030794600E+02  0.41389244055E+02  0.20320232196E+03  0.00000000000E+00 0.  1.
         13    1    4    4    0    0  0.21803552943E+03  0.80472342312E+02  0.12781785565E+03  0.26524082301E+03  0.00000000000E+00 0. -1.
          1    1    1    2  501    0 -0.34911413822E+03 -0.84381360895E+02  0.26423828037E+03  0.44589546352E+03  0.00000000000E+00 0. -1.
<scales pt_clust_5="13000.00000" pt_clust_6="13000.00000" pt_clust_7="13000.00000" pt_clust_8="13000.00000" pt_clust_9="13000.00000"></scales>
<clustering>
<clus scale="   79.619">  5  6 -1 -1</clus>
<clus scale="   92.469">  7  8 -1 -1</clus>
<clus scale="  104.738">  1  5  2 -1</clus>
<clus scale="  394.851">  7  9 -1 -1</clus>
<clus scale="  805.072">  2  5  1 -1</clus>
</clustering>
</event>
<event>
 9    2  0.4178938E-005  0.2930937E+03  0.7546771E-02  0.1140038E+00
         21   -1    0    0  501  502  0.00000000000E+00  0.00000000000E+00  0.47482642089E+02  0.47482642089E+02  0.00000000000E+00 0. -1.
          2   -1    0    0  502    0 -0.00000000000E+00 -0.00000000000E+00 -0.73613732026E+03  0.73613732026E+03  0.00000000000E+00 0. -1.
         24    2    1    2    0    0 -0.86408423388E+01 -0.11377729044E+02 -0.16807882122E+03  0.18620624032E+03  0.78855290994E+02 0.  0.
         23    2    1    2    0    0 -0.69828632312E+02 -0.70151654139E+02 -0.43985226562E+03  0.45841445235E+03  0.82924677161E+02 0.  0.
        -11    1    3    3    0    0 -0.40580643103E+01  0.28194843057E+02 -0.25720974836E+02  0.38379494622E+02  0.00000000000E+00 0.  1.
         12    1    3    3    0    0 -0.45827780284E+01 -0.39572572101E+02 -0.14235784638E+03  0.14782674570E+03  0.00000000000E+00 0. -1.
        -13    1    4    4    0    0 -0.23746687757E+01 -0.49222007860E+02 -0.27005660550E+03  0.27451596545E+03  0.00000000000E+00 0.  1.
         13    1    4    4    0    0 -0.67453963537E+02 -0.20929646278E+02 -0.16979566012E+03  0.18389848690E+03  0.00000000000E+00 0. -1.
          1    1    1    2  501    0  0.78469474651E+02  0.81529383183E+02 -0.80723591336E+02  0.13899926968E+03  0.00000000000E+00 0. -1.
<scales pt_clust_5="13000.00000" pt_clust_6="13000.00000" pt_clust_7="13000.00000" pt_clust_8="13000.00000" pt_clust_9="13000.00000"></scales>
<clustering>
<clus scale="   78.855">  5  6 -1 -1</clus>
<clus scale="   80.139">  2  5  1 -1</clus>
<clus scale="   82.925">  7  8 -1 -1</clus>
<clus scale="  110.369">  7  9 -1 -1</clus>
<clus scale="  293.094">  1  5  2 -1</clus>
</clustering>
</event>
<event>
 9    2  0.4178938E-005  0.4293069E+03  0.7546771E-02  0.1074931E+00
         21   -1    0    0  501  502  0.00000000000E+00  0.00000000000E+00  0.10252434609E+03  0.10252434609E+03  0.00000000000E+00 0.  1.
         -3   -1    0    0    0  501 -0.00000000000E+00 -0.00000000000E+00 -0.81992377492E+03  0.81992377492E+03  0.00000000000E+00 0.  1.
         24    2    1    2    0    0  0.10938184035E+03 -0.96227849890E+01 -0.27263363038E+03  0.30428870003E+03  0.78775196332E+02 0.  0.
         23    2    1    2    0    0 -0.15661839326E+02 -0.17609393704E+03 -0.31263923456E+03  0.37172166349E+03  0.95808852673E+02 0.  0.
        -11    1    3    3    0    0  0.71203871890E+02 -0.25314838890E+02 -0.24015938739E+03  0.25176847259E+03  0.00000000000E+00 0.  1.
         12    1    3    3    0    0  0.38177968464E+02  0.15692053901E+02 -0.32474242995E+02  0.52520227434E+02  0.00000000000E+00 0. -1.
        -13    1    4    4    0    0 -0.48161663644E+02 -0.70043191473E+02 -0.17817175850E+03  0.19741015689E+03  0.00000000000E+00 0.  1.
         13    1    4    4    0    0  0.32499824318E+02 -0.10605074556E+03 -0.13446747606E+03  0.17431150660E+03  0.00000000000E+00 0. -1.
         -4    1    1    2    0  502 -0.93720001028E+02  0.18571672203E+03 -0.13212656389E+03  0.24643775749E+03  0.00000000000E+00 0.  1.
<scales pt_clust_5="13000.00000" pt_clust_6="13000.00000" pt_clust_7="13000.00000" pt_clust_8="13000.00000" pt_clust_9="13000.00000"></scales>
<clustering>
<clus scale="   78.775">  5  6 -1 -1</clus>
<clus scale="   95.809">  7  8 -1 -1</clus>
<clus scale="  135.139">  2  5  1 -1</clus>
<clus scale="  190.338">  7  9 -1 -1</clus>
<clus scale="  429.307">  1  5  2 -1</clus>
</clustering>
</event>
<event>
 9    2  0.4178938E-005  0.4713753E+03  0.7546771E-02  0.1060527E+00
          2   -1    0    0  502    0 -0.00000000000E+00  0.00000000000E+00  0.23860611344E+04  0.23860611344E+04  0.00000000000E+00 0. -1.
         21   -1    0    0  501  502  0.00000000000E+00 -0.00000000000E+00 -0.41206760859E+02  0.41206760859E+02  0.00000000000E+00 0. -1.
         24    2    1    2    0    0  0.42147097210E+02 -0.12187389831E+03  0.69480952409E+03  0.71121351426E+03  0.80216975832E+02 0.  0.
         23    2    1    2    0    0 -0.15309281882E+02 -0.16010630033E+03  0.75144840013E+03  0.77387144786E+03  0.91290296524E+02 0.  0.
        -13    1    3    3    0    0  0.33285163183E+02 -0.84014827916E+02  0.27197860594E+03  0.28659859645E+03  0.00000000000E+00 0.  1.
         14    1    3    3    0    0  0.88619340266E+01 -0.37859070391E+02  0.42283091815E+03  0.42461491781E+03  0.00000000000E+00 0. -1.
        -13    1    4    4    0    0  0.29836526876E+02 -0.62620129347E+02  0.41290146970E+03  0.41868738053E+03  0.00000000000E+00 0.  1.
         13    1    4    4    0    0 -0.45145808758E+02 -0.97486170985E+02  0.33854693042E+03  0.35518406732E+03  0.00000000000E+00 0. -1.
          1    1    1    2  501    0 -0.26837815328E+02  0.28198019864E+03  0.89859644928E+03  0.94218293309E+03  0.00000000000E+00 0. -1.
<scales pt_clust_5="13000.00000" pt_clust_6="13000.00000" pt_clust_7="13000.00000" pt_clust_8="13000.00000" pt_clust_9="13000.00000"></scales>
<clustering>
<clus scale="   80.217">  5  6 -1 -1</clus>
<clus scale="   91.290">  7  8 -1 -1</clus>
<clus scale="  151.870">  1  5  2 -1</clus>
<clus scale="  215.366">  7  9 -1 -1</clus>
<clus scale="  471.375">  2  5  1 -1</clus>
</clustering>
</event>
<event>
 9    2  0.4178938E-005  0.1476577E+03  0.7546771E-02  0.1223247E+00
         -3   -1    0    0    0  501 -0.00000000000E+00  0.00000000000E+00  0.20601194555E+03  0.20601194555E+03  0.00000000000E+00 0.  1.
         21   -1    0    0  501  502  0.00000000000E+00 -0.00000000000E+00 -0.10222131956E+03  0.10222131956E+03  0.00000000000E+00 0.  1.
         24    2    1    2    0    0  0.52770592248E+02 -0.13548148246E+02  0.12600211564E+03  0.15891429883E+03  0.80055814896E+02 0.  0.
         23    2    1    2    0    0 -0.11523626595E+02  0.17097144655E+02 -0.37088330769E+02  0.10532774042E+03  0.96401671658E+02 0.  0.
        -13    1    3    3    0    0  0.58930682310E+02  0.52858095301E+01  0.12588702516E+03  0.13909819626E+03  0.00000000000E+00 0.  1.
         14    1    3    3    0    0 -0.61600900625E+01 -0.18833957776E+02  0.11509048338E+00  0.19816102566E+02  0.00000000000E+00 0. -1.
        -13    1    4    4    0    0 -0.32432349247E+02  0.45974612597E+02 -0.40776001251E+02  0.69485283040E+02  0.00000000000E+00 0.  1.
         13    1    4    4    0    0  0.20908722652E+02 -0.28877467943E+02  0.36876704825E+01  0.35842457384E+02  0.00000000000E+00 0. -1.
         -4    1    1    2    0  502 -0.41246965653E+02 -0.35489964083E+01  0.14876841116E+02  0.43991225860E+02  0.00000000000E+00 0.  1.
<scales pt_clust_5="13000.00000" pt_clust_6="13000.00000" pt_clust_7="13000.00000" pt_clust_8="13000.00000" pt_clust_9="13000.00000"></scales>
<clustering>
<clus scale="   80.056">  5  6 -1 -1</clus>
<clus scale="   96.402">  7  8 -1 -1</clus>
<clus scale="   41.399">  7  9 -1 -1</clus>
<clus scale="   96.836">  1  5  2 -1</clus>
<clus scale="  147.658">  2  5  1 -1</clus>
</clustering>
</event>
<event>
 9    2  0.4178938E-005  0.2749865E+03  0.7546771E-02  0.1109029E+00
         21   -1    0    0  501  502  0.00000000000E+00  0.00000000000E+00  0.16407885462E+03  0.16407885462E+03  0.00000000000E+00 0.  1.
          2   -1    0    0  502    0 -0.00000000000E+00 -0.00000000000E+00 -0.77143336640E+03  0.77143336640E+03  0.00000000000E+00 0. -1.
         24    2    1    2    0    0  0.16913348720E+03 -0.92633279835E+02  0.56541163256E+02  0.21691981766E+03  0.81671556395E+02 0.  0.
         23    2    1    2    0    0 -0.39482025885E+02  0.47345321450E+02 -0.13851369829E+03  0.17555766959E+03  0.88510117542E+02 0.  0.
        -13    1    3    3    0    0  0.16948251303E+03 -0.65517338932E+02  0.43554746485E+02  0.18685250832E+03  0.00000000000E+00 0.  1.
         14    1    3    3    0    0 -0.34902583116E+00 -0.27115940904E+02  0.12986416771E+02  0.30067309335E+02  0.00000000000E+00 0. -1.
        -13    1    4    4    0    0  0.18546627720E+02  0.38737859846E+02 -0.30618050084E+02  0.52745276340E+02  0.00000000000E+00 0. -1.
         13    1    4    4    0    0 -0.58028653605E+02  0.86074616035E+01 -0.10789564820E+03  0.12281239325E+03  0.00000000000E+00 0.  1.
          1    1    1    2  501    0 -0.12965146132E+03  0.45287958386E+02 -0.52538197674E+03  0.54303473377E+03  0.00000000000E+00 0. -1.
<scales pt_clust_5="13000.00000" pt_clust_6="13000.00000" pt_clust_7="13000.00000" pt_clust_8="13000.00000" pt_clust_9="13000.00000"></scales>
<clustering>
<clus scale="   81.672">  5  6 -1 -1</clus>
<clus scale="   88.510">  7  8 -1 -1</clus>
<clus scale="  137.334">  7  9 -1 -1</clus>
<clus scale="  209.421">  2  5  1 -1</clus>
<clus scale="  274.986">  1  5  2 -1</clus>
</clustering>
</event>
<event>
 9    2  0.4178938E-005  0.1774481E+03  0.7546771E-02  0.1202236E+00
         21   -1    0    0  501  502  0.00000000000E+00  0.00000000000E+00  0.27994244878E+02  0.27994244878E+02  0.00000000000E+00 0.  1.
         -3   -1    0    0    0  501 -0.00000000000E+00 -0.00000000000E+00 -0.78817399615E+03  0.78817399615E+03  0.00000000000E+00 0.  1.
         24    2    1    2    0    0  0.19744914851E+02 -0.27412734040E+02 -0.45386513571E+03  0.46216755976E+03  0.80398832275E+02 0.  0.
         23    2    1    2    0    0  0.13526167386E+02 -0.39734363316E+02 -0.12718897504E+03  0.15983144404E+03  0.87219712781E+02 0.  0.
        -13    1    3    3    0    0 -0.30903697243E+02 -0.40111821362E+01 -0.14618778231E+03  0.14947239137E+03  0.00000000000E+00 0.  1.
         14    1    3    3    0    0  0.50648612094E+02 -0.23401551904E+02 -0.30767735340E+03  0.31269516839E+03  0.00000000000E+00 0. -1.
        -11    1    4    4    0    0  0.49561021813E+02 -0.11288823839E+02 -0.69496460208E+02  0.86101628372E+02  0.00000000000E+00 0. -1.
         11    1    4    4    0    0 -0.36034854427E+02 -0.28445539477E+02 -0.57692514835E+02  0.73729815663E+02  0.00000000000E+00 0.  1.
         -4    1    1    2    0  502 -0.33271082237E+02  0.67147097356E+02 -0.17912564052E+03  0.19416923723E+03  0.00000000000E+00 0.  1.
<scales pt_clust_5="13000.00000" pt_clust_6="13000.00000" pt_clust_7="13000.00000" pt_clust_8="13000.00000" pt_clust_9="13000.00000"></scales>
<clustering>
<clus scale="   80.399">  5  6 -1 -1</clus>
<clus scale="   87.208">  2  5  1 -1</clus>
<clus scale="   87.220">  7  8 -1 -1</clus>
<clus scale="   56.183">  7  9 -1 -1</clus>
<clus scale="  177.448">  1  5  2 -1</clus>
</clustering>
</event>
<event>
 9    2  0.4178938E-005  0.3983256E+03  0.7546771E-02  0.1099561E+00
          2   -1    0    0  502    0 -0.00000000000E+00  0.00000000000E+00  0.12217948033E+04  0.12217948033E+04  0.00000000000E+00 0. -1.
         21   -1    0    0  501  502  0.00000000000E+00 -0.00000000000E+00 -0.49597671939E+02  0.49597671939E+02  0.00000000000E+00 0. -1.
         24    2    1    2    0    0  0.30612945522E+02 -0.21768606432E+02  0.14379825169E+03  0.16854728176E+03  0.79493549046E+02 0.  0.
         23    2    1    2    0    0 -0.13309031332E+03  0.54814456959E+02  0.96082503590E+03  0.97572374165E+03  0.90190987448E+02 0.  0.
        -11    1    3    3    0    0  0.27023402878E+02 -0.19687969281E+02  0.15397185922E+03  0.15756019126E+03  0.00000000000E+00 0.  1.
         12    1    3    3    0    0  0.35895426441E+01 -0.20806371503E+01 -0.10173607535E+02  0.10987090498E+02  0.00000000000E+00 0. -1.
        -13    1    4    4    0    0 -0.56273404540E+02  0.71550855015E+02  0.49120517911E+03  0.49956856276E+03  0.00000000000E+00 0.  1.
         13    1    4    4    0    0 -0.76816908780E+02 -0.16736398056E+02  0.46961985679E+03  0.47615517889E+03  0.00000000000E+00 0. -1.
          1    1    1    2  501    0  0.10247736780E+03 -0.33045850527E+02  0.67573843731E+02  0.12712145179E+03  0.00000000000E+00 0. -1.
<scales pt_clust_5="13000.00000" pt_clust_6="13000.00000" pt_clust_7="13000.00000" pt_clust_8="13000.00000" pt_clust_9="13000.00000"></scales>
<clustering>
<clus scale="   79.494">  5  6 -1 -1</clus>
<clus scale="   87.922">  1  5  2 -1</clus>
<clus scale="   90.191">  7  8 -1 -1</clus>
<clus scale="  110.951">  7  9 -1 -1</clus>
<clus scale="  398.326">  2  5  1 -1</clus>
</clustering>
</event>
<event>
 9    2  0.4178938E-005  0.4470393E+03  0.7546771E-02  0.1052918E+00
          2   -1    0    0  502    0 -0.00000000000E+00  0.00000000000E+00  0.16738772289E+04  0.16738772289E+04  0.00000000000E+00 0. -1.
         21   -1    0    0  501  502  0.00000000000E+00 -0.00000000000E+00 -0.12954206977E+03  0.12954206977E+03  0.00000000000E+00 0.  1.
         24    2    1    2    0    0 -0.12336341843E+03 -0.16051878184E+03  0.27770127904E+02  0.22233939290E+03  0.87628838301E+02 0.  0.
         23    2    1    2    0    0 -0.41067797550E+02  0.10916312850E+03  0.17873840147E+03  0.23220811083E+03  0.91487911527E+02 0.  0.
        -11    1    3    3    0    0 -0.21265573286E+02 -0.98402730343E+02  0.19493685229E+02  0.10254426220E+03  0.00000000000E+00 0.  1.
         12    1    3    3    0    0 -0.10209784514E+03 -0.62116051494E+02  0.82764426752E+01  0.11979513070E+03  0.00000000000E+00 0. -1.
        -13    1    4    4    0    0 -0.53399191724E+02  0.86200792287E+02  0.17946900236E+03  0.20613387173E+03  0.00000000000E+00 0.  1.
         13    1    4    4    0    0  0.12331394174E+02  0.22962336217E+02 -0.73060089203E+00  0.26074239097E+02  0.00000000000E+00 0. -1.
          1    1    1    2  501    0  0.16443121598E+03  0.51355653335E+02  0.13378266298E+04  0.13488717950E+04  0.00000000000E+00 0. -1.
<scales pt_clust_5="13000.00000" pt_clust_6="13000.00000" pt_clust_7="13000.00000" pt_clust_8="13000.00000" pt_clust_9="13000.00000"></scales>
<clustering>
<clus scale="   87.629">  5  6 -1 -1</clus>
<clus scale="   91.488">  7  8 -1 -1</clus>
<clus scale="  172.264">  7  9 -1 -1</clus>
<clus scale="  220.598">  1  5  2 -1</clus>
<clus scale="  447.039">  2  5  1 -1</clus>
</clustering>
</event>
<event>
 9    2  0.4178938E-005  0.1783534E+03  0.7546771E-02  0.1200472E+00
         21   -1    0    0  501  502  0.00000000000E+00  0.00000000000E+00  0.54011576055E+02  0.54011576055E+02  0.00000000000E+00 0. -1.
          4   -1    0    0  502    0 -0.00000000000E+00 -0.00000000000E+00 -0.34266749593E+03  0.34266749593E+03  0.00000000000E+00 0. -1.
         24    2    1    2    0    0  0.36701080947E+01 -0.13438920307E+02 -0.13177994058E+03  0.15915009665E+03  0.88140378108E+02 0.  0.
         23    2    1    2    0    0  0.28736405006E+02 -0.47900646724E+02 -0.78511115153E+02  0.13286868436E+03  0.91486825012E+02 0.  0.
        -11    1    3    3    0    0 -0.33562026095E+02 -0.19370133400E+01 -0.16473919393E+02  0.37437302740E+02  0.00000000000E+00 0.  1.
         12    1    3    3    0    0  0.37232134190E+02 -0.11501906967E+02 -0.11530602118E+03  0.12171279391E+03  0.00000000000E+00 0. -1.
        -11    1    4    4    0    0  0.22666556967E+02 -0.10560390843E+02 -0.89938510191E+02  0.93350041644E+02  0.00000000000E+00 0.  1.
         11    1    4    4    0    0  0.60698480387E+01 -0.37340255881E+02  0.11427395038E+02  0.39518642712E+02  0.00000000000E+00 0. -1.
          3    1    1    2  501    0 -0.32406513101E+02  0.61339567031E+02 -0.78364864144E+02  0.10466029098E+03  0.00000000000E+00 0. -1.
<scales pt_clust_5="13000.00000" pt_clust_6="13000.00000" pt_clust_7="13000.00000" pt_clust_8="13000.00000" pt_clust_9="13000.00000"></scales>
<clustering>
<clus scale="   88.140">  5  6 -1 -1</clus>
<clus scale="   89.235">  2  5  1 -1</clus>
<clus scale="   91.487">  7  8 -1 -1</clus>
<clus scale="   63.080">  7  9 -1 -1</clus>
<clus scale="  178.353">  1  5  2 -1</clus>
</clustering>
</event>
<event>
 9    2  0.4178938E-005  0.1653706E+03  0.7546771E-02  0.1199440E+00
         -3   -1    0    0    0  501 -0.00000000000E+00  0.00000000000E+00  0.10190363989E+03  0.10190363989E+03  0.00000000000E+00 0.  1.
         21   -1    0    0  501  502  0.00000000000E+00 -0.00000000000E+00 -0.22569498626E+03  0.22569498626E+03  0.00000000000E+00 0. -1.
         24    2    1    2    0    0 -0.77152108890E+02  0.36785524277E+02 -0.11458135427E+03  0.16197176400E+03  0.76159982186E+02 0.  0.
         23    2    1    2    0    0  0.83618864733E+02  0.26978739510E+01  0.18904328293E+01  0.12410605892E+03  0.91647951754E+02 0.  0.
        -11    1    3    3    0    0 -0.45384428184E+02 -0.19717705851E+02 -0.54091754577E+02  0.73310655152E+02  0.00000000000E+00 0.  1.
         12    1    3    3    0    0 -0.31767680706E+02  0.56503230128E+02 -0.60489599688E+02  0.88661108851E+02  0.00000000000E+00 0. -1.
        -11    1    4    4    0    0 -0.10829551794E+02  0.21880347169E+02 -0.11171378355E+02  0.26848249080E+02  0.00000000000E+00 0. -1.
         11    1    4    4    0    0  0.94448416526E+02 -0.19182473218E+02  0.13061811184E+02  0.97257809838E+02  0.00000000000E+00 0.  1.
         -4    1    1    2    0  502 -0.64667558424E+01 -0.39483398228E+02 -0.11100424935E+02  0.41520803226E+02  0.00000000000E+00 0.  1.
<scales pt_clust_5="13000.00000" pt_clust_6="13000.00000" pt_clust_7="13000.00000" pt_clust_8="13000.00000" pt_clust_9="13000.00000"></scales>
<clustering>
<clus scale="   76.160">  5  6 -1 -1</clus>
<clus scale="   91.648">  7  8 -1 -1</clus>
<clus scale="   40.009">  7  9 -1 -1</clus>
<clus scale="  114.481">  1  5  2 -1</clus>
<clus scale="  165.371">  2  5  1 -1</clus>
</clustering>
</event>
<event>
 9    2  0.4178938E-005  0.2186571E+03  0.7546771E-02  0.1159311E+00
         21   -1    0    0  501  502  0.00000000000E+00  0.00000000000E+00  0.42580509033E+02  0.42580509033E+02  0.00000000000E+00 0.  1.
          2   -1    0    0  502    0 -0.00000000000E+00 -0.00000000000E+00 -0.71911160651E+03  0.71911160651E+03  0.00000000000E+00 0. -1.
         24    2    1    2    0    0 -0.28083715287E+02 -0.87887283894E+02 -0.16452592525E+03  0.20495140254E+03  0.80146288684E+02 0.  0.
         23    2    1    2    0    0  0.19117212477E+02 -0.89809951606E+01 -0.38749554392E+03  0.39873277270E+03  0.91590945919E+02 0.  0.
        -13    1    3    3    0    0  0.17313273523E+02 -0.50649550023E+02 -0.11956139180E+03  0.13099638456E+03  0.00000000000E+00 0.  1.
         14    1    3    3    0    0 -0.45396988810E+02 -0.37237733871E+02 -0.44964533449E+02  0.73955017985E+02  0.00000000000E+00 0. -1.
        -11    1    4    4    0    0 -0.26436680566E+02  0.25554342292E+02 -0.15875686691E+03  0.16295909082E+03  0.00000000000E+00 0.  1.
         11    1    4    4    0    0  0.45553893042E+02 -0.34535337452E+02 -0.22873867702E+03  0.23577368188E+03  0.00000000000E+00 0. -1.
          1    1    1    2  501    0  0.89665028107E+01  0.96868279054E+02 -0.12450962831E+03  0.15800794031E+03  0.00000000000E+00 0. -1.
<scales pt_clust_5="13000.00000" pt_clust_6="13000.00000" pt_clust_7="13000.00000" pt_clust_8="13000.00000" pt_clust_9="13000.00000"></scales>
<clustering>
<clus scale="   80.146">  5  6 -1 -1</clus>
<clus scale="   91.591">  7  8 -1 -1</clus>
<clus scale="   97.282">  7  9 -1 -1</clus>
<clus scale="  122.214">  2  5  1 -1</clus>
<clus scale="  218.657">  1  5  2 -1</clus>
</clustering>
</event>
<event>
 9    2  0.4178938E-005  0.6034893E+03  0.7546771E-02  0.1053131E+00
         21   -1    0    0  501  502  0.00000000000E+00  0.00000000000E+00  0.26901429712E+03  0.26901429712E+03  0.00000000000E+00 0. -1.
          2   -1    0    0  502    0 -0.00000000000E+00 -0.00000000000E+00 -0.49609439803E+03  0.49609439803E+03  0.00000000000E+00 0. -1.
         24    2    1    2    0    0  0.21475788137E+02  0.30667675145E+02 -0.12426668003E+03  0.15292412169E+03  0.80881786919E+02 0.  0.
         23    2    1    2    0    0  0.24839117701E+03  0.84469718171E+02 -0.14958683734E+03  0.31507760501E+03  0.89801810519E+02 0.  0.
        -11    1    3    3    0    0 -0.12918420576E+02  0.42758222403E+02 -0.35811700664E+02  0.57250581462E+02  0.00000000000E+00 0.  1.
         12    1    3    3    0    0  0.34394208713E+02 -0.12090547259E+02 -0.88454979362E+02  0.95673540229E+02  0.00000000000E+00 0. -1.
        -11    1    4    4    0    0  0.27147602404E+02 -0.79799862105E+01 -0.45714744596E+02  0.53763466868E+02  0.00000000000E+00 0.  1.
         11    1    4    4    0    0  0.22124357460E+03  0.92449704381E+02 -0.10387209274E+03  0.26131413814E+03  0.00000000000E+00 0. -1.
          1    1    1    2  501    0 -0.26986696514E+03 -0.11513739332E+03  0.46773416459E+02  0.29710696845E+03  0.00000000000E+00 0. -1.
<scales pt_clust_5="13000.00000" pt_clust_6="13000.00000" pt_clust_7="13000.00000" pt_clust_8="13000.00000" pt_clust_9="13000.00000"></scales>
<clustering>
<clus scale="   80.882">  5  6 -1 -1</clus>
<clus scale="   89.127">  2  5  1 -1</clus>
<clus scale="   89.802">  7  8 -1 -1</clus>
<clus scale="  282.358">  7  9 -1 -1</clus>
<clus scale="  603.489">  1  5  2 -1</clus>
</clustering>
</event>
<event>
 9    2  0.4178938E-005  0.5604140E+03  0.7546771E-02  0.1057996E+00
          2   -1    0    0  502    0 -0.00000000000E+00  0.00000000000E+00  0.13660778087E+04  0.13660778087E+04  0.00000000000E+00 0. -1.
         21   -1    0    0  501  502  0.00000000000E+00 -0.00000000000E+00 -0.97958508507E+02  0.97958508507E+02  0.00000000000E+00 0. -1.
         24    2    1    2    0    0  0.21737123123E+02 -0.98525410115E+01  0.24628946513E+02  0.10009639252E+03  0.94037905673E+02 0.  0.
         23    2    1    2    0    0 -0.14442015978E+03  0.13271434243E+03  0.11448850810E+04  0.11642673188E+04  0.79285949166E+02 0.  0.
        -13    1    3    3    0    0 -0.30386114995E+02 -0.23729174126E+02  0.25370537111E+02  0.46152506351E+02  0.00000000000E+00 0.  1.
         14    1    3    3    0    0  0.52123238118E+02  0.13876633114E+02 -0.74159059870E+00  0.53943886170E+02  0.00000000000E+00 0. -1.
        -11    1    4    4    0    0 -0.12187226802E+03  0.60823150235E+02  0.74144364249E+03  0.75385076793E+03  0.00000000000E+00 0. -1.
         11    1    4    4    0    0 -0.22547891761E+02  0.71891192191E+02  0.40344143849E+03  0.41041655087E+03  0.00000000000E+00 0.  1.
          1    1    1    2  501    0  0.12268303666E+03 -0.12286180141E+03  0.98605272667E+02  0.19967260585E+03  0.00000000000E+00 0. -1.
<scales pt_clust_5="13000.00000" pt_clust_6="13000.00000" pt_clust_7="13000.00000" pt_clust_8="13000.00000" pt_clust_9="13000.00000"></scales>
<clustering>
<clus scale="   79.286">  7  8 -1 -1</clus>
<clus scale="   94.038">  5  6 -1 -1</clus>
<clus scale="   97.019">  1  5  2 -1</clus>
<clus scale="  176.184">  7  9 -1 -1</clus>
<clus scale="  560.414">  2  5  1 -1</clus>
</clustering>
</event>
<event>
 9    2  0.4178938E-005  0.3078765E+03  0.7546771E-02  0.1128905E+00
         21   -1    0    0  501  502  0.00000000000E+00  0.00000000000E+00  0.18054403405E+03  0.18054403405E+03  0.00000000000E+00 0.  1.
          2   -1    0    0  502    0 -0.00000000000E+00 -0.00000000000E+00 -0.39660117111E+03  0.39660117111E+03  0.00000000000E+00 0. -1.
         24    2    1    2    0    0  0.40108391400E+02  0.66512982983E+01  0.10063440036E+03  0.13546495636E+03  0.81058923231E+02 0.  0.
         23    2    1    2    0    0 -0.61559079203E+00 -0.55620104247E+02  0.12828883908E+02  0.10620844175E+03  0.89563820201E+02 0.  0.
        -11    1    3    3    0    0  0.11032528849E+02 -0.35504415469E+02  0.57684307346E+02  0.68627687740E+02  0.00000000000E+00 0.  1.
         12    1    3    3    0    0  0.29075862550E+02  0.42155713767E+02  0.42950093012E+02  0.66837268616E+02  0.00000000000E+00 0. -1.
        -13    1    4    4    0    0 -0.37679447052E+02 -0.16894859140E+02  0.28719321988E+02  0.50298871269E+02  0.00000000000E+00 0.  1.
         13    1    4    4    0    0  0.37063856260E+02 -0.38725245107E+02 -0.15890438079E+02  0.55909570485E+02  0.00000000000E+00 0. -1.
          1    1    1    2  501    0 -0.39492800608E+02  0.48968805949E+02 -0.32952042132E+03  0.33547180705E+03  0.00000000000E+00 0. -1.
<scales pt_clust_5="13000.00000" pt_clust_6="13000.00000" pt_clust_7="13000.00000" pt_clust_8="13000.00000" pt_clust_9="13000.00000"></scales>
<clustering>
<clus scale="   81.059">  5  6 -1 -1</clus>
<clus scale="   89.564">  7  8 -1 -1</clus>
<clus scale="   62.910">  7  9 -1 -1</clus>
<clus scale="   90.683">  2  5  1 -1</clus>
<clus scale="  307.876">  1  5  2 -1</clus>
</clustering>
</event>
<event>
 9    2  0.4178938E-005  0.3379926E+03  0.7546771E-02  0.1117027E+00
         21   -1    0    0  501  502  0.00000000000E+00  0.00000000000E+00  0.14417721076E+03  0.14417721076E+03  0.00000000000E+00 0.  1.
          2   -1    0    0  502    0 -0.00000000000E+00 -0.00000000000E+00 -0.32191693538E+03  0.32191693538E+03  0.00000000000E+00 0. -1.
         24    2    1    2    0    0 -0.30047937102E+02 -0.22383151859E+02 -0.26717600636E+02  0.95895945487E+02  0.84132741342E+02 0.  0.
         23    2    1    2    0    0 -0.62445016440E+02  0.34912494559E+02  0.68106142218E+02  0.13201942760E+03  0.87592352979E+02 0.  0.
        -13    1    3    3    0    0 -0.19664355405E+02  0.31267865202E+02 -0.58356703279E+01  0.37395471865E+02  0.00000000000E+00 0.  1.
         14    1    3    3    0    0 -0.10383581698E+02 -0.53651017062E+02 -0.20881930308E+02  0.58500473622E+02  0.00000000000E+00 0. -1.
        -11    1    4    4    0    0  0.19532130702E+02  0.23098879784E+02  0.19376436488E+02  0.35923650539E+02  0.00000000000E+00 0. -1.
         11    1    4    4    0    0 -0.81977147142E+02  0.11813614775E+02  0.48729705730E+02  0.96095777057E+02  0.00000000000E+00 0.  1.
          1    1    1    2  501    0  0.92492953543E+02 -0.12529342700E+02 -0.21912826621E+03  0.23817877306E+03  0.00000000000E+00 0. -1.
<scales pt_clust_5="13000.00000" pt_clust_6="13000.00000" pt_clust_7="13000.00000" pt_clust_8="13000.00000" pt_clust_9="13000.00000"></scales>
<clustering>
<clus scale="   84.133">  5  6 -1 -1</clus>
<clus scale="   87.592">  7  8 -1 -1</clus>
<clus scale="   92.099">  2  5  1 -1</clus>
<clus scale="   73.538">  7  9 -1 -1</clus>
<clus scale="  337.993">  1  5  2 -1</clus>
</clustering>
</event>
<event>
 9    2  0.4178938E-005  0.3519552E+03  0.7546771E-02  0.1093667E+00
         21   -1    0    0  501  502  0.00000000000E+00  0.00000000000E+00  0.23543928155E+03  0.23543928155E+03  0.00000000000E+00 0. -1.
          4   -1    0    0  502    0 -0.00000000000E+00 -0.00000000000E+00 -0.47262938002E+03  0.47262938002E+03  0.00000000000E+00 0. -1.
         24    2    1    2    0    0 -0.85752019623E+02  0.91510088613E+02  0.13141849539E+03  0.19841707269E+03  0.79818598189E+02 0.  0.
         23    2    1    2    0    0  0.16167142775E+03  0.48768115107E+02 -0.21840639176E+03  0.29055701459E+03  0.90587235099E+02 0.  0.
        -13    1    3    3    0    0 -0.35206754698E+02  0.36636895477E+00  0.66235968537E+01  0.35826273011E+02  0.00000000000E+00 0.  1.
         14    1    3    3    0    0 -0.50545264925E+02  0.91143719658E+02  0.12479489854E+03  0.16259079968E+03  0.00000000000E+00 0. -1.
        -13    1    4    4    0    0  0.26590916223E+02  0.46387492753E+02 -0.86821061403E+02  0.10196456744E+03  0.00000000000E+00 0.  1.
         13    1    4    4    0    0  0.13508051153E+03  0.23806223545E+01 -0.13158533036E+03  0.18859244716E+03  0.00000000000E+00 0. -1.
          3    1    1    2  501    0 -0.75919408130E+02 -0.14027820372E+03 -0.15020220210E+03  0.21909457429E+03  0.00000000000E+00 0. -1.
<scales pt_clust_5="13000.00000" pt_clust_6="13000.00000" pt_clust_7="13000.00000" pt_clust_8="13000.00000" pt_clust_9="13000.00000"></scales>
<clustering>
<clus scale="   79.819">  5  6 -1 -1</clus>
<clus scale="   90.587">  7  8 -1 -1</clus>
<clus scale="  148.656">  2  5  1 -1</clus>
<clus scale="  151.334">  7  9 -1 -1</clus>
<clus scale="  351.955">  1  5  2 -1</clus>
</clustering>
</event>
<event>
 9    2  0.4178938E-005  0.2110110E+03  0.7546771E-02  0.1176549E+00
         21   -1    0    0  501  502  0.00000000000E+00  0.00000000000E+00  0.37850161350E+03  0.37850161350E+03  0.00000000000E+00 0.  1.
         -3   -1    0    0    0  501 -0.00000000000E+00 -0.00000000000E+00 -0.60507846115E+02  0.60507846115E+02  0.00000000000E+00 0.  1.
         24    2    1    2    0    0 -0.18909756368E+02 -0.10999655207E+02  0.10189198727E+03  0.13697366569E+03  0.88888901008E+02 0.  0.
         23    2    1    2    0    0 -0.11798717896E+02 -0.61690654753E+02  0.18875317973E+03  0.21852030137E+03  0.90434576491E+02 0.  0.
        -11    1    3    3    0    0 -0.48213473660E+02  0.51330097459E+01  0.28311893280E+02  0.56146684074E+02  0.00000000000E+00 0.  1.
         12    1    3    3    0    0  0.29303717293E+02 -0.16132664953E+02  0.73580093991E+02  0.80826981617E+02  0.00000000000E+00 0. -1.
        -11    1    4    4    0    0  0.35882051582E+02 -0.37916019872E+02  0.62163883370E+02  0.81175701933E+02  0.00000000000E+00 0. -1.
         11    1    4    4    0    0 -0.47680769478E+02 -0.23774634881E+02  0.12658929636E+03  0.13734459944E+03  0.00000000000E+00 0.  1.
         -4    1    1    2    0  502  0.30708474264E+02  0.72690309959E+02  0.27348600385E+02  0.83515492555E+02  0.00000000000E+00 0.  1.
<scales pt_clust_5="13000.00000" pt_clust_6="13000.00000" pt_clust_7="13000.00000" pt_clust_8="13000.00000" pt_clust_9="13000.00000"></scales>
<clustering>
<clus scale="   88.889">  5  6 -1 -1</clus>
<clus scale="   90.435">  7  8 -1 -1</clus>
<clus scale="   78.911">  7  9 -1 -1</clus>
<clus scale="   91.541">  2  5  1 -1</clus>
<clus scale="  211.011">  1  5  2 -1</clus>
</clustering>
</event>
<event>
 9    2  0.4178938E-005  0.1918341E+03  0.7546771E-02  0.1185410E+00
         21   -1    0    0  501  502  0.00000000000E+00  0.00000000000E+00  0.81266911846E+02  0.81266911846E+02  0.00000000000E+00 0.  1.
         -1   -1    0    0    0  501 -0.00000000000E+00 -0.00000000000E+00 -0.26564879288E+03  0.26564879288E+03  0.00000000000E+00 0.  1.
         24    2    1    2    0    0 -0.52137616063E+02 -0.22494786846E+02 -0.83510039343E+02  0.13017748291E+03  0.82145626436E+02 0.  0.
         23    2    1    2    0    0  0.36676925876E+02 -0.78569674535E+01  0.98344307309E+01  0.10091015663E+03  0.93162303827E+02 0.  0.
        -13    1    3    3    0    0 -0.58098412710E+02 -0.46441611506E+02 -0.69520976030E+02  0.10181068189E+03  0.00000000000E+00 0.  1.
         14    1    3    3    0    0  0.59607966462E+01  0.23946824660E+02 -0.13989063313E+02  0.28366801023E+02  0.00000000000E+00 0. -1.
        -13    1    4    4    0    0  0.55864469760E+02  0.25815656920E+02  0.85605382814E+01  0.62133484849E+02  0.00000000000E+00 0.  1.
         13    1    4    4    0    0 -0.19187543885E+02 -0.33672624374E+02  0.12738924495E+01  0.38776671783E+02  0.00000000000E+00 0. -1.
         -2    1    1    2    0  502  0.15460690188E+02  0.30351754300E+02 -0.11070627242E+03  0.11582806518E+03  0.00000000000E+00 0.  1.
<scales pt_clust_5="13000.00000" pt_clust_6="13000.00000" pt_clust_7="13000.00000" pt_clust_8="13000.00000" pt_clust_9="13000.00000"></scales>
<clustering>
<clus scale="   82.146">  5  6 -1 -1</clus>
<clus scale="   93.162">  7  8 -1 -1</clus>
<clus scale="   34.063">  7  9 -1 -1</clus>
<clus scale="   99.861">  2  5  1 -1</clus>
<clus scale="  191.834">  1  5  2 -1</clus>
</clustering>
</event>
<event>
 9    2  0.4178938E-005  0.3321229E+03  0.7546771E-02  0.1107190E+00
         21   -1    0    0  501  502  0.00000000000E+00  0.00000000000E+00  0.30537580811E+03  0.30537580811E+03  0.00000000000E+00 0. -1.
          2   -1    0    0  502    0 -0.00000000000E+00 -0.00000000000E+00 -0.17347021225E+03  0.17347021225E+03  0.00000000000E+00 0. -1.
         24    2    1    2    0    0  0.55185600587E+02 -0.77421813937E+02  0.97443056769E+01  0.12496895305E+03  0.80515215630E+02 0.  0.
         23    2    1    2    0    0  0.48197113865E+02 -0.46537670462E+02 -0.44524699942E+02  0.12184655482E+03  0.91517306891E+02 0.  0.
        -11    1    3    3    0    0  0.43313280181E+02  0.26110099576E+01  0.74570793657E+01  0.44028009786E+02  0.00000000000E+00 0.  1.
         12    1    3    3    0    0  0.11872320406E+02 -0.80032823895E+02  0.22872263111E+01  0.80940943265E+02  0.00000000000E+00 0. -1.
        -11    1    4    4    0    0 -0.21315337059E+02 -0.35252842195E+02 -0.27067517819E+02  0.49292565339E+02  0.00000000000E+00 0.  1.
         11    1    4    4    0    0  0.69512450924E+02 -0.11284828266E+02 -0.17457182123E+02  0.72553989485E+02  0.00000000000E+00 0. -1.
          1    1    1    2  501    0 -0.10338271445E+03  0.12395948440E+03  0.16668599012E+03  0.23203051248E+03  0.00000000000E+00 0. -1.
<scales pt_clust_5="13000.00000" pt_clust_6="13000.00000" pt_clust_7="13000.00000" pt_clust_8="13000.00000" pt_clust_9="13000.00000"></scales>
<clustering>
<clus scale="   80.515">  5  6 -1 -1</clus>
<clus scale="   91.517">  7  8 -1 -1</clus>
<clus scale="  124.588">  2  5  1 -1</clus>
<clus scale="  134.693">  7  9 -1 -1</clus>
<clus scale="  332.123">  1  5  2 -1</clus>
</clustering>
</event>
<event>
 9    2  0.4178938E-005  0.2695138E+03  0.7546771E-02  0.1148880E+00
          2   -1    0    0  502    0 -0.00000000000E+00  0.00000000000E+00  0.11266954499E+04  0.11266954499E+04  0.00000000000E+00 0. -1.
         21   -1    0    0  501  502  0.00000000000E+00 -0.00000000000E+00 -0.44353988044E+02  0.44353988044E+02  0.00000000000E+00 0.  1.
         24    2    1    2    0    0  0.15400959557E+02 -0.60872220985E+01  0.69019437583E+03  0.69521642989E+03  0.81751844864E+02 0.  0.
         23    2    1    2    0    0  0.83448832402E+02  0.50751045496E+02  0.12682023655E+03  0.18918954389E+03  0.10084609498E+03 0.  0.
        -13    1    3    3    0    0 -0.27161182992E+02 -0.19239519783E+01  0.10539890703E+03  0.10885936365E+03  0.00000000000E+00 0.  1.
         14    1    3    3    0    0  0.42562142549E+02 -0.41632701201E+01  0.58479546880E+03  0.58635706624E+03  0.00000000000E+00 0. -1.
        -11    1    4    4    0    0  0.10304062442E+03  0.31810329216E+02  0.77353069577E+02  0.13271309167E+03  0.00000000000E+00 0.  1.
         11    1    4    4    0    0 -0.19591792023E+02  0.18940716279E+02  0.49467166973E+02  0.56476452227E+02  0.00000000000E+00 0. -1.
          1    1    1    2  501    0 -0.98849791959E+02 -0.44663823397E+02  0.26532684948E+03  0.28664346416E+03  0.00000000000E+00 0. -1.
<scales pt_clust_5="13000.00000" pt_clust_6="13000.00000" pt_clust_7="13000.00000" pt_clust_8="13000.00000" pt_clust_9="13000.00000"></scales>
<clustering>
<clus scale="   81.752">  5  6 -1 -1</clus>
<clus scale="   83.412">  1  5  2 -1</clus>
<clus scale="  100.846">  7  8 -1 -1</clus>
<clus scale="  101.423">  7  9 -1 -1</clus>
<clus scale="  269.514">  2  5  1 -1</clus>
</clustering>
</event>
<event>
 9    2  0.4178938E-005  0.3288352E+03  0.7546771E-02  0.1119964E+00
         21   -1    0    0  501  502  0.00000000000E+00  0.00000000000E+00  0.20116281189E+03  0.20116281189E+03  0.00000000000E+00 0.  1.
          2   -1    0    0  502    0 -0.00000000000E+00 -0.00000000000E+00 -0.22730974734E+03  0.22730974734E+03  0.00000000000E+00 0. -1.
         24    2    1    2    0    0 -0.14829117236E+02  0.50098701758E+02 -0.35620601036E+02  0.99500897233E+02  0.76823295270E+02 0.  0.
         23    2    1    2    0    0  0.70885584042E+02 -0.29567663040E+02  0.14040222632E+03  0.18507538324E+03  0.92957515038E+02 0.  0.
        -13    1    3    3    0    0 -0.34410442167E+02  0.19067636692E+02 -0.46804360833E+02  0.61141651041E+02  0.00000000000E+00 0.  1.
         14    1    3    3    0    0  0.19581324931E+02  0.31031065066E+02  0.11183759797E+02  0.38359246192E+02  0.00000000000E+00 0. -1.
        -13    1    4    4    0    0 -0.44062663497E+01  0.22889174373E+02  0.94051891213E+01  0.25135374854E+02  0.00000000000E+00 0. -1.
         13    1    4    4    0    0  0.75291850392E+02 -0.52456837413E+02  0.13099703720E+03  0.15994000839E+03  0.00000000000E+00 0.  1.
          1    1    1    2  501    0 -0.56056466806E+02 -0.20531038719E+02 -0.13092856075E+03  0.14389627876E+03  0.00000000000E+00 0. -1.
<scales pt_clust_5="13000.00000" pt_clust_6="13000.00000" pt_clust_7="13000.00000" pt_clust_8="13000.00000" pt_clust_9="13000.00000"></scales>
<clustering>
<clus scale="   76.823">  5  6 -1 -1</clus>
<clus scale="   92.906">  2  5  1 -1</clus>
<clus scale="   92.958">  7  8 -1 -1</clus>
<clus scale="   72.417">  7  9 -1 -1</clus>
<clus scale="  328.835">  1  5  2 -1</clus>
</clustering>
</event>
<event>
 9    2  0.4178938E-005  0.3708759E+03  0.7546771E-02  0.1074982E+00
         21   -1    0    0  501  502  0.00000000000E+00  0.00000000000E+00  0.83054863802E+02  0.83054863802E+02  0.00000000000E+00 0.  1.
          2   -1    0    0  502    0 -0.00000000000E+00 -0.00000000000E+00 -0.14484788450E+04  0.14484788450E+04  0.00000000000E+00 0. -1.
         24    2    1    2    0    0 -0.15120685814E+01 -0.19287247891E+03 -0.14149726111E+03  0.25264921260E+03  0.81290037848E+02 0.  0.
         23    2    1    2    0    0  0.59865736388E+02 -0.21546616858E+02 -0.18155402720E+03  0.21308830084E+03  0.91632942056E+02 0.  0.
        -13    1    3    3    0    0 -0.29792742868E+02 -0.11882767752E+03 -0.11771751833E+03  0.16989714122E+03  0.00000000000E+00 0.  1.
         14    1    3    3    0    0  0.28280674286E+02 -0.74044801384E+02 -0.23779742772E+02  0.82752071372E+02  0.00000000000E+00 0. -1.
        -13    1    4    4    0    0  0.62567231500E+02  0.18632593347E+02 -0.76432691578E+02  0.10051760211E+03  0.00000000000E+00 0.  1.
         13    1    4    4    0    0 -0.27014951124E+01 -0.40179210205E+02 -0.10512133562E+03  0.11257069873E+03  0.00000000000E+00 0. -1.
          1    1    1    2  501    0 -0.58353667806E+02  0.21441909577E+03 -0.10423726929E+04  0.10657961954E+04  0.00000000000E+00 0. -1.
<scales pt_clust_5="13000.00000" pt_clust_6="13000.00000" pt_clust_7="13000.00000" pt_clust_8="13000.00000" pt_clust_9="13000.00000"></scales>
<clustering>
<clus scale="   81.290">  5  6 -1 -1</clus>
<clus scale="   91.633">  7  8 -1 -1</clus>
<clus scale="  209.309">  2  5  1 -1</clus>
<clus scale="   79.089">  7  9 -1 -1</clus>
<clus scale="  370.876">  1  5  2 -1</clus>
</clustering>
</event>
<event>
 9    2  0.4178938E-005  0.3420159E+03  0.7546771E-02  0.1097987E+00
         21   -1    0    0  501  502  0.00000000000E+00  0.00000000000E+00  0.12313850594E+03  0.12313850594E+03  0.00000000000E+00 0.  1.
          2   -1    0    0  502    0 -0.00000000000E+00 -0.00000000000E+00 -0.48729116833E+03  0.48729116833E+03  0.00000000000E+00 0. -1.
         24    2    1    2    0    0 -0.82301463057E+02  0.86877019962E+02 -0.77300762881E+02  0.16404541525E+03  0.81328610609E+02 0.  0.
         23    2    1    2    0    0 -0.85268870602E+02  0.41358883204E+02 -0.10505398751E+03  0.16786182835E+03  0.90332251230E+02 0.  0.
        -13    1    3    3    0    0 -0.31779546754E+02  0.18564229194E+01  0.86813380447E+01  0.32996235061E+02  0.00000000000E+00 0.  1.
         14    1    3    3    0    0 -0.50521916303E+02  0.85020597043E+02 -0.85982100926E+02  0.13104918019E+03  0.00000000000E+00 0. -1.
        -11    1    4    4    0    0 -0.33898765060E+02  0.47636099389E+02 -0.95556078930E+01  0.59242163024E+02  0.00000000000E+00 0.  1.
         11    1    4    4    0    0 -0.51370105542E+02 -0.62772161850E+01 -0.95498379617E+02  0.10861966533E+03  0.00000000000E+00 0. -1.
          1    1    1    2  501    0  0.16757033366E+03 -0.12823590317E+03 -0.18179791200E+03  0.27852243068E+03  0.00000000000E+00 0. -1.
<scales pt_clust_5="13000.00000" pt_clust_6="13000.00000" pt_clust_7="13000.00000" pt_clust_8="13000.00000" pt_clust_9="13000.00000"></scales>
<clustering>
<clus scale="   81.329">  5  6 -1 -1</clus>
<clus scale="   90.332">  7  8 -1 -1</clus>
<clus scale="  144.691">  2  5  1 -1</clus>
<clus scale="  137.347">  7  9 -1 -1</clus>
<clus scale="  342.016">  1  5  2 -1</clus>
</clustering>
</event>
<event>
 9    2  0.4178938E-005  0.5610273E+03  0.7546771E-02  0.1060749E+00
         21   -1    0    0  501  502  0.00000000000E+00  0.00000000000E+00  0.50575806812E+02  0.50575806812E+02  0.00000000000E+00 0.  1.
          2   -1    0    0  502    0 -0.00000000000E+00 -0.00000000000E+00 -0.22079380963E+04  0.22079380963E+04  0.00000000000E+00 0. -1.
         24    2    1    2    0    0  0.32613805266E+02 -0.16335502652E+02 -0.52134502751E+03  0.52897520662E+03  0.81753425372E+02 0.  0.
         23    2    1    2    0    0  0.65306948443E+02 -0.16696722520E+03 -0.21768182358E+03  0.29605909083E+03  0.90125230328E+02 0.  0.
        -13    1    3    3    0    0  0.47102091924E+02  0.19409416536E+02 -0.29326025427E+03  0.29765232949E+03  0.00000000000E+00 0.  1.
         14    1    3    3    0    0 -0.14488286658E+02 -0.35744919187E+02 -0.22808477324E+03  0.23132287713E+03  0.00000000000E+00 0. -1.
        -11    1    4    4    0    0  0.19332156722E+02 -0.49191701583E+02 -0.13503899567E+03  0.14501408945E+03  0.00000000000E+00 0. -1.
         11    1    4    4    0    0  0.45974791721E+02 -0.11777552362E+03 -0.82642827910E+02  0.15104500138E+03  0.00000000000E+00 0.  1.
          1    1    1    2  501    0 -0.97920753709E+02  0.18330272785E+03 -0.14183354384E+04  0.14334796056E+04  0.00000000000E+00 0. -1.
<scales pt_clust_5="13000.00000" pt_clust_6="13000.00000" pt_clust_7="13000.00000" pt_clust_8="13000.00000" pt_clust_9="13000.00000"></scales>
<clustering>
<clus scale="   81.753">  5  6 -1 -1</clus>
<clus scale="   89.522">  2  5  1 -1</clus>
<clus scale="   90.125">  7  8 -1 -1</clus>
<clus scale="  183.458">  7  9 -1 -1</clus>
<clus scale="  561.027">  1  5  2 -1</clus>
</clustering>
</event>
<event>
 9    2  0.4178938E-005  0.3217914E+03  0.7546771E-02  0.1126950E+00
         21   -1    0    0  501  502  0.00000000000E+00  0.00000000000E+00  0.39880480025E+02  0.39880480025E+02  0.00000000000E+00 0. -1.
          4   -1    0    0  502    0 -0.00000000000E+00 -0.00000000000E+00 -0.12964050517E+04  0.12964050517E+04  0.00000000000E+00 0. -1.
         24    2    1    2    0    0  0.16448120063E+01  0.22986384543E+02 -0.59321965702E+03  0.59904534673E+03  0.80091739195E+02 0.  0.
         23    2    1    2    0    0  0.10210286590E+03  0.76492210047E+02 -0.47906661011E+03  0.50356664281E+03  0.88309078848E+02 0.  0.
        -13    1    3    3    0    0  0.34713991434E+02  0.26912651239E+02 -0.21994215768E+03  0.22428531990E+03  0.00000000000E+00 0.  1.
         14    1    3    3    0    0 -0.33069179428E+02 -0.39262666960E+01 -0.37327749934E+03  0.37476002683E+03  0.00000000000E+00 0. -1.
        -11    1    4    4    0    0  0.67743398010E+02  0.49088034706E+01 -0.14391558284E+03  0.15913817678E+03  0.00000000000E+00 0.  1.
         11    1    4    4    0    0  0.34359467889E+02  0.71583406576E+02 -0.33515102727E+03  0.34442846603E+03  0.00000000000E+00 0. -1.
          3    1    1    2  501    0 -0.10374767791E+03 -0.99478594590E+02 -0.18423830453E+03  0.23367354217E+03  0.00000000000E+00 0. -1.
<scales pt_clust_5="13000.00000" pt_clust_6="13000.00000" pt_clust_7="13000.00000" pt_clust_8="13000.00000" pt_clust_9="13000.00000"></scales>
<clustering>
<clus scale="   80.092">  5  6 -1 -1</clus>
<clus scale="   83.341">  2  5  1 -1</clus>
<clus scale="   88.309">  7  8 -1 -1</clus>
<clus scale="  138.710">  7  9 -1 -1</clus>
<clus scale="  321.791">  1  5  2 -1</clus>
</clustering>
</event>
<event>
 9    2  0.4178938E-005  0.4611832E+03  0.7546771E-02  0.1083242E+00
         21   -1    0    0  501  502  0.00000000000E+00  0.00000000000E+00  0.75292960538E+02  0.75292960538E+02  0.00000000000E+00 0. -1.
          2   -1    0    0  502    0 -0.00000000000E+00 -0.00000000000E+00 -0.12017637907E+04  0.12017637907E+04  0.00000000000E+00 0. -1.
         24    2    1    2    0    0 -0.21393810655E+02 -0.16601036489E+02 -0.38233409785E+02  0.95130095290E+02  0.82792824926E+02 0.  0.
         23    2    1    2    0    0 -0.12381416475E+03 -0.99786341170E+01 -0.10361383371E+03  0.18629849120E+03  0.92421754785E+02 0.  0.
        -11    1    3    3    0    0  0.21261084101E+02  0.23453137647E+01  0.13625240057E+02  0.25361020492E+02  0.00000000000E+00 0.  1.
         12    1    3    3    0    0 -0.42654894756E+02 -0.18946350254E+02 -0.51858649842E+02  0.69769074797E+02  0.00000000000E+00 0. -1.
        -11    1    4    4    0    0 -0.42742291994E+02  0.21378038867E+02  0.40066991643E+01  0.47958082832E+02  0.00000000000E+00 0. -1.
         11    1    4    4    0    0 -0.81071872753E+02 -0.31356672984E+02 -0.10762053287E+03  0.13834040837E+03  0.00000000000E+00 0.  1.
          1    1    1    2  501    0  0.14520797540E+03  0.26579670606E+02 -0.98462358664E+03  0.99562816471E+03  0.00000000000E+00 0. -1.
<scales pt_clust_5="13000.00000" pt_clust_6="13000.00000" pt_clust_7="13000.00000" pt_clust_8="13000.00000" pt_clust_9="13000.00000"></scales>
<clustering>
<clus scale="   82.793">  5  6 -1 -1</clus>
<clus scale="   87.109">  2  5  1 -1</clus>
<clus scale="   92.422">  7  8 -1 -1</clus>
<clus scale="  127.123">  7  9 -1 -1</clus>
<clus scale="  461.183">  1  5  2 -1</clus>
</clustering>
</event>
<event>
 9    2  0.4178938E-005  0.2320871E+03  0.7546771E-02  0.1164554E+00
         21   -1    0    0  501  502  0.00000000000E+00  0.00000000000E+00  0.49291544806E+02  0.49291544806E+02  0.00000000000E+00 0. -1.
          2   -1    0    0  502    0 -0.00000000000E+00 -0.00000000000E+00 -0.10023443659E+04  0.10023443659E+04  0.00000000000E+00 0. -1.
         24    2    1    2    0    0 -0.21396513966E+02  0.12273302610E+02 -0.70935780768E+03  0.71510703853E+03  0.87069698953E+02 0.  0.
         23    2    1    2    0    0 -0.10515910782E+02 -0.80712718262E+02 -0.22772106816E+03  0.25934387757E+03  0.93686897067E+02 0.  0.
        -11    1    3    3    0    0  0.17493804660E+02 -0.23841607814E+02 -0.12987879280E+03  0.13320268873E+03  0.00000000000E+00 0.  1.
         12    1    3    3    0    0 -0.38890318626E+02  0.36114910424E+02 -0.57947901488E+03  0.58190434980E+03  0.00000000000E+00 0. -1.
        -13    1    4    4    0    0 -0.50510689332E+02 -0.28196315262E+02 -0.11454020188E+03  0.12831921048E+03  0.00000000000E+00 0. -1.
         13    1    4    4    0    0  0.39994778551E+02 -0.52516402999E+02 -0.11318086628E+03  0.13102466709E+03  0.00000000000E+00 0.  1.
          1    1    1    2  501    0  0.31912424748E+02  0.68439415652E+02 -0.15973945284E+02  0.77184994630E+02  0.00000000000E+00 0. -1.
<scales pt_clust_5="13000.00000" pt_clust_6="13000.00000" pt_clust_7="13000.00000" pt_clust_8="13000.00000" pt_clust_9="13000.00000"></scales>
<clustering>
<clus scale="   87.070">  5  6 -1 -1</clus>
<clus scale="   90.496">  2  5  1 -1</clus>
<clus scale="   93.687">  7  8 -1 -1</clus>
<clus scale="   75.951">  7  9 -1 -1</clus>
<clus scale="  232.087">  1  5  2 -1</clus>
</clustering>
</event>
<event>
 9    2  0.4178938E-005  0.2995672E+03  0.7546771E-02  0.1121351E+00
          2   -1    0    0  502    0 -0.00000000000E+00  0.00000000000E+00  0.39498217904E+03  0.39498217904E+03  0.00000000000E+00 0. -1.
         21   -1    0    0  501  502  0.00000000000E+00 -0.00000000000E+00 -0.12479618983E+03  0.12479618983E+03  0.00000000000E+00 0. -1.
         24    2    1    2    0    0 -0.14135429054E+02 -0.84272144878E+02  0.35774092584E+01  0.11875385690E+03  0.82389780399E+02 0.  0.
         23    2    1    2    0    0  0.77123882453E+01 -0.82090008401E+02  0.61787720598E+02  0.13707526320E+03  0.90408268169E+02 0.  0.
        -13    1    3    3    0    0 -0.40128261259E+02 -0.79503024938E+02  0.14370233062E+02  0.90208158856E+02  0.00000000000E+00 0.  1.
         14    1    3    3    0    0  0.25992832205E+02 -0.47691199403E+01 -0.10792823803E+02  0.28545698042E+02  0.00000000000E+00 0. -1.
        -13    1    4    4    0    0 -0.38749615997E+02 -0.23663826931E+02  0.10784875162E+02  0.46667150943E+02  0.00000000000E+00 0.  1.
         13    1    4    4    0    0  0.46462004242E+02 -0.58426181471E+02  0.51002845436E+02  0.90408112258E+02  0.00000000000E+00 0. -1.
          1    1    1    2  501    0  0.64230408087E+01  0.16636215328E+03  0.20482085936E+03  0.26394924877E+03  0.00000000000E+00 0. -1.
<scales pt_clust_5="13000.00000" pt_clust_6="13000.00000" pt_clust_7="13000.00000" pt_clust_8="13000.00000" pt_clust_9="13000.00000"></scales>
<clustering>
<clus scale="   82.390">  5  6 -1 -1</clus>
<clus scale="   90.408">  7  8 -1 -1</clus>
<clus scale="  118.700">  1  5  2 -1</clus>
<clus scale="  107.249">  7  9 -1 -1</clus>
<clus scale="  299.567">  2  5  1 -1</clus>
</clustering>
</event>
<event>
 9    2  0.4178938E-005  0.3815919E+03  0.7546771E-02  0.1084623E+00
         21   -1    0    0  501  502  0.00000000000E+00  0.00000000000E+00  0.25779339052E+03  0.25779339052E+03  0.00000000000E+00 0. -1.
          2   -1    0    0  502    0 -0.00000000000E+00 -0.00000000000E+00 -0.28951099058E+03  0.28951099058E+03  0.00000000000E+00 0. -1.
         24    2    1    2    0    0  0.45926996812E+02 -0.11586678388E+03 -0.69803974296E+02  0.16381646551E+03  0.80180040549E+02 0.  0.
         23    2    1    2    0    0  0.13692501366E+03  0.78564625262E+02 -0.30474927313E+02  0.18467403066E+03  0.90856572112E+02 0.  0.
        -13    1    3    3    0    0  0.35425572717E+02 -0.62588258961E+01 -0.29633738272E+02  0.46607966571E+02  0.00000000000E+00 0.  1.
         14    1    3    3    0    0  0.10501424094E+02 -0.10960795799E+03 -0.40170236024E+02  0.11720849894E+03  0.00000000000E+00 0. -1.
        -11    1    4    4    0    0  0.42761515122E+02  0.91434401798E+01 -0.49611142641E+02  0.66131801337E+02  0.00000000000E+00 0.  1.
         11    1    4    4    0    0  0.94163498537E+02  0.69421185082E+02  0.19136215328E+02  0.11854222932E+03  0.00000000000E+00 0. -1.
          1    1    1    2  501    0 -0.18285201047E+03  0.37302158622E+02  0.68561301542E+02  0.19881388493E+03  0.00000000000E+00 0. -1.
<scales pt_clust_5="13000.00000" pt_clust_6="13000.00000" pt_clust_7="13000.00000" pt_clust_8="13000.00000" pt_clust_9="13000.00000"></scales>
<clustering>
<clus scale="   80.180">  5  6 -1 -1</clus>
<clus scale="   90.857">  7  8 -1 -1</clus>
<clus scale="  148.200">  2  5  1 -1</clus>
<clus scale="  165.656">  7  9 -1 -1</clus>
<clus scale="  381.592">  1  5  2 -1</clus>
</clustering>
</event>
<event>
 9    2  0.4178938E-005  0.2723622E+03  0.7546771E-02  0.1143935E+00
          2   -1    0    0  502    0 -0.00000000000E+00  0.00000000000E+00  0.34532305822E+03  0.34532305822E+03  0.00000000000E+00 0. -1.
         21   -1    0    0  501  502  0.00000000000E+00 -0.00000000000E+00 -0.11606679540E+03  0.11606679540E+03  0.00000000000E+00 0.  1.
         24    2    1    2    0    0 -0.25724371592E+02 -0.33139251354E+02  0.15396055841E+03  0.17881137327E+03  0.80682714317E+02 0.  0.
         23    2    1    2    0    0 -0.46108381836E+02 -0.44858329067E+02 -0.46955461069E+02  0.12074858671E+03  0.90758764345E+02 0.  0.
        -11    1    3    3    0    0 -0.17020380925E+02 -0.60114842472E+02  0.10999846740E+03  0.12650355917E+03  0.00000000000E+00 0.  1.
         12    1    3    3    0    0 -0.87039906674E+01  0.26975591118E+02  0.43962091011E+02  0.52307814099E+02  0.00000000000E+00 0. -1.
        -11    1    4    4    0    0 -0.14576070010E+02  0.16832987097E+02  0.15773171528E+02  0.27287436882E+02  0.00000000000E+00 0. -1.
         11    1    4    4    0    0 -0.31532311827E+02 -0.61691316164E+02 -0.62728632598E+02  0.93461149826E+02  0.00000000000E+00 0.  1.
          1    1    1    2  501    0  0.71832753429E+02  0.77997580421E+02  0.12225116548E+03  0.16182989365E+03  0.00000000000E+00 0. -1.
<scales pt_clust_5="13000.00000" pt_clust_6="13000.00000" pt_clust_7="13000.00000" pt_clust_8="13000.00000" pt_clust_9="13000.00000"></scales>
<clustering>
<clus scale="   80.683">  5  6 -1 -1</clus>
<clus scale="   90.759">  7  8 -1 -1</clus>
<clus scale="   90.938">  1  5  2 -1</clus>
<clus scale="   72.906">  7  9 -1 -1</clus>
<clus scale="  272.362">  2  5  1 -1</clus>
</clustering>
</event>
<event>
 9    2  0.4178938E-005  0.6828797E+03  0.7546771E-02  0.1016168E+00
          2   -1    0    0  502    0 -0.00000000000E+00  0.00000000000E+00  0.18549021957E+04  0.18549021957E+04  0.00000000000E+00 0. -1.
         21   -1    0    0  501  502  0.00000000000E+00 -0.00000000000E+00 -0.11205862340E+03  0.11205862340E+03  0.00000000000E+00 0.  1.
         24    2    1    2    0    0 -0.27075780611E+01  0.16310327385E+03  0.67676017038E+03  0.70092032519E+03  0.81700459805E+02 0.  0.
         23    2    1    2    0    0  0.23027066801E+03  0.14220763681E+03  0.59645372481E+03  0.66143173967E+03  0.92126586182E+02 0.  0.
        -11    1    3    3    0    0  0.30736317697E+02  0.29502617260E+02  0.20940360523E+03  0.21369369558E+03  0.00000000000E+00 0.  1.
         12    1    3    3    0    0 -0.33443895759E+02  0.13360065659E+03  0.46735656516E+03  0.48722662961E+03  0.00000000000E+00 0. -1.
        -13    1    4    4    0    0  0.14278007357E+03  0.12995732518E+03  0.35148185468E+03  0.40101689484E+03  0.00000000000E+00 0.  1.
         13    1    4    4    0    0  0.87490594445E+02  0.12250311633E+02  0.24497187013E+03  0.26041484483E+03  0.00000000000E+00 0. -1.
          1    1    1    2  501    0 -0.22756308995E+03 -0.30531091066E+03  0.46962967706E+03  0.60460875419E+03  0.00000000000E+00 0. -1.
<scales pt_clust_5="13000.00000" pt_clust_6="13000.00000" pt_clust_7="13000.00000" pt_clust_8="13000.00000" pt_clust_9="13000.00000"></scales>
<clustering>
<clus scale="   81.700">  5  6 -1 -1</clus>
<clus scale="   92.127">  7  8 -1 -1</clus>
<clus scale="  182.442">  1  5  2 -1</clus>
<clus scale="  324.558">  7  9 -1 -1</clus>
<clus scale="  682.880">  2  5  1 -1</clus>
</clustering>
</event>
<event>
 9    2  0.4178938E-005  0.1311092E+03  0.7546771E-02  0.1241710E+00
         21   -1    0    0  501  502  0.00000000000E+00  0.00000000000E+00  0.56407385570E+02  0.56407385570E+02  0.00000000000E+00 0.  1.
          2   -1    0    0  502    0 -0.00000000000E+00 -0.00000000000E+00 -0.37747404618E+03  0.37747404618E+03  0.00000000000E+00 0. -1.
         24    2    1    2    0    0 -0.46519659204E+02 -0.11100923972E+02 -0.28142864988E+03  0.29691137320E+03  0.81651511673E+02 0.  0.
         23    2    1    2    0    0  0.15314320225E+02 -0.93147596185E+01 -0.32515286918E+02  0.99005515725E+02  0.91779927598E+02 0.  0.
        -13    1    3    3    0    0  0.71967110728E+01 -0.29698378931E+02 -0.49955842582E+02  0.58560845020E+02  0.00000000000E+00 0.  1.
         14    1    3    3    0    0 -0.53716370277E+02  0.18597454959E+02 -0.23147280730E+03  0.23835052818E+03  0.00000000000E+00 0. -1.
        -11    1    4    4    0    0  0.49156131323E+02 -0.24145911959E+02 -0.28780660165E+02  0.61868220521E+02  0.00000000000E+00 0. -1.
         11    1    4    4    0    0 -0.33841811097E+02  0.14831152340E+02 -0.37346267528E+01  0.37137295204E+02  0.00000000000E+00 0.  1.
          1    1    1    2  501    0  0.31205338979E+02  0.20415683590E+02 -0.71227238142E+01  0.37964542823E+02  0.00000000000E+00 0. -1.
<scales pt_clust_5="13000.00000" pt_clust_6="13000.00000" pt_clust_7="13000.00000" pt_clust_8="13000.00000" pt_clust_9="13000.00000"></scales>
<clustering>
<clus scale="   81.652">  5  6 -1 -1</clus>
<clus scale="   91.780">  7  8 -1 -1</clus>
<clus scale="   37.290">  7  9 -1 -1</clus>
<clus scale="   94.627">  2  5  1 -1</clus>
<clus scale="  131.109">  1  5  2 -1</clus>
</clustering>
</event>
<event>
 9    2  0.4178938E-005  0.2407549E+03  0.7546771E-02  0.1148767E+00
         21   -1    0    0  501  502  0.00000000000E+00  0.00000000000E+00  0.56980624123E+02  0.56980624123E+02  0.00000000000E+00 0. -1.
          2   -1    0    0  502    0 -0.00000000000E+00 -0.00000000000E+00 -0.58222334852E+03  0.58222334852E+03  0.00000000000E+00 0. -1.
         24    2    1    2    0    0 -0.82559185414E+02 -0.20348393347E+02 -0.23038372115E+03  0.25854040300E+03  0.80848035247E+02 0.  0.
         23    2    1    2    0    0  0.11134919950E+02  0.97342502114E+02 -0.12271267770E+03  0.17901070980E+03  0.85946982477E+02 0.  0.
        -13    1    3    3    0    0 -0.39458521809E+01 -0.36726647599E+02 -0.67914121066E+02  0.77309405854E+02  0.00000000000E+00 0.  1.
         14    1    3    3    0    0 -0.78613333233E+02  0.16378254252E+02 -0.16246960009E+03  0.18123099715E+03  0.00000000000E+00 0. -1.
        -13    1    4    4    0    0  0.46289664120E+02  0.70436189438E+02 -0.65918598672E+02  0.10700117494E+03  0.00000000000E+00 0. -1.
         13    1    4    4    0    0 -0.35154744171E+02  0.26906312676E+02 -0.56794079024E+02  0.72009534867E+02  0.00000000000E+00 0.  1.
          1    1    1    2  501    0  0.71424265464E+02 -0.76994108767E+02 -0.17214632554E+03  0.20165285984E+03  0.00000000000E+00 0. -1.
<scales pt_clust_5="13000.00000" pt_clust_6="13000.00000" pt_clust_7="13000.00000" pt_clust_8="13000.00000" pt_clust_9="13000.00000"></scales>
<clustering>
<clus scale="   80.848">  5  6 -1 -1</clus>
<clus scale="   85.947">  7  8 -1 -1</clus>
<clus scale="  105.022">  7  9 -1 -1</clus>
<clus scale="  117.331">  2  5  1 -1</clus>
<clus scale="  240.755">  1  5  2 -1</clus>
</clustering>
</event>
<event>
 9    2  0.5026770E-005  0.6081720E+03  0.7546771E-02  0.1011460E+00
          2   -1    0    0  502    0 -0.00000000000E+00  0.00000000000E+00  0.37110205775E+03  0.37110205775E+03  0.00000000000E+00 0. -1.
         21   -1    0    0  501  502  0.00000000000E+00 -0.00000000000E+00 -0.59113954435E+03  0.59113954435E+03  0.00000000000E+00 0. -1.
         24    2    1    2    0    0 -0.22692035003E+03 -0.17781788516E+03  0.39576052070E+02  0.30097590107E+03  0.76864709623E+02 0.  0.
         23    2    1    2    0    0 -0.14983783216E+03  0.62652836457E+02  0.16982986917E+01  0.18851461152E+03  0.95698070400E+02 0.  0.
        -13    1    3    3    0    0 -0.91102004204E+02 -0.32262508365E+02  0.31801834215E+02  0.10174380215E+03  0.00000000000E+00 0.  1.
         14    1    3    3    0    0 -0.13581834583E+03 -0.14555537679E+03  0.77742178542E+01  0.19923209892E+03  0.00000000000E+00 0. -1.
        -11    1    4    4    0    0 -0.13636508200E+03  0.80366693854E+02 -0.17333313488E+02  0.15923154470E+03  0.00000000000E+00 0. -1.
         11    1    4    4    0    0 -0.13472750153E+02 -0.17713857397E+02  0.19031612180E+02  0.29283066826E+02  0.00000000000E+00 0.  1.
          1    1    1    2  501    0  0.37675818219E+03  0.11516504870E+03 -0.26131183736E+03  0.47275108951E+03  0.00000000000E+00 0. -1.
<scales pt_clust_5="13000.00000" pt_clust_6="13000.00000" pt_clust_7="13000.00000" pt_clust_8="13000.00000" pt_clust_9="13000.00000"></scales>
<clustering>
<clus scale="   76.865">  5  6 -1 -1</clus>
<clus scale="   95.698">  7  8 -1 -1</clus>
<clus scale="  298.363">  1  5  2 -1</clus>
<clus scale="  258.204">  7  9 -1 -1</clus>
<clus scale="  608.172">  2  5  1 -1</clus>
</clustering>
</event>
<event>
 9    2  0.4178938E-005  0.2551524E+03  0.7546771E-02  0.1151445E+00
         21   -1    0    0  501  502  0.00000000000E+00  0.00000000000E+00  0.82157039693E+02  0.82157039693E+02  0.00000000000E+00 0. -1.
          2   -1    0    0  502    0 -0.00000000000E+00 -0.00000000000E+00 -0.52701624375E+03  0.52701624375E+03  0.00000000000E+00 0. -1.
         24    2    1    2    0    0 -0.35883261572E+02 -0.19427685694E+02  0.42916835645E+01  0.92608389178E+02  0.83023200166E+02 0.  0.
         23    2    1    2    0    0  0.55883502520E+02 -0.74316377052E+02 -0.13616136655E+03  0.18922653837E+03  0.92848668982E+02 0.  0.
        -11    1    3    3    0    0 -0.17879133614E+02  0.17156984750E+02 -0.30296426550E+02  0.39139481425E+02  0.00000000000E+00 0.  1.
         12    1    3    3    0    0 -0.18004127958E+02 -0.36584670444E+02  0.34588110115E+02  0.53468907753E+02  0.00000000000E+00 0. -1.
        -13    1    4    4    0    0  0.77466526116E+02 -0.32280496747E+02 -0.81709232393E+02  0.11713023434E+03  0.00000000000E+00 0.  1.
         13    1    4    4    0    0 -0.21583023597E+02 -0.42035880305E+02 -0.54452134159E+02  0.72096304032E+02  0.00000000000E+00 0. -1.
          1    1    1    2  501    0 -0.20000240948E+02  0.93744062746E+02 -0.31298952107E+03  0.32733835589E+03  0.00000000000E+00 0. -1.
<scales pt_clust_5="13000.00000" pt_clust_6="13000.00000" pt_clust_7="13000.00000" pt_clust_8="13000.00000" pt_clust_9="13000.00000"></scales>
<clustering>
<clus scale="   83.023">  5  6 -1 -1</clus>
<clus scale="   92.509">  2  5  1 -1</clus>
<clus scale="   92.849">  7  8 -1 -1</clus>
<clus scale="   91.960">  7  9 -1 -1</clus>
<clus scale="  255.152">  1  5  2 -1</clus>
</clustering>
</event>
<event>
 9    2  0.4178938E-005  0.2925144E+03  0.7546771E-02  0.1122036E+00
         -3   -1    0    0    0  501 -0.00000000000E+00  0.00000000000E+00  0.37299552997E+03  0.37299552997E+03  0.00000000000E+00 0.  1.
         21   -1    0    0  501  502  0.00000000000E+00 -0.00000000000E+00 -0.11791304236E+03  0.11791304236E+03  0.00000000000E+00 0.  1.
         24    2    1    2    0    0 -0.66224432986E+02  0.69024114930E+02  0.96432886036E+02  0.15814086200E+03  0.80989053331E+02 0.  0.
         23    2    1    2    0    0  0.84967313947E+02 -0.66071072391E+01 -0.32702094038E+02  0.13062258956E+03  0.93433054338E+02 0.  0.
        -11    1    3    3    0    0 -0.52978598791E+02  0.68712397479E+02  0.10938113132E+03  0.13961503281E+03  0.00000000000E+00 0.  1.
         12    1    3    3    0    0 -0.13245834196E+02  0.31171745125E+00 -0.12948245286E+02  0.18525829193E+02  0.00000000000E+00 0. -1.
        -13    1    4    4    0    0 -0.12053764670E+02 -0.22882604619E+02 -0.17128382087E+02  0.31020772231E+02  0.00000000000E+00 0. -1.
         13    1    4    4    0    0  0.97021078617E+02  0.16275497380E+02 -0.15573711950E+02  0.99601817327E+02  0.00000000000E+00 0.  1.
         -4    1    1    2    0  502 -0.18742880960E+02 -0.62417007691E+02  0.19135169562E+03  0.20214512077E+03  0.00000000000E+00 0.  1.
<scales pt_clust_5="13000.00000" pt_clust_6="13000.00000" pt_clust_7="13000.00000" pt_clust_8="13000.00000" pt_clust_9="13000.00000"></scales>
<clustering>
<clus scale="   80.989">  5  6 -1 -1</clus>
<clus scale="   93.433">  7  8 -1 -1</clus>
<clus scale="   65.170">  7  9 -1 -1</clus>
<clus scale="  125.336">  1  5  2 -1</clus>
<clus scale="  292.514">  2  5  1 -1</clus>
</clustering>
</event>
<event>
 9    2  0.4178938E-005  0.2357984E+03  0.7546771E-02  0.1157450E+00
          2   -1    0    0  502    0 -0.00000000000E+00  0.00000000000E+00  0.58516895143E+03  0.58516895143E+03  0.00000000000E+00 0. -1.
         21   -1    0    0  501  502  0.00000000000E+00 -0.00000000000E+00 -0.52268910781E+02  0.52268910781E+02  0.00000000000E+00 0. -1.
         24    2    1    2    0    0 -0.55942436775E+02  0.30455807668E+02  0.24499977637E+03  0.26529883331E+03  0.79381786823E+02 0.  0.
         23    2    1    2    0    0  0.38110084455E+02  0.77545649717E+02  0.17012908033E+03  0.21135233991E+03  0.90885649510E+02 0.  0.
        -11    1    3    3    0    0 -0.25071193562E+02 -0.14979812816E+02  0.24687593380E+02  0.38241820113E+02  0.00000000000E+00 0.  1.
         12    1    3    3    0    0 -0.30871243213E+02  0.45435620484E+02  0.22031218299E+03  0.22705701320E+03  0.00000000000E+00 0. -1.
        -13    1    4    4    0    0 -0.22794632008E+02  0.46667864813E+02  0.44629106884E+02  0.68478040537E+02  0.00000000000E+00 0.  1.
         13    1    4    4    0    0  0.60904716463E+02  0.30877784905E+02  0.12549997344E+03  0.14287429938E+03  0.00000000000E+00 0. -1.
          1    1    1    2  501    0  0.17832352320E+02 -0.10800145739E+03  0.11777118394E+03  0.16078668898E+03  0.00000000000E+00 0. -1.
<scales pt_clust_5="13000.00000" pt_clust_6="13000.00000" pt_clust_7="13000.00000" pt_clust_8="13000.00000" pt_clust_9="13000.00000"></scales>
<clustering>
<clus scale="   79.382">  5  6 -1 -1</clus>
<clus scale="   90.886">  7  8 -1 -1</clus>
<clus scale="  101.777">  1  5  2 -1</clus>
<clus scale="   95.323">  7  9 -1 -1</clus>
<clus scale="  235.798">  2  5  1 -1</clus>
</clustering>
</event>
<event>
 9    2  0.4178938E-005  0.2268634E+03  0.7546771E-02  0.1154162E+00
         -3   -1    0    0    0  501 -0.00000000000E+00  0.00000000000E+00  0.10127039005E+04  0.10127039005E+04  0.00000000000E+00 0.  1.
         21   -1    0    0  501  502  0.00000000000E+00 -0.00000000000E+00 -0.33466522402E+02  0.33466522402E+02  0.00000000000E+00 0.  1.
         24    2    1    2    0    0 -0.62284716559E+02 -0.69795233541E+02  0.51334247172E+03  0.52797637767E+03  0.80546890501E+02 0.  0.
         23    2    1    2    0    0 -0.50220397724E+01 -0.37255202162E+02  0.21763855371E+03  0.23958820919E+03  0.92859027308E+02 0.  0.
        -11    1    3    3    0    0 -0.73851906924E+02 -0.27021333746E+02  0.30509826565E+03  0.31507016415E+03  0.00000000000E+00 0.  1.
         12    1    3    3    0    0  0.11567190365E+02 -0.42773899794E+02  0.20824420607E+03  0.21290621353E+03  0.00000000000E+00 0. -1.
        -11    1    4    4    0    0 -0.30752604499E+02  0.65417903889E+01  0.15868370620E+03  0.16176846515E+03  0.00000000000E+00 0. -1.
         11    1    4    4    0    0  0.25730564727E+02 -0.43796992551E+02  0.58954847509E+02  0.77819744040E+02  0.00000000000E+00 0.  1.
         -4    1    1    2    0  502  0.67306756332E+02  0.10705043570E+03  0.24825635269E+03  0.27860583606E+03  0.00000000000E+00 0.  1.
<scales pt_clust_5="13000.00000" pt_clust_6="13000.00000" pt_clust_7="13000.00000" pt_clust_8="13000.00000" pt_clust_9="13000.00000"></scales>
<clustering>
<clus scale="   80.547">  5  6 -1 -1</clus>
<clus scale="   92.859">  7  8 -1 -1</clus>
<clus scale="  123.445">  1  5  2 -1</clus>
<clus scale="   77.518">  7  9 -1 -1</clus>
<clus scale="  226.863">  2  5  1 -1</clus>
</clustering>
</event>
<event>
 9    2  0.4178938E-005  0.1965798E+03  0.7546771E-02  0.1181029E+00
         21   -1    0    0  501  502  0.00000000000E+00  0.00000000000E+00  0.42848380993E+02  0.42848380993E+02  0.00000000000E+00 0. -1.
          2   -1    0    0  502    0 -0.00000000000E+00 -0.00000000000E+00 -0.52502501272E+03  0.52502501272E+03  0.00000000000E+00 0. -1.
         24    2    1    2    0    0 -0.60560909125E+02  0.21462684886E+02 -0.14312378285E+03  0.17595446990E+03  0.79669866982E+02 0.  0.
         23    2    1    2    0    0  0.46811657718E+02  0.56338599919E+02 -0.17309255469E+03  0.20811222895E+03  0.89354900296E+02 0.  0.
        -11    1    3    3    0    0 -0.22488166001E+02 -0.88684970178E+01  0.63083144934E+00  0.24181931225E+02  0.00000000000E+00 0.  1.
         12    1    3    3    0    0 -0.38072743124E+02  0.30331181903E+02 -0.14375461429E+03  0.15177253867E+03  0.00000000000E+00 0. -1.
        -13    1    4    4    0    0 -0.17469051853E+02  0.44416596433E+02 -0.52602604109E+02  0.71028415232E+02  0.00000000000E+00 0.  1.
         13    1    4    4    0    0  0.64280709572E+02  0.11922003486E+02 -0.12048995059E+03  0.13708381371E+03  0.00000000000E+00 0. -1.
          1    1    1    2  501    0  0.13749251407E+02 -0.77801284804E+02 -0.16596029419E+03  0.18380669487E+03  0.00000000000E+00 0. -1.
<scales pt_clust_5="13000.00000" pt_clust_6="13000.00000" pt_clust_7="13000.00000" pt_clust_8="13000.00000" pt_clust_9="13000.00000"></scales>
<clustering>
<clus scale="   79.670">  5  6 -1 -1</clus>
<clus scale="   89.355">  7  8 -1 -1</clus>
<clus scale="   79.007">  7  9 -1 -1</clus>
<clus scale="  102.350">  2  5  1 -1</clus>
<clus scale="  196.580">  1  5  2 -1</clus>
</clustering>
</event>
<event>
 9    2  0.4178938E-005  0.2582945E+03  0.7546771E-02  0.1140321E+00
         -1   -1    0    0    0  501 -0.00000000000E+00  0.00000000000E+00  0.28012815803E+03  0.28012815803E+03  0.00000000000E+00 0.  1.
         21   -1    0    0  501  502  0.00000000000E+00 -0.00000000000E+00 -0.25225821063E+03  0.25225821063E+03  0.00000000000E+00 0.  1.
         24    2    1    2    0    0 -0.75023463831E+02  0.36652935732E+02  0.19335129349E+03  0.22562894506E+03  0.80942821391E+02 0.  0.
         23    2    1    2    0    0 -0.23256391663E+02  0.63942565993E+02 -0.10112981078E+03  0.15209810426E+03  0.90978476536E+02 0.  0.
        -11    1    3    3    0    0 -0.35059794386E+02  0.56299015277E+02  0.14743129584E+03  0.16166247337E+03  0.00000000000E+00 0.  1.
         12    1    3    3    0    0 -0.39963669444E+02 -0.19646079545E+02  0.45919997649E+02  0.63966471695E+02  0.00000000000E+00 0. -1.
        -13    1    4    4    0    0 -0.11181946643E+02  0.86910582242E+02 -0.79519934498E+02  0.11832964641E+03  0.00000000000E+00 0.  1.
         13    1    4    4    0    0 -0.12074445020E+02 -0.22968016249E+02 -0.21609876282E+02  0.33768457855E+02  0.00000000000E+00 0. -1.
         -2    1    1    2    0  502  0.98279855494E+02 -0.10059550172E+03 -0.64351535304E+02  0.15465931934E+03  0.00000000000E+00 0.  1.
<scales pt_clust_5="13000.00000" pt_clust_6="13000.00000" pt_clust_7="13000.00000" pt_clust_8="13000.00000" pt_clust_9="13000.00000"></scales>
<clustering>
<clus scale="   80.943">  5  6 -1 -1</clus>
<clus scale="   90.978">  7  8 -1 -1</clus>
<clus scale="  116.291">  1  5  2 -1</clus>
<clus scale="   92.125">  7  9 -1 -1</clus>
<clus scale="  258.294">  2  5  1 -1</clus>
</clustering>
</event>
<event>
 9    2  0.4178938E-005  0.1332918E+03  0.7546771E-02  0.1243170E+00
          2   -1    0    0  502    0 -0.00000000000E+00  0.00000000000E+00  0.15848333300E+02  0.15848333300E+02  0.00000000000E+00 0. -1.
         21   -1    0    0  501  502  0.00000000000E+00 -0.00000000000E+00 -0.86481406051E+03  0.86481406051E+03  0.00000000000E+00 0. -1.
         24    2    1    2    0    0  0.81170517775E+01  0.31848571675E+02 -0.49019108802E+03  0.49792757263E+03  0.81020656407E+02 0.  0.
         23    2    1    2    0    0  0.74607925434E+01 -0.53130933284E+02 -0.31152856476E+03  0.32862567501E+03  0.89812182479E+02 0.  0.
        -11    1    3    3    0    0  0.26013200684E+02  0.44410316062E+02 -0.18713227282E+03  0.19408104058E+03  0.00000000000E+00 0.  1.
         12    1    3    3    0    0 -0.17896148907E+02 -0.12561744387E+02 -0.30305881520E+03  0.30384653205E+03  0.00000000000E+00 0. -1.
        -13    1    4    4    0    0 -0.40401408544E+02 -0.19431579389E+02 -0.16071098152E+03  0.16684687492E+03  0.00000000000E+00 0.  1.
         13    1    4    4    0    0  0.47862201088E+02 -0.33699353894E+02 -0.15081758323E+03  0.16177880009E+03  0.00000000000E+00 0. -1.
          1    1    1    2  501    0 -0.15577844321E+02  0.21282361609E+02 -0.47246074431E+02  0.54109146163E+02  0.00000000000E+00 0. -1.
<scales pt_clust_5="13000.00000" pt_clust_6="13000.00000" pt_clust_7="13000.00000" pt_clust_8="13000.00000" pt_clust_9="13000.00000"></scales>
<clustering>
<clus scale="   81.021">  5  6 -1 -1</clus>
<clus scale="   87.433">  1  5  2 -1</clus>
<clus scale="   89.812">  7  8 -1 -1</clus>
<clus scale="   33.168">  7  9 -1 -1</clus>
<clus scale="  133.292">  2  5  1 -1</clus>
</clustering>
</event>
<event>
 9    2  0.4178938E-005  0.1611620E+03  0.7546771E-02  0.1206642E+00
         21   -1    0    0  501  502  0.00000000000E+00  0.00000000000E+00  0.14583927893E+03  0.14583927893E+03  0.00000000000E+00 0.  1.
          2   -1    0    0  502    0 -0.00000000000E+00 -0.00000000000E+00 -0.25245538837E+03  0.25245538837E+03  0.00000000000E+00 0. -1.
         24    2    1    2    0    0 -0.36631963671E+02 -0.32682912446E+02 -0.18950315948E+03  0.21706706700E+03  0.93790141243E+02 0.  0.
         23    2    1    2    0    0 -0.62035842930E+01  0.52503278692E+02  0.66980139051E+02  0.13142036282E+03  0.99949457258E+02 0.  0.
        -11    1    3    3    0    0 -0.40731227836E+02  0.11617712448E+02 -0.31133959883E+02  0.52567362703E+02  0.00000000000E+00 0.  1.
         12    1    3    3    0    0  0.40992641650E+01 -0.44300624894E+02 -0.15836919959E+03  0.16449970429E+03  0.00000000000E+00 0. -1.
        -11    1    4    4    0    0  0.11854030832E+02  0.77664251936E+02  0.61937086031E+02  0.10004227457E+03  0.00000000000E+00 0.  1.
         11    1    4    4    0    0 -0.18057615125E+02 -0.25160973244E+02  0.50430530203E+01  0.31378088252E+02  0.00000000000E+00 0. -1.
          1    1    1    2  501    0  0.42835547964E+02 -0.19820366246E+02  0.15906910984E+02  0.49807237472E+02  0.00000000000E+00 0. -1.
<scales pt_clust_5="13000.00000" pt_clust_6="13000.00000" pt_clust_7="13000.00000" pt_clust_8="13000.00000" pt_clust_9="13000.00000"></scales>
<clustering>
<clus scale="   93.790">  5  6 -1 -1</clus>
<clus scale="   99.949">  7  8 -1 -1</clus>
<clus scale="   47.199">  7  9 -1 -1</clus>
<clus scale="  105.862">  2  5  1 -1</clus>
<clus scale="  161.162">  1  5  2 -1</clus>
</clustering>
</event>
<event>
 9    2  0.4178938E-005  0.3211474E+03  0.7546771E-02  0.1116430E+00
          2   -1    0    0  502    0 -0.00000000000E+00  0.00000000000E+00  0.27833016874E+03  0.27833016874E+03  0.00000000000E+00 0. -1.
         21   -1    0    0  501  502  0.00000000000E+00 -0.00000000000E+00 -0.21590586440E+03  0.21590586440E+03  0.00000000000E+00 0.  1.
         24    2    1    2    0    0 -0.51707676990E+02  0.50478115671E+02  0.12627262294E+03  0.16680323288E+03  0.81589332459E+02 0.  0.
         23    2    1    2    0    0 -0.35753802966E+02 -0.10315022229E+03 -0.13982513354E+03  0.20016796734E+03  0.92724561979E+02 0.  0.
        -13    1    3    3    0    0 -0.26868008276E+02  0.56765495359E+02  0.12644159768E+03  0.14117963364E+03  0.00000000000E+00 0.  1.
         14    1    3    3    0    0 -0.24839668714E+02 -0.62873796889E+01 -0.16897473344E+00  0.25623599233E+02  0.00000000000E+00 0. -1.
        -13    1    4    4    0    0 -0.21633415658E+02 -0.24308243707E+02  0.66596717050E+01  0.33215156365E+02  0.00000000000E+00 0. -1.
         13    1    4    4    0    0 -0.14120387308E+02 -0.78841978581E+02 -0.14648480524E+03  0.16695281097E+03  0.00000000000E+00 0.  1.
          1    1    1    2  501    0  0.87461479956E+02  0.52672106617E+02  0.75976814938E+02  0.12726483293E+03  0.00000000000E+00 0. -1.
<scales pt_clust_5="13000.00000" pt_clust_6="13000.00000" pt_clust_7="13000.00000" pt_clust_8="13000.00000" pt_clust_9="13000.00000"></scales>
<clustering>
<clus scale="   81.589">  5  6 -1 -1</clus>
<clus scale="   92.725">  7  8 -1 -1</clus>
<clus scale="  102.097">  7  9 -1 -1</clus>
<clus scale="  108.989">  1  5  2 -1</clus>
<clus scale="  321.147">  2  5  1 -1</clus>
</clustering>
</event>
<event>
 9    2  0.4178938E-005  0.6737110E+03  0.7546771E-02  0.1010039E+00
          2   -1    0    0  502    0 -0.00000000000E+00  0.00000000000E+00  0.21369008656E+04  0.21369008656E+04  0.00000000000E+00 0. -1.
         21   -1    0    0  501  502  0.00000000000E+00 -0.00000000000E+00 -0.10522829701E+03  0.10522829701E+03  0.00000000000E+00 0. -1.
         24    2    1    2    0    0 -0.80973720299E+02 -0.19937632565E+03  0.25996541667E+03  0.34665224982E+03  0.79234473764E+02 0.  0.
         23    2    1    2    0    0  0.17101834507E+03 -0.18390119497E+03  0.53760064382E+03  0.60008949367E+03  0.89588081347E+02 0.  0.
        -13    1    3    3    0    0 -0.89517649824E+01 -0.12663650491E+03  0.14379096901E+03  0.19181444482E+03  0.00000000000E+00 0.  1.
         14    1    3    3    0    0 -0.72021955317E+02 -0.72739820742E+02  0.11617444766E+03  0.15483780500E+03  0.00000000000E+00 0. -1.
        -11    1    4    4    0    0  0.19088982996E+02 -0.51323098183E+02  0.19511153165E+03  0.20264984446E+03  0.00000000000E+00 0.  1.
         11    1    4    4    0    0  0.15192936207E+03 -0.13257809679E+03  0.34248911217E+03  0.39743964921E+03  0.00000000000E+00 0. -1.
          1    1    1    2  501    0 -0.90044624769E+02  0.38327752063E+03  0.12341065081E+04  0.12953874191E+04  0.00000000000E+00 0. -1.
<scales pt_clust_5="13000.00000" pt_clust_6="13000.00000" pt_clust_7="13000.00000" pt_clust_8="13000.00000" pt_clust_9="13000.00000"></scales>
<clustering>
<clus scale="   79.234">  5  6 -1 -1</clus>
<clus scale="   89.588">  7  8 -1 -1</clus>
<clus scale="  229.316">  1  5  2 -1</clus>
<clus scale="  285.800">  7  9 -1 -1</clus>
<clus scale="  673.711">  2  5  1 -1</clus>
</clustering>
</event>
<event>
 9    2  0.4178938E-005  0.2103170E+03  0.7546771E-02  0.1165436E+00
         21   -1    0    0  501  502  0.00000000000E+00  0.00000000000E+00  0.35903152305E+02  0.35903152305E+02  0.00000000000E+00 0. -1.
          2   -1    0    0  502    0 -0.00000000000E+00 -0.00000000000E+00 -0.11030232021E+04  0.11030232021E+04  0.00000000000E+00 0. -1.
         24    2    1    2    0    0  0.64889576515E+02  0.59110763631E+02 -0.74337152977E+03  0.75286113052E+03  0.80584806661E+02 0.  0.
         23    2    1    2    0    0  0.33123258496E+02 -0.29431270026E+02 -0.20441416524E+03  0.22881358986E+03  0.92774770515E+02 0.  0.
        -11    1    3    3    0    0  0.40566616887E+02  0.46999457897E+02 -0.21482356596E+03  0.22361521401E+03  0.00000000000E+00 0.  1.
         12    1    3    3    0    0  0.24322959628E+02  0.12111305734E+02 -0.52854796381E+03  0.52924591651E+03  0.00000000000E+00 0. -1.
        -11    1    4    4    0    0  0.28324067521E+02 -0.62685196119E+02 -0.14683324918E+03  0.16214712356E+03  0.00000000000E+00 0. -1.
         11    1    4    4    0    0  0.47991909744E+01  0.33253926093E+02 -0.57580916059E+02  0.66666466299E+02  0.00000000000E+00 0.  1.
          1    1    1    2  501    0 -0.98012835010E+02 -0.29679493605E+02 -0.11933435474E+03  0.15725163398E+03  0.00000000000E+00 0. -1.
<scales pt_clust_5="13000.00000" pt_clust_6="13000.00000" pt_clust_7="13000.00000" pt_clust_8="13000.00000" pt_clust_9="13000.00000"></scales>
<clustering>
<clus scale="   80.585">  5  6 -1 -1</clus>
<clus scale="   92.775">  7  8 -1 -1</clus>
<clus scale="  102.408">  7  9 -1 -1</clus>
<clus scale="  119.158">  2  5  1 -1</clus>
<clus scale="  210.317">  1  5  2 -1</clus>
</clustering>
</event>
<event>
 9    2  0.4178938E-005  0.7916514E+03  0.7546771E-02  0.1027316E+00
         21   -1    0    0  501  502  0.00000000000E+00  0.00000000000E+00  0.18528226228E+03  0.18528226228E+03  0.00000000000E+00 0. -1.
          2   -1    0    0  502    0 -0.00000000000E+00 -0.00000000000E+00 -0.11628198535E+04  0.11628198535E+04  0.00000000000E+00 0. -1.
         24    2    1    2    0    0 -0.62935070194E+01  0.17115797713E+02 -0.28253431766E+03  0.29465944842E+03  0.81645521156E+02 0.  0.
         23    2    1    2    0    0 -0.27107757203E+03 -0.25717071714E+03 -0.18991010515E+03  0.42919897409E+03  0.92336793902E+02 0.  0.
        -11    1    3    3    0    0  0.24782582626E+02  0.31947798078E+02 -0.84762042191E+02  0.93911884232E+02  0.00000000000E+00 0.  1.
         12    1    3    3    0    0 -0.31076089646E+02 -0.14832000366E+02 -0.19777227547E+03  0.20074756419E+03  0.00000000000E+00 0. -1.
        -13    1    4    4    0    0 -0.18526747563E+03 -0.12789938740E+03 -0.79444825663E+02  0.23873368247E+03  0.00000000000E+00 0. -1.
         13    1    4    4    0    0 -0.85810096401E+02 -0.12927132975E+03 -0.11046527949E+03  0.19046529162E+03  0.00000000000E+00 0.  1.
          1    1    1    2  501    0  0.27737107905E+03  0.24005491943E+03 -0.50509316845E+03  0.62424369332E+03  0.00000000000E+00 0. -1.
<scales pt_clust_5="13000.00000" pt_clust_6="13000.00000" pt_clust_7="13000.00000" pt_clust_8="13000.00000" pt_clust_9="13000.00000"></scales>
<clustering>
<clus scale="   81.646">  5  6 -1 -1</clus>
<clus scale="   83.657">  2  5  1 -1</clus>
<clus scale="   92.337">  7  8 -1 -1</clus>
<clus scale="  371.150">  7  9 -1 -1</clus>
<clus scale="  791.651">  1  5  2 -1</clus>
</clustering>
</event>
<event>
 9    2  0.4178938E-005  0.2695663E+03  0.7546771E-02  0.1132421E+00
          2   -1    0    0  502    0 -0.00000000000E+00  0.00000000000E+00  0.30330128526E+03  0.30330128526E+03  0.00000000000E+00 0. -1.
         21   -1    0    0  501  502  0.00000000000E+00 -0.00000000000E+00 -0.12764778569E+03  0.12764778569E+03  0.00000000000E+00 0.  1.
         24    2    1    2    0    0 -0.88624234765E+02  0.31614986537E+02  0.57527030610E+02  0.13663653019E+03  0.80662381383E+02 0.  0.
         23    2    1    2    0    0 -0.23629291635E+02 -0.73507398361E+02 -0.81126418482E+01  0.12026616345E+03  0.91850171886E+02 0.  0.
        -11    1    3    3    0    0 -0.49536287635E+02  0.43419104341E+02 -0.26914900985E+00  0.65872109847E+02  0.00000000000E+00 0.  1.
         12    1    3    3    0    0 -0.39087947129E+02 -0.11804117804E+02  0.57796179620E+02  0.70764420344E+02  0.00000000000E+00 0. -1.
        -11    1    4    4    0    0 -0.48622355157E+02 -0.73335209749E+02  0.11173890759E+02  0.88696348542E+02  0.00000000000E+00 0.  1.
         11    1    4    4    0    0  0.24993063522E+02 -0.17218861163E+00 -0.19286532608E+02  0.31569814905E+02  0.00000000000E+00 0. -1.
          1    1    1    2  501    0  0.11225352640E+03  0.41892411824E+02  0.12623911081E+03  0.17404637731E+03  0.00000000000E+00 0. -1.
<scales pt_clust_5="13000.00000" pt_clust_6="13000.00000" pt_clust_7="13000.00000" pt_clust_8="13000.00000" pt_clust_9="13000.00000"></scales>
<clustering>
<clus scale="   80.662">  5  6 -1 -1</clus>
<clus scale="   91.850">  7  8 -1 -1</clus>
<clus scale="  119.816">  7  9 -1 -1</clus>
<clus scale="  123.936">  1  5  2 -1</clus>
<clus scale="  269.566">  2  5  1 -1</clus>
</clustering>
</event>
<event>
 9    2  0.4178938E-005  0.2808278E+03  0.7546771E-02  0.1119445E+00
          2   -1    0    0  502    0 -0.00000000000E+00  0.00000000000E+00  0.10927541965E+04  0.10927541965E+04  0.00000000000E+00 0. -1.
         21   -1    0    0  501  502  0.00000000000E+00 -0.00000000000E+00 -0.47910663513E+02  0.47910663513E+02  0.00000000000E+00 0. -1.
         24    2    1    2    0    0 -0.19678457536E+02  0.12502378958E+03  0.56329403084E+03  0.58321157228E+03  0.82567446417E+02 0.  0.
         23    2    1    2    0    0 -0.74141018367E+02 -0.84553438320E+01  0.29101095878E+03  0.31518229668E+03  0.95310642457E+02 0.  0.
        -11    1    3    3    0    0  0.29742564775E+02  0.27631309918E+02  0.12081164282E+03  0.12745023534E+03  0.00000000000E+00 0.  1.
         12    1    3    3    0    0 -0.49421022310E+02  0.97392479660E+02  0.44248238802E+03  0.45576133694E+03  0.00000000000E+00 0. -1.
        -13    1    4    4    0    0  0.16186106423E+02 -0.19627420823E+02  0.10580812641E+03  0.10882364313E+03  0.00000000000E+00 0.  1.
         13    1    4    4    0    0 -0.90327124790E+02  0.11172076991E+02  0.18520283237E+03  0.20635865355E+03  0.00000000000E+00 0. -1.
          1    1    1    2  501    0  0.93819475903E+02 -0.11656844575E+03  0.19053854340E+03  0.24227099109E+03  0.00000000000E+00 0. -1.
<scales pt_clust_5="13000.00000" pt_clust_6="13000.00000" pt_clust_7="13000.00000" pt_clust_8="13000.00000" pt_clust_9="13000.00000"></scales>
<clustering>
<clus scale="   82.567">  5  6 -1 -1</clus>
<clus scale="   95.311">  7  8 -1 -1</clus>
<clus scale="  149.634">  7  9 -1 -1</clus>
<clus scale="  151.114">  1  5  2 -1</clus>
<clus scale="  280.828">  2  5  1 -1</clus>
</clustering>
</event>
<event>
 9    2  0.4178938E-005  0.6196607E+03  0.7546771E-02  0.1007852E+00
         21   -1    0    0  501  502  0.00000000000E+00  0.00000000000E+00  0.25554398194E+03  0.25554398194E+03  0.00000000000E+00 0.  1.
         -1   -1    0    0    0  501 -0.00000000000E+00 -0.00000000000E+00 -0.10141862656E+04  0.10141862656E+04  0.00000000000E+00 0.  1.
         24    2    1    2    0    0 -0.30405727155E+03  0.20211057200E+02 -0.51503507269E+03  0.60390456077E+03  0.81118932467E+02 0.  0.
         23    2    1    2    0    0  0.11452026818E+03 -0.14043866605E+03 -0.36082709529E+03  0.41260749057E+03  0.84916652278E+02 0.  0.
        -11    1    3    3    0    0 -0.23593275798E+02  0.18333049700E+02 -0.88599036264E+02  0.93501511224E+02  0.00000000000E+00 0.  1.
         12    1    3    3    0    0 -0.28046399575E+03  0.18780075001E+01 -0.42643603642E+03  0.51040304954E+03  0.00000000000E+00 0. -1.
        -13    1    4    4    0    0  0.26492862217E+02 -0.98270728248E+02 -0.20184093713E+03  0.22605037421E+03  0.00000000000E+00 0.  1.
         13    1    4    4    0    0  0.88027405962E+02 -0.42167937807E+02 -0.15898615816E+03  0.18655711637E+03  0.00000000000E+00 0. -1.
         -2    1    1    2    0  502  0.18953700337E+03  0.12022760885E+03  0.11721988436E+03  0.25321819616E+03  0.00000000000E+00 0.  1.
<scales pt_clust_5="13000.00000" pt_clust_6="13000.00000" pt_clust_7="13000.00000" pt_clust_8="13000.00000" pt_clust_9="13000.00000"></scales>
<clustering>
<clus scale="   81.119">  5  6 -1 -1</clus>
<clus scale="   84.917">  7  8 -1 -1</clus>
<clus scale="  224.453">  7  9 -1 -1</clus>
<clus scale="  315.340">  2  5  1 -1</clus>
<clus scale="  619.661">  1  5  2 -1</clus>
</clustering>
</event>
<event>
 9    2  0.4178938E-005  0.5075553E+03  0.7546771E-02  0.1074251E+00
         21   -1    0    0  501  502  0.00000000000E+00  0.00000000000E+00  0.33314680701E+03  0.33314680701E+03  0.00000000000E+00 0. -1.
          2   -1    0    0  502    0 -0.00000000000E+00 -0.00000000000E+00 -0.30472244813E+03  0.30472244813E+03  0.00000000000E+00 0. -1.
         24    2    1    2    0    0 -0.10930636540E+02 -0.55592943813E+01 -0.83686367580E+02  0.11807972596E+03  0.82395564167E+02 0.  0.
         23    2    1    2    0    0 -0.21069836082E+03 -0.27028730929E+02 -0.59570768567E+02  0.23755571194E+03  0.88089092727E+02 0.  0.
        -11    1    3    3    0    0 -0.28889012716E+02 -0.25875529880E+02 -0.82239582151E+02  0.90925612314E+02  0.00000000000E+00 0.  1.
         12    1    3    3    0    0  0.17958376176E+02  0.20316235499E+02 -0.14467854286E+01  0.27154113644E+02  0.00000000000E+00 0. -1.
        -11    1    4    4    0    0 -0.19123017774E+03  0.30153191904E+01 -0.35781898220E+02  0.19457239596E+03  0.00000000000E+00 0. -1.
         11    1    4    4    0    0 -0.19468183080E+02 -0.30044050120E+02 -0.23788870347E+02  0.42983315977E+02  0.00000000000E+00 0.  1.
          1    1    1    2  501    0  0.22162899736E+03  0.32588025310E+02  0.17168149503E+03  0.28223381725E+03  0.00000000000E+00 0. -1.
<scales pt_clust_5="13000.00000" pt_clust_6="13000.00000" pt_clust_7="13000.00000" pt_clust_8="13000.00000" pt_clust_9="13000.00000"></scales>
<clustering>
<clus scale="   82.396">  5  6 -1 -1</clus>
<clus scale="   83.303">  2  5  1 -1</clus>
<clus scale="   88.089">  7  8 -1 -1</clus>
<clus scale="  220.863">  7  9 -1 -1</clus>
<clus scale="  507.555">  1  5  2 -1</clus>
</clustering>
</event>
<event>
 9    2  0.4178938E-005  0.2838251E+03  0.7546771E-02  0.1121124E+00
         21   -1    0    0  501  502  0.00000000000E+00  0.00000000000E+00  0.24522748239E+03  0.24522748239E+03  0.00000000000E+00 0. -1.
          4   -1    0    0  502    0 -0.00000000000E+00 -0.00000000000E+00 -0.52267394192E+03  0.52267394192E+03  0.00000000000E+00 0. -1.
         24    2    1    2    0    0 -0.11476063477E+03  0.11091278619E+02 -0.42530808020E+03  0.44787060228E+03  0.80050568693E+02 0.  0.
         23    2    1    2    0    0  0.74494674937E+02  0.36208723095E+02 -0.34124801931E+02  0.12773496744E+03  0.91055980458E+02 0.  0.
        -11    1    3    3    0    0 -0.50611505573E+02  0.11638071400E+02 -0.71937465466E+02  0.88724112506E+02  0.00000000000E+00 0.  1.
         12    1    3    3    0    0 -0.64149129201E+02 -0.54679278132E+00 -0.35337061473E+03  0.35914648977E+03  0.00000000000E+00 0. -1.
        -11    1    4    4    0    0  0.64386238478E+02 -0.15685659894E+02 -0.34820847194E+02  0.74860664109E+02  0.00000000000E+00 0.  1.
         11    1    4    4    0    0  0.10108436459E+02  0.51894382988E+02  0.69604526247E+00  0.52874303328E+02  0.00000000000E+00 0. -1.
          3    1    1    2  501    0  0.40265959837E+02 -0.47300001714E+02  0.18198642260E+03  0.19229585460E+03  0.00000000000E+00 0. -1.
<scales pt_clust_5="13000.00000" pt_clust_6="13000.00000" pt_clust_7="13000.00000" pt_clust_8="13000.00000" pt_clust_9="13000.00000"></scales>
<clustering>
<clus scale="   80.051">  5  6 -1 -1</clus>
<clus scale="   91.056">  7  8 -1 -1</clus>
<clus scale="   62.118">  7  9 -1 -1</clus>
<clus scale="  140.361">  2  5  1 -1</clus>
<clus scale="  283.825">  1  5  2 -1</clus>
</clustering>
</event>
<event>
 9    2  0.4178938E-005  0.2185057E+03  0.7546771E-02  0.1148508E+00
         21   -1    0    0  501  502  0.00000000000E+00  0.00000000000E+00  0.46017875503E+02  0.46017875503E+02  0.00000000000E+00 0.  1.
          4   -1    0    0  502    0 -0.00000000000E+00 -0.00000000000E+00 -0.97589757232E+03  0.97589757232E+03  0.00000000000E+00 0. -1.
         24    2    1    2    0    0  0.13498205383E+03  0.15895408860E+02 -0.17349122084E+03  0.23459831250E+03  0.80401154471E+02 0.  0.
         23    2    1    2    0    0 -0.21385169291E+02 -0.75937693431E+01 -0.20131604167E+03  0.22067917620E+03  0.87499482139E+02 0.  0.
        -13    1    3    3    0    0  0.93382935490E+02  0.45893843243E+02 -0.95366366775E+02  0.14114305296E+03  0.00000000000E+00 0.  1.
         14    1    3    3    0    0  0.41599118340E+02 -0.29998434383E+02 -0.78124854069E+02  0.93455259539E+02  0.00000000000E+00 0. -1.
        -13    1    4    4    0    0 -0.31644322671E+01  0.31863331441E+02 -0.15024282143E+03  0.15361702677E+03  0.00000000000E+00 0. -1.
         13    1    4    4    0    0 -0.18220737024E+02 -0.39457100784E+02 -0.51073220234E+02  0.67062149422E+02  0.00000000000E+00 0.  1.
          3    1    1    2  501    0 -0.11359688454E+03 -0.83016395170E+01 -0.55507243431E+03  0.56663795913E+03  0.00000000000E+00 0. -1.
<scales pt_clust_5="13000.00000" pt_clust_6="13000.00000" pt_clust_7="13000.00000" pt_clust_8="13000.00000" pt_clust_9="13000.00000"></scales>
<clustering>
<clus scale="   80.401">  5  6 -1 -1</clus>
<clus scale="   87.499">  7  8 -1 -1</clus>
<clus scale="  113.900">  7  9 -1 -1</clus>
<clus scale="  157.915">  2  5  1 -1</clus>
<clus scale="  218.506">  1  5  2 -1</clus>
</clustering>
</event>
<event>
 9    2  0.4178938E-005  0.3114390E+03  0.7546771E-02  0.1099235E+00
          2   -1    0    0  502    0 -0.00000000000E+00  0.00000000000E+00  0.22849302479E+03  0.22849302479E+03  0.00000000000E+00 0. -1.
         21   -1    0    0  501  502  0.00000000000E+00 -0.00000000000E+00 -0.35664288605E+03  0.35664288605E+03  0.00000000000E+00 0. -1.
         24    2    1    2    0    0 -0.85072076258E+02 -0.14314315325E+03  0.88715583470E+02  0.20562983942E+03  0.81767693050E+02 0.  0.
         23    2    1    2    0    0  0.50633928444E+02 -0.28412289963E+02 -0.16444165162E+03  0.19684378684E+03  0.91298229442E+02 0.  0.
        -11    1    3    3    0    0  0.51059945617E+01 -0.67637995417E+02  0.29872997537E+02  0.74117242166E+02  0.00000000000E+00 0.  1.
         12    1    3    3    0    0 -0.90178070820E+02 -0.75505157834E+02  0.58842585933E+02  0.13151259725E+03  0.00000000000E+00 0. -1.
        -11    1    4    4    0    0  0.36414886032E+02 -0.15894858538E+01 -0.16237407166E+03  0.16641487174E+03  0.00000000000E+00 0. -1.
         11    1    4    4    0    0  0.14219042413E+02 -0.26822804109E+02 -0.20675799678E+01  0.30428915103E+02  0.00000000000E+00 0.  1.
          1    1    1    2  501    0  0.34438147814E+02  0.17155544321E+03 -0.52423793105E+02  0.18266228457E+03  0.00000000000E+00 0. -1.
<scales pt_clust_5="13000.00000" pt_clust_6="13000.00000" pt_clust_7="13000.00000" pt_clust_8="13000.00000" pt_clust_9="13000.00000"></scales>
<clustering>
<clus scale="   81.768">  5  6 -1 -1</clus>
<clus scale="   91.298">  7  8 -1 -1</clus>
<clus scale="  174.978">  7  9 -1 -1</clus>
<clus scale="  185.508">  1  5  2 -1</clus>
<clus scale="  311.439">  2  5  1 -1</clus>
</clustering>
</event>
<event>
 9    2  0.4178938E-005  0.1809684E+03  0.7546771E-02  0.1198325E+00
         -1   -1    0    0    0  501 -0.00000000000E+00  0.00000000000E+00  0.33130586767E+02  0.33130586767E+02  0.00000000000E+00 0.  1.
         21   -1    0    0  501  502  0.00000000000E+00 -0.00000000000E+00 -0.73566255493E+03  0.73566255493E+03  0.00000000000E+00 0.  1.
         24    2    1    2    0    0  0.33721774671E+02 -0.43443984197E+00 -0.78500465916E+02  0.11905097775E+03  0.82906364824E+02 0.  0.
         23    2    1    2    0    0  0.37284836885E+02 -0.23875843788E+01 -0.33588350262E+03  0.35296080942E+03  0.10182212940E+03 0.  0.
        -11    1    3    3    0    0  0.20358853882E+02  0.24862503021E+02 -0.83982989308E+02  0.89920906807E+02  0.00000000000E+00 0.  1.
         12    1    3    3    0    0  0.13362920789E+02 -0.25296942862E+02  0.54825233919E+01  0.29130070940E+02  0.00000000000E+00 0. -1.
        -13    1    4    4    0    0  0.49421834179E+02 -0.36149111132E+02 -0.27951736263E+03  0.28614547339E+03  0.00000000000E+00 0.  1.
         13    1    4    4    0    0 -0.12136997294E+02  0.33761526754E+02 -0.56366139988E+02  0.66815336033E+02  0.00000000000E+00 0. -1.
         -2    1    1    2    0  502 -0.71006611556E+02  0.28220242208E+01 -0.28814799963E+03  0.29678135453E+03  0.00000000000E+00 0.  1.
<scales pt_clust_5="13000.00000" pt_clust_6="13000.00000" pt_clust_7="13000.00000" pt_clust_8="13000.00000" pt_clust_9="13000.00000"></scales>
<clustering>
<clus scale="   82.906">  5  6 -1 -1</clus>
<clus scale="   89.503">  1  5  2 -1</clus>
<clus scale="  101.822">  7  8 -1 -1</clus>
<clus scale="   59.743">  7  9 -1 -1</clus>
<clus scale="  180.968">  2  5  1 -1</clus>
</clustering>
</event>
<event>
 9    2  0.5467281E-005  0.6619733E+03  0.7546771E-02  0.1030160E+00
          4   -1    0    0  502    0 -0.00000000000E+00  0.00000000000E+00  0.10451276317E+03  0.10451276317E+03  0.00000000000E+00 0. -1.
         21   -1    0    0  501  502  0.00000000000E+00 -0.00000000000E+00 -0.15173362237E+04  0.15173362237E+04  0.00000000000E+00 0. -1.
         24    2    1    2    0    0  0.14789038010E+02  0.94055535964E+02 -0.18524213597E+03  0.22715744481E+03  0.90668055584E+02 0.  0.
         23    2    1    2    0    0  0.15612464133E+02  0.76333202262E+02  0.31657678325E+02  0.12361348001E+03  0.90595678916E+02 0.  0.
        -11    1    3    3    0    0  0.23032312018E+02 -0.65748678999E+01 -0.69776534057E+02  0.73773172561E+02  0.00000000000E+00 0.  1.
         12    1    3    3    0    0 -0.82432740079E+01  0.10063040386E+03 -0.11546560192E+03  0.15338427225E+03  0.00000000000E+00 0. -1.
        -11    1    4    4    0    0 -0.29853709974E+02  0.24114268482E+02 -0.13804370288E+02  0.40783606789E+02  0.00000000000E+00 0.  1.
         11    1    4    4    0    0  0.45466174107E+02  0.52218933780E+02  0.45462048613E+02  0.82829873217E+02  0.00000000000E+00 0. -1.
          3    1    1    2  501    0 -0.30401502144E+02 -0.17038873823E+03 -0.12592390029E+04  0.12710780621E+04  0.00000000000E+00 0. -1.
<scales pt_clust_5="13000.00000" pt_clust_6="13000.00000" pt_clust_7="13000.00000" pt_clust_8="13000.00000" pt_clust_9="13000.00000"></scales>
<clustering>
<clus scale="   90.596">  7  8 -1 -1</clus>
<clus scale="   90.668">  5  6 -1 -1</clus>
<clus scale="  131.476">  1  5  2 -1</clus>
<clus scale="  166.336">  7  9 -1 -1</clus>
<clus scale="  661.973">  2  5  1 -1</clus>
</clustering>
</event>
<event>
 9    2  0.4178938E-005  0.3264403E+03  0.7546771E-02  0.1100111E+00
          2   -1    0    0  502    0 -0.00000000000E+00  0.00000000000E+00  0.98395011607E+03  0.98395011607E+03  0.00000000000E+00 0. -1.
         21   -1    0    0  501  502  0.00000000000E+00 -0.00000000000E+00 -0.68096265333E+02  0.68096265333E+02  0.00000000000E+00 0.  1.
         24    2    1    2    0    0  0.95607519074E+02  0.97315163523E+02  0.49490861338E+03  0.51935681767E+03  0.78650681520E+02 0.  0.
         23    2    1    2    0    0 -0.99417169391E+02 -0.17169784604E+03  0.18734369575E+03  0.28750192715E+03  0.90530513503E+02 0.  0.
        -11    1    3    3    0    0 -0.56429488432E+01  0.32204711373E+02  0.62900151510E+02  0.70890164101E+02  0.00000000000E+00 0.  1.
         12    1    3    3    0    0  0.10125046792E+03  0.65110452150E+02  0.43200846187E+03  0.44846665357E+03  0.00000000000E+00 0. -1.
        -13    1    4    4    0    0 -0.27632975421E+02 -0.74566406667E+02  0.13322304126E+03  0.15515189028E+03  0.00000000000E+00 0. -1.
         13    1    4    4    0    0 -0.71784193970E+02 -0.97131439370E+02  0.54120654486E+02  0.13235003687E+03  0.00000000000E+00 0.  1.
          1    1    1    2  501    0  0.38096503167E+01  0.74382682514E+02  0.23360154160E+03  0.24518763658E+03  0.00000000000E+00 0. -1.
<scales pt_clust_5="13000.00000" pt_clust_6="13000.00000" pt_clust_7="13000.00000" pt_clust_8="13000.00000" pt_clust_9="13000.00000"></scales>
<clustering>
<clus scale="   78.651">  5  6 -1 -1</clus>
<clus scale="   90.531">  7  8 -1 -1</clus>
<clus scale="   74.480">  7  9 -1 -1</clus>
<clus scale="  157.471">  1  5  2 -1</clus>
<clus scale="  326.440">  2  5  1 -1</clus>
</clustering>
</event>
<event>
 9    2  0.4178938E-005  0.2277971E+03  0.7546771E-02  0.1167001E+00
         21   -1    0    0  501  502  0.00000000000E+00  0.00000000000E+00  0.76917279118E+02  0.76917279118E+02  0.00000000000E+00 0. -1.
          2   -1    0    0  502    0 -0.00000000000E+00 -0.00000000000E+00 -0.40521732761E+03  0.40521732761E+03  0.00000000000E+00 0. -1.
         24    2    1    2    0    0 -0.27645592731E+02  0.29816588332E+02 -0.20278710609E+03  0.22204803215E+03  0.80804767484E+02 0.  0.
         23    2    1    2    0    0 -0.68317752157E+02 -0.51417292315E+02 -0.95399737402E+02  0.15721598068E+03  0.91130134832E+02 0.  0.
        -13    1    3    3    0    0  0.17327060348E+02 -0.17832701011E+02 -0.59846811789E+02  0.64806428130E+02  0.00000000000E+00 0.  1.
         14    1    3    3    0    0 -0.44972653079E+02  0.47649289343E+02 -0.14294029430E+03  0.15724160402E+03  0.00000000000E+00 0. -1.
        -13    1    4    4    0    0 -0.19390161589E+01  0.23757886234E+02 -0.11519260771E+02  0.26474333055E+02  0.00000000000E+00 0.  1.
         13    1    4    4    0    0 -0.66378735998E+02 -0.75175178550E+02 -0.83880476631E+02  0.13074164762E+03  0.00000000000E+00 0. -1.
          1    1    1    2  501    0  0.95963344888E+02  0.21600703984E+02 -0.30113205002E+02  0.10287059390E+03  0.00000000000E+00 0. -1.
<scales pt_clust_5="13000.00000" pt_clust_6="13000.00000" pt_clust_7="13000.00000" pt_clust_8="13000.00000" pt_clust_9="13000.00000"></scales>
<clustering>
<clus scale="   80.805">  5  6 -1 -1</clus>
<clus scale="   90.458">  2  5  1 -1</clus>
<clus scale="   91.130">  7  8 -1 -1</clus>
<clus scale="   92.123">  7  9 -1 -1</clus>
<clus scale="  227.797">  1  5  2 -1</clus>
</clustering>
</event>
<event>
 9    2  0.4178938E-005  0.3274455E+03  0.7546771E-02  0.1124399E+00
         21   -1    0    0  501  502  0.00000000000E+00  0.00000000000E+00  0.23967707943E+03  0.23967707943E+03  0.00000000000E+00 0. -1.
          2   -1    0    0  502    0 -0.00000000000E+00 -0.00000000000E+00 -0.11225474866E+04  0.11225474866E+04  0.00000000000E+00 0. -1.
         24    2    1    2    0    0  0.22844955708E+01 -0.22623690583E+02 -0.10081256269E+04  0.10116401789E+04  0.81126578144E+02 0.  0.
         23    2    1    2    0    0 -0.10982793450E+03 -0.92335603887E+02  0.70157395887E+02  0.18380009277E+03  0.90952597335E+02 0.  0.
        -13    1    3    3    0    0  0.22025745046E+02 -0.85038961410E+01 -0.85631492050E+02  0.88826809721E+02  0.00000000000E+00 0.  1.
         14    1    3    3    0    0 -0.19741249476E+02 -0.14119794442E+02 -0.92249413489E+03  0.92281336923E+03  0.00000000000E+00 0. -1.
        -13    1    4    4    0    0 -0.82233689075E+02 -0.98172567835E+01  0.31854040101E+02  0.88732395552E+02  0.00000000000E+00 0. -1.
         13    1    4    4    0    0 -0.27594245422E+02 -0.82518347103E+02  0.38303355785E+02  0.95067697214E+02  0.00000000000E+00 0.  1.
          1    1    1    2  501    0  0.10754343893E+03  0.11495929447E+03  0.55097823870E+02  0.16678429433E+03  0.00000000000E+00 0. -1.
<scales pt_clust_5="13000.00000" pt_clust_6="13000.00000" pt_clust_7="13000.00000" pt_clust_8="13000.00000" pt_clust_9="13000.00000"></scales>
<clustering>
<clus scale="   81.127">  5  6 -1 -1</clus>
<clus scale="   84.253">  2  5  1 -1</clus>
<clus scale="   90.953">  7  8 -1 -1</clus>
<clus scale="  150.245">  7  9 -1 -1</clus>
<clus scale="  327.445">  1  5  2 -1</clus>
</clustering>
</event>
<event>
 9    2  0.4178938E-005  0.3557194E+03  0.7546771E-02  0.1113829E+00
         21   -1    0    0  501  502  0.00000000000E+00  0.00000000000E+00  0.80804625339E+03  0.80804625339E+03  0.00000000000E+00 0.  1.
          2   -1    0    0  502    0 -0.00000000000E+00 -0.00000000000E+00 -0.66274547742E+02  0.66274547742E+02  0.00000000000E+00 0. -1.
         24    2    1    2    0    0  0.12883564826E+02  0.86525743046E+01  0.27137268365E+03  0.28456530725E+03  0.84222487323E+02 0.  0.
         23    2    1    2    0    0  0.98734113122E+02 -0.81133356211E+02  0.40718008875E+03  0.44241709666E+03  0.11664568641E+03 0.  0.
        -13    1    3    3    0    0 -0.35552369738E+02  0.61702327220E+01  0.94207253696E+02  0.10088136307E+03  0.00000000000E+00 0.  1.
         14    1    3    3    0    0  0.48435934564E+02  0.24823415826E+01  0.17716542996E+03  0.18368394418E+03  0.00000000000E+00 0. -1.
        -13    1    4    4    0    0 -0.10145662355E+02 -0.60307004827E+02  0.16837945064E+03  0.17914103018E+03  0.00000000000E+00 0.  1.
         13    1    4    4    0    0  0.10887977548E+03 -0.20826351384E+02  0.23880063811E+03  0.26327606648E+03  0.00000000000E+00 0. -1.
          1    1    1    2  501    0 -0.11161767795E+03  0.72480781906E+02  0.63218933247E+02  0.14733839723E+03  0.00000000000E+00 0. -1.
<scales pt_clust_5="13000.00000" pt_clust_6="13000.00000" pt_clust_7="13000.00000" pt_clust_8="13000.00000" pt_clust_9="13000.00000"></scales>
<clustering>
<clus scale="   84.222">  5  6 -1 -1</clus>
<clus scale="   85.640">  2  5  1 -1</clus>
<clus scale="  116.646">  7  8 -1 -1</clus>
<clus scale="  129.184">  7  9 -1 -1</clus>
<clus scale="  355.719">  1  5  2 -1</clus>
</clustering>
</event>
<event>
 9    2  0.4178938E-005  0.1491274E+03  0.7546771E-02  0.1227911E+00
          2   -1    0    0  502    0 -0.00000000000E+00  0.00000000000E+00  0.15825452337E+03  0.15825452337E+03  0.00000000000E+00 0. -1.
         21   -1    0    0  501  502  0.00000000000E+00 -0.00000000000E+00 -0.86825693630E+02  0.86825693630E+02  0.00000000000E+00 0.  1.
         24    2    1    2    0    0  0.15396855897E+02  0.24710050988E+02  0.25531260308E+02  0.89049536375E+02  0.80189306546E+02 0.  0.
         23    2    1    2    0    0  0.23349972134E+02 -0.26317758300E+01  0.35919225295E+01  0.94560893931E+02  0.91524386427E+02 0.  0.
        -13    1    3    3    0    0  0.41567376823E+02  0.10689671908E+02 -0.86412640252E+01  0.43781130015E+02  0.00000000000E+00 0.  1.
         14    1    3    3    0    0 -0.26170520926E+02  0.14020379080E+02  0.34172524333E+02  0.45268406360E+02  0.00000000000E+00 0. -1.
        -11    1    4    4    0    0 -0.15610020506E+02  0.35772214817E+02  0.73898151377E+01  0.39723210607E+02  0.00000000000E+00 0.  1.
         11    1    4    4    0    0  0.38959992640E+02 -0.38403990647E+02 -0.37978926083E+01  0.54837683324E+02  0.00000000000E+00 0. -1.
          1    1    1    2  501    0 -0.38746828031E+02 -0.22078275158E+02  0.42305646900E+02  0.61469786692E+02  0.00000000000E+00 0. -1.
<scales pt_clust_5="13000.00000" pt_clust_6="13000.00000" pt_clust_7="13000.00000" pt_clust_8="13000.00000" pt_clust_9="13000.00000"></scales>
<clustering>
<clus scale="   80.189">  5  6 -1 -1</clus>
<clus scale="   85.311">  1  5  2 -1</clus>
<clus scale="   91.524">  7  8 -1 -1</clus>
<clus scale="   32.229">  7  9 -1 -1</clus>
<clus scale="  149.127">  2  5  1 -1</clus>
</clustering>
</event>
<event>
 9    2  0.4178938E-005  0.5229088E+03  0.7546771E-02  0.1059545E+00
          2   -1    0    0  502    0 -0.00000000000E+00  0.00000000000E+00  0.19822751156E+03  0.19822751156E+03  0.00000000000E+00 0. -1.
         21   -1    0    0  501  502  0.00000000000E+00 -0.00000000000E+00 -0.53626352276E+03  0.53626352276E+03  0.00000000000E+00 0.  1.
         24    2    1    2    0    0  0.54760180200E+02  0.65307171191E+02 -0.48421098189E+01  0.11444926580E+03  0.76233093005E+02 0.  0.
         23    2    1    2    0    0  0.18015058907E+03 -0.74922637413E+02 -0.31864204699E+03  0.38448438024E+03  0.90707487021E+02 0.  0.
        -11    1    3    3    0    0  0.71123489535E+02  0.57185589019E+02 -0.16551482197E+02  0.92750708450E+02  0.00000000000E+00 0.  1.
         12    1    3    3    0    0 -0.16363309335E+02  0.81215821724E+01  0.11709372378E+02  0.21698557345E+02  0.00000000000E+00 0. -1.
        -11    1    4    4    0    0  0.15688295518E+03 -0.50305654227E+02 -0.19011337645E+03  0.25156712102E+03  0.00000000000E+00 0.  1.
         11    1    4    4    0    0  0.23267633888E+02 -0.24616983186E+02 -0.12852867054E+03  0.13291725922E+03  0.00000000000E+00 0. -1.
          1    1    1    2  501    0 -0.23491076927E+03  0.96154662214E+01 -0.14551854392E+02  0.23555738829E+03  0.00000000000E+00 0. -1.
<scales pt_clust_5="13000.00000" pt_clust_6="13000.00000" pt_clust_7="13000.00000" pt_clust_8="13000.00000" pt_clust_9="13000.00000"></scales>
<clustering>
<clus scale="   76.233">  5  6 -1 -1</clus>
<clus scale="   90.707">  7  8 -1 -1</clus>
<clus scale="  114.347">  1  5  2 -1</clus>
<clus scale="  201.824">  7  9 -1 -1</clus>
<clus scale="  522.909">  2  5  1 -1</clus>
</clustering>
</event>
<event>
 9    2  0.4178938E-005  0.7641042E+03  0.7546771E-02  0.1031318E+00
          2   -1    0    0  502    0 -0.00000000000E+00  0.00000000000E+00  0.21367167464E+03  0.21367167464E+03  0.00000000000E+00 0. -1.
         21   -1    0    0  501  502  0.00000000000E+00 -0.00000000000E+00 -0.92169822630E+03  0.92169822630E+03  0.00000000000E+00 0. -1.
         24    2    1    2    0    0  0.12017305874E+02 -0.79654864799E+01 -0.20376669162E+03  0.21987372748E+03  0.81337118244E+02 0.  0.
         23    2    1    2    0    0  0.25675839214E+03 -0.80893326135E+02  0.54119956838E+02  0.28945760891E+03  0.91586764781E+02 0.  0.
        -11    1    3    3    0    0  0.33947870456E+02  0.64370785094E+01 -0.18348904563E+03  0.18671401596E+03  0.00000000000E+00 0.  1.
         12    1    3    3    0    0 -0.21930564582E+02 -0.14402564989E+02 -0.20277645993E+02  0.33159711521E+02  0.00000000000E+00 0. -1.
        -13    1    4    4    0    0  0.21575143081E+02 -0.34950120823E+02  0.24956775750E+02  0.48060778192E+02  0.00000000000E+00 0.  1.
         13    1    4    4    0    0  0.23518324905E+03 -0.45943205312E+02  0.29163181088E+02  0.24139683072E+03  0.00000000000E+00 0. -1.
          1    1    1    2  501    0 -0.26877569801E+03  0.88858812615E+02 -0.55837981687E+03  0.62603856455E+03  0.00000000000E+00 0. -1.
<scales pt_clust_5="13000.00000" pt_clust_6="13000.00000" pt_clust_7="13000.00000" pt_clust_8="13000.00000" pt_clust_9="13000.00000"></scales>
<clustering>
<clus scale="   81.337">  5  6 -1 -1</clus>
<clus scale="   82.605">  1  5  2 -1</clus>
<clus scale="   91.587">  7  8 -1 -1</clus>
<clus scale="  280.796">  7  9 -1 -1</clus>
<clus scale="  764.104">  2  5  1 -1</clus>
</clustering>
</event>
<event>
 9    2  0.4178938E-005  0.4902624E+03  0.7546771E-02  0.1066405E+00
         21   -1    0    0  501  502  0.00000000000E+00  0.00000000000E+00  0.20813126799E+03  0.20813126799E+03  0.00000000000E+00 0. -1.
          2   -1    0    0  502    0 -0.00000000000E+00 -0.00000000000E+00 -0.48168304588E+03  0.48168304588E+03  0.00000000000E+00 0. -1.
         24    2    1    2    0    0 -0.54692926136E+02  0.65557925996E+02 -0.14144321882E+03  0.18206451345E+03  0.76499314214E+02 0.  0.
         23    2    1    2    0    0 -0.17469215565E+03 -0.14784927845E+03 -0.52076507474E+02  0.25124539166E+03  0.89641094475E+02 0.  0.
        -11    1    3    3    0    0 -0.41580825217E+02  0.75014042205E+02 -0.75808945634E+02  0.11446863235E+03  0.00000000000E+00 0.  1.
         12    1    3    3    0    0 -0.13112100920E+02 -0.94561162090E+01 -0.65634273190E+02  0.67595881099E+02  0.00000000000E+00 0. -1.
        -13    1    4    4    0    0 -0.81467778449E+01 -0.34085959792E+02 -0.33862990843E+02  0.48733200111E+02  0.00000000000E+00 0.  1.
         13    1    4    4    0    0 -0.16654537780E+03 -0.11376331866E+03 -0.18213516631E+02  0.20251219155E+03  0.00000000000E+00 0. -1.
          1    1    1    2  501    0  0.22938508179E+03  0.82291352451E+02 -0.80032051586E+02  0.25650440876E+03  0.00000000000E+00 0. -1.
<scales pt_clust_5="13000.00000" pt_clust_6="13000.00000" pt_clust_7="13000.00000" pt_clust_8="13000.00000" pt_clust_9="13000.00000"></scales>
<clustering>
<clus scale="   76.499">  5  6 -1 -1</clus>
<clus scale="   89.641">  7  8 -1 -1</clus>
<clus scale="  114.636">  2  5  1 -1</clus>
<clus scale="  232.129">  7  9 -1 -1</clus>
<clus scale="  490.262">  1  5  2 -1</clus>
</clustering>
</event>
<event>
 9    2  0.4178938E-005  0.6951212E+03  0.7546771E-02  0.1019730E+00
         -1   -1    0    0    0  501 -0.00000000000E+00  0.00000000000E+00  0.10902587625E+04  0.10902587625E+04  0.00000000000E+00 0.  1.
         21   -1    0    0  501  502  0.00000000000E+00 -0.00000000000E+00 -0.17359472531E+03  0.17359472531E+03  0.00000000000E+00 0.  1.
         24    2    1    2    0    0  0.10515995810E+03 -0.80399011902E+02  0.28535376682E+03  0.32484009630E+03  0.81066010295E+02 0.  0.
         23    2    1    2    0    0  0.10449432139E+03  0.13411199347E+03 -0.70259980087E+02  0.20481939969E+03  0.90052383046E+02 0.  0.
        -13    1    3    3    0    0  0.45952072575E+02 -0.12115050793E+02  0.17934427028E+03  0.18553364846E+03  0.00000000000E+00 0.  1.
         14    1    3    3    0    0  0.59207885525E+02 -0.68283961109E+02  0.10600949654E+03  0.13930644784E+03  0.00000000000E+00 0. -1.
        -13    1    4    4    0    0  0.82284478960E+02  0.36481430383E+02 -0.48925449344E+02  0.10244671705E+03  0.00000000000E+00 0.  1.
         13    1    4    4    0    0  0.22209842429E+02  0.97630563082E+02 -0.21334530743E+02  0.10237268264E+03  0.00000000000E+00 0. -1.
         -2    1    1    2    0  502 -0.20965427949E+03 -0.53712981564E+02  0.70157025042E+03  0.73419399178E+03  0.00000000000E+00 0.  1.
<scales pt_clust_5="13000.00000" pt_clust_6="13000.00000" pt_clust_7="13000.00000" pt_clust_8="13000.00000" pt_clust_9="13000.00000"></scales>
<clustering>
<clus scale="   81.066">  5  6 -1 -1</clus>
<clus scale="   90.052">  7  8 -1 -1</clus>
<clus scale="  155.223">  1  5  2 -1</clus>
<clus scale="  170.497">  7  9 -1 -1</clus>
<clus scale="  695.121">  2  5  1 -1</clus>
</clustering>
</event>
<event>
 9    2  0.4178938E-005  0.2846158E+03  0.7546771E-02  0.1134598E+00
          2   -1    0    0  502    0 -0.00000000000E+00  0.00000000000E+00  0.40034739987E+03  0.40034739987E+03  0.00000000000E+00 0. -1.
         21   -1    0    0  501  502  0.00000000000E+00 -0.00000000000E+00 -0.95372129590E+02  0.95372129590E+02  0.00000000000E+00 0.  1.
         24    2    1    2    0    0  0.71528687561E+02  0.52581990624E+01  0.42382513802E+02  0.10847142704E+03  0.69467770983E+02 0.  0.
         23    2    1    2    0    0  0.28228741028E+02  0.13011407307E+02 -0.12332107404E+02  0.94213968139E+02  0.88079693343E+02 0.  0.
        -11    1    3    3    0    0  0.74376276328E+02 -0.14603098345E+02  0.45138179870E+02  0.88218684210E+02  0.00000000000E+00 0.  1.
         12    1    3    3    0    0 -0.28475887668E+01  0.19861297407E+02 -0.27556660684E+01  0.20252742826E+02  0.00000000000E+00 0. -1.
        -13    1    4    4    0    0  0.39283142599E+02 -0.23625183569E+02  0.13802861474E+02  0.47873098668E+02  0.00000000000E+00 0. -1.
         13    1    4    4    0    0 -0.11054401571E+02  0.36636590876E+02 -0.26134968878E+02  0.46340869472E+02  0.00000000000E+00 0.  1.
          1    1    1    2  501    0 -0.99757428589E+02 -0.18269606370E+02  0.27492486388E+03  0.29303413428E+03  0.00000000000E+00 0. -1.
<scales pt_clust_5="13000.00000" pt_clust_6="13000.00000" pt_clust_7="13000.00000" pt_clust_8="13000.00000" pt_clust_9="13000.00000"></scales>
<clustering>
<clus scale="   69.468">  5  6 -1 -1</clus>
<clus scale="   88.080">  7  8 -1 -1</clus>
<clus scale="   99.849">  1  5  2 -1</clus>
<clus scale="   39.673">  7  9 -1 -1</clus>
<clus scale="  284.616">  2  5  1 -1</clus>
</clustering>
</event>
<event>
 9    2  0.4178938E-005  0.4579127E+03  0.7546771E-02  0.1027463E+00
          2   -1    0    0  502    0 -0.00000000000E+00  0.00000000000E+00  0.73283141624E+03  0.73283141624E+03  0.00000000000E+00 0. -1.
         21   -1    0    0  501  502  0.00000000000E+00 -0.00000000000E+00 -0.27408488853E+03  0.27408488853E+03  0.00000000000E+00 0. -1.
         24    2    1    2    0    0 -0.11890742431E+03  0.40576357141E+03  0.15510705992E+03  0.45747934688E+03  0.80287616401E+02 0.  0.
         23    2    1    2    0    0  0.61740142503E+01 -0.13708294381E+03  0.12731969426E+03  0.20886866235E+03  0.92660464220E+02 0.  0.
        -13    1    3    3    0    0 -0.17759476177E+02  0.31296335202E+02 -0.77187078703E+01  0.36802690695E+02  0.00000000000E+00 0.  1.
         14    1    3    3    0    0 -0.10114794813E+03  0.37446723621E+03  0.16282576779E+03  0.42067665619E+03  0.00000000000E+00 0. -1.
        -13    1    4    4    0    0  0.42505469443E+02 -0.74703463109E+02  0.37868030839E+02  0.93921829692E+02  0.00000000000E+00 0.  1.
         13    1    4    4    0    0 -0.36331455192E+02 -0.62379480697E+02  0.89451663425E+02  0.11494683266E+03  0.00000000000E+00 0. -1.
          1    1    1    2  501    0  0.11273341006E+03 -0.26868062760E+03  0.17631977353E+03  0.34056829554E+03  0.00000000000E+00 0. -1.
<scales pt_clust_5="13000.00000" pt_clust_6="13000.00000" pt_clust_7="13000.00000" pt_clust_8="13000.00000" pt_clust_9="13000.00000"></scales>
<clustering>
<clus scale="   80.288">  5  6 -1 -1</clus>
<clus scale="   92.660">  7  8 -1 -1</clus>
<clus scale="  291.373">  7  9 -1 -1</clus>
<clus scale="  430.383">  1  5  2 -1</clus>
<clus scale="  457.913">  2  5  1 -1</clus>
</clustering>
</event>
<event>
 9    2  0.4178938E-005  0.2985224E+03  0.7546771E-02  0.1130803E+00
          2   -1    0    0  502    0 -0.00000000000E+00  0.00000000000E+00  0.46780144153E+03  0.46780144153E+03  0.00000000000E+00 0. -1.
         21   -1    0    0  501  502  0.00000000000E+00 -0.00000000000E+00 -0.82855058314E+02  0.82855058314E+02  0.00000000000E+00 0.  1.
         24    2    1    2    0    0  0.46192296925E+02 -0.33265138325E+02  0.84127167513E+02  0.12685489928E+03  0.75990048258E+02 0.  0.
         23    2    1    2    0    0  0.73257614648E+02  0.51520294364E+02  0.37582000800E+02  0.13415463717E+03  0.92542104223E+02 0.  0.
        -13    1    3    3    0    0  0.60094139692E+02 -0.45760227834E+02  0.60806199370E+02  0.96967509809E+02  0.00000000000E+00 0.  1.
         14    1    3    3    0    0 -0.13901842767E+02  0.12495089509E+02  0.23320968143E+02  0.29887389469E+02  0.00000000000E+00 0. -1.
        -11    1    4    4    0    0 -0.19525052683E+02 -0.47734574623E+01  0.34881106261E+01  0.20400502302E+02  0.00000000000E+00 0. -1.
         11    1    4    4    0    0  0.92782667331E+02  0.56293751826E+02  0.34093890174E+02  0.11375413486E+03  0.00000000000E+00 0.  1.
          1    1    1    2  501    0 -0.11944991157E+03 -0.18255156039E+02  0.26323721490E+03  0.28964696340E+03  0.00000000000E+00 0. -1.
<scales pt_clust_5="13000.00000" pt_clust_6="13000.00000" pt_clust_7="13000.00000" pt_clust_8="13000.00000" pt_clust_9="13000.00000"></scales>
<clustering>
<clus scale="   75.990">  5  6 -1 -1</clus>
<clus scale="   92.542">  7  8 -1 -1</clus>
<clus scale="   94.946">  1  5  2 -1</clus>
<clus scale="   94.840">  7  9 -1 -1</clus>
<clus scale="  298.522">  2  5  1 -1</clus>
</clustering>
</event>
<event>
 9    2  0.4178938E-005  0.2479200E+03  0.7546771E-02  0.1156904E+00
          4   -1    0    0  502    0 -0.00000000000E+00  0.00000000000E+00  0.69650508340E+03  0.69650508340E+03  0.00000000000E+00 0. -1.
         21   -1    0    0  501  502  0.00000000000E+00 -0.00000000000E+00 -0.41068679511E+02  0.41068679511E+02  0.00000000000E+00 0.  1.
         24    2    1    2    0    0 -0.32181220923E+02 -0.18203955579E+02  0.14215873610E+03  0.16755771613E+03  0.80619271920E+02 0.  0.
         23    2    1    2    0    0 -0.39876940707E+02 -0.78678270753E+02  0.24347878309E+03  0.27443190881E+03  0.90832340440E+02 0.  0.
        -13    1    3    3    0    0 -0.32711556694E+02 -0.48440995355E+02  0.93639205772E+02  0.11038512957E+03  0.00000000000E+00 0.  1.
         14    1    3    3    0    0  0.53033577080E+00  0.30237039775E+02  0.48519530329E+02  0.57172586558E+02  0.00000000000E+00 0. -1.
        -13    1    4    4    0    0 -0.31861543653E+01 -0.36839923024E+02  0.16078571337E+02  0.40321854673E+02  0.00000000000E+00 0. -1.
         13    1    4    4    0    0 -0.36690786341E+02 -0.41838347730E+02  0.22740021176E+03  0.23411005414E+03  0.00000000000E+00 0.  1.
          3    1    1    2  501    0  0.72058161630E+02  0.96882226333E+02  0.26979888469E+03  0.29558413797E+03  0.00000000000E+00 0. -1.
<scales pt_clust_5="13000.00000" pt_clust_6="13000.00000" pt_clust_7="13000.00000" pt_clust_8="13000.00000" pt_clust_9="13000.00000"></scales>
<clustering>
<clus scale="   80.619">  5  6 -1 -1</clus>
<clus scale="   88.693">  1  5  2 -1</clus>
<clus scale="   90.832">  7  8 -1 -1</clus>
<clus scale="  103.390">  7  9 -1 -1</clus>
<clus scale="  247.920">  2  5  1 -1</clus>
</clustering>
</event>
<event>
 9    2  0.4178938E-005  0.3115080E+03  0.7546771E-02  0.1115544E+00
         21   -1    0    0  501  502  0.00000000000E+00  0.00000000000E+00  0.31733320800E+03  0.31733320800E+03  0.00000000000E+00 0.  1.
         -1   -1    0    0    0  501 -0.00000000000E+00 -0.00000000000E+00 -0.14950036573E+03  0.14950036573E+03  0.00000000000E+00 0.  1.
         24    2    1    2    0    0  0.14236875476E+02  0.84660645186E+02  0.67693669852E+02  0.13962558725E+03  0.86849054163E+02 0.  0.
         23    2    1    2    0    0  0.10803549605E+03  0.29159564837E+02  0.40626157256E+02  0.14987391750E+03  0.91048107430E+02 0.  0.
        -13    1    3    3    0    0 -0.22512065869E+02  0.54767754887E+02  0.70624316331E+02  0.92163409997E+02  0.00000000000E+00 0.  1.
         14    1    3    3    0    0  0.36748941345E+02  0.29892890299E+02 -0.29306464786E+01  0.47462177248E+02  0.00000000000E+00 0. -1.
        -11    1    4    4    0    0  0.94878324060E+01  0.21674723802E+02  0.45112491424E+02  0.50940646817E+02  0.00000000000E+00 0. -1.
         11    1    4    4    0    0  0.98547663640E+02  0.74848410357E+01 -0.44863341681E+01  0.98933270686E+02  0.00000000000E+00 0.  1.
         -2    1    1    2    0  502 -0.12227237152E+03 -0.11382021002E+03  0.59513015170E+02  0.17733406898E+03  0.00000000000E+00 0.  1.
<scales pt_clust_5="13000.00000" pt_clust_6="13000.00000" pt_clust_7="13000.00000" pt_clust_8="13000.00000" pt_clust_9="13000.00000"></scales>
<clustering>
<clus scale="   86.849">  5  6 -1 -1</clus>
<clus scale="   91.048">  7  8 -1 -1</clus>
<clus scale="  122.118">  2  5  1 -1</clus>
<clus scale="  134.475">  7  9 -1 -1</clus>
<clus scale="  311.508">  1  5  2 -1</clus>
</clustering>
</event>
<event>
 9    2  0.4178938E-005  0.3338149E+03  0.7546771E-02  0.1080677E+00
         21   -1    0    0  501  502  0.00000000000E+00  0.00000000000E+00  0.89164773136E+02  0.89164773136E+02  0.00000000000E+00 0. -1.
          2   -1    0    0  502    0 -0.00000000000E+00 -0.00000000000E+00 -0.15154184964E+04  0.15154184964E+04  0.00000000000E+00 0. -1.
         24    2    1    2    0    0 -0.17650009429E+03  0.15065142860E+03 -0.11356310613E+04  0.11619842297E+04  0.81861507355E+02 0.  0.
         23    2    1    2    0    0  0.36136708637E+02  0.26862912122E+02 -0.90993724064E+02  0.14082936935E+03  0.97599055810E+02 0.  0.
        -13    1    3    3    0    0 -0.57650772303E+01  0.32476313018E+02 -0.88108204357E+02  0.94079767738E+02  0.00000000000E+00 0.  1.
         14    1    3    3    0    0 -0.17073501706E+03  0.11817511558E+03 -0.10475228569E+04  0.10679044619E+04  0.00000000000E+00 0. -1.
        -13    1    4    4    0    0  0.43067588551E+02  0.58115669356E+02 -0.77724944146E+02  0.10617633988E+03  0.00000000000E+00 0. -1.
         13    1    4    4    0    0 -0.69308799143E+01 -0.31252757234E+02 -0.13268779918E+02  0.34653029473E+02  0.00000000000E+00 0.  1.
          1    1    1    2  501    0  0.14036338565E+03 -0.17751434072E+03 -0.19962893790E+03  0.30176967051E+03  0.00000000000E+00 0. -1.
<scales pt_clust_5="13000.00000" pt_clust_6="13000.00000" pt_clust_7="13000.00000" pt_clust_8="13000.00000" pt_clust_9="13000.00000"></scales>
<clustering>
<clus scale="   81.862">  5  6 -1 -1</clus>
<clus scale="   97.599">  7  8 -1 -1</clus>
<clus scale="  226.303">  7  9 -1 -1</clus>
<clus scale="  246.068">  2  5  1 -1</clus>
<clus scale="  333.815">  1  5  2 -1</clus>
</clustering>
</event>
<event>
 9    2  0.4178938E-005  0.1566433E+03  0.7546771E-02  0.1210948E+00
         21   -1    0    0  501  502  0.00000000000E+00  0.00000000000E+00  0.13128817785E+03  0.13128817785E+03  0.00000000000E+00 0.  1.
          2   -1    0    0  502    0 -0.00000000000E+00 -0.00000000000E+00 -0.26565808275E+03  0.26565808275E+03  0.00000000000E+00 0. -1.
         24    2    1    2    0    0 -0.67301889363E+02  0.68656304027E+01  0.79523552494E+02  0.13182832422E+03  0.80486212929E+02 0.  0.
         23    2    1    2    0    0  0.49391777347E+02  0.26423115053E+02 -0.19431175209E+03  0.22254616323E+03  0.92908606113E+02 0.  0.
        -13    1    3    3    0    0 -0.59281958003E+02  0.31971916167E+02  0.81103938328E+02  0.10542486794E+03  0.00000000000E+00 0.  1.
         14    1    3    3    0    0 -0.80199313596E+01 -0.25106285764E+02 -0.15803858334E+01  0.26403456275E+02  0.00000000000E+00 0. -1.
        -13    1    4    4    0    0  0.82704059886E+01  0.55595775986E+02 -0.81750569714E+02  0.99209100245E+02  0.00000000000E+00 0.  1.
         13    1    4    4    0    0  0.41121371359E+02 -0.29172660933E+02 -0.11256118237E+03  0.12333706298E+03  0.00000000000E+00 0. -1.
          1    1    1    2  501    0  0.17910112016E+02 -0.33288745456E+02 -0.19581705308E+02  0.42571773151E+02  0.00000000000E+00 0. -1.
<scales pt_clust_5="13000.00000" pt_clust_6="13000.00000" pt_clust_7="13000.00000" pt_clust_8="13000.00000" pt_clust_9="13000.00000"></scales>
<clustering>
<clus scale="   80.486">  5  6 -1 -1</clus>
<clus scale="   92.909">  7  8 -1 -1</clus>
<clus scale="   37.801">  7  9 -1 -1</clus>
<clus scale="  105.141">  2  5  1 -1</clus>
<clus scale="  156.643">  1  5  2 -1</clus>
</clustering>
</event>
<event>
 9    2  0.4178938E-005  0.1938616E+03  0.7546771E-02  0.1179977E+00
         21   -1    0    0  501  502  0.00000000000E+00  0.00000000000E+00  0.10005837262E+03  0.10005837262E+03  0.00000000000E+00 0.  1.
         -1   -1    0    0    0  501 -0.00000000000E+00 -0.00000000000E+00 -0.22960296588E+03  0.22960296588E+03  0.00000000000E+00 0.  1.
         24    2    1    2    0    0 -0.72964007347E+02  0.57434342542E+01 -0.45290719691E+02  0.11828248025E+03  0.81134224833E+02 0.  0.
         23    2    1    2    0    0 -0.21451821673E+02  0.12072043835E+02 -0.63374571366E+02  0.11305447017E+03  0.90327526452E+02 0.  0.
        -13    1    3    3    0    0 -0.43422561897E+02 -0.33531676745E+02 -0.56687377283E+01  0.55154572018E+02  0.00000000000E+00 0.  1.
         14    1    3    3    0    0 -0.29541445450E+02  0.39275110999E+02 -0.39621981963E+02  0.63127908234E+02  0.00000000000E+00 0. -1.
        -13    1    4    4    0    0 -0.28476462044E+01 -0.36584984513E+02 -0.90612182262E+01  0.37797828727E+02  0.00000000000E+00 0. -1.
         13    1    4    4    0    0 -0.18604175469E+02  0.48657028348E+02 -0.54313353140E+02  0.75256641447E+02  0.00000000000E+00 0.  1.
         -2    1    1    2    0  502  0.94415829020E+02 -0.17815478089E+02 -0.20879302200E+02  0.98324388071E+02  0.00000000000E+00 0.  1.
<scales pt_clust_5="13000.00000" pt_clust_6="13000.00000" pt_clust_7="13000.00000" pt_clust_8="13000.00000" pt_clust_9="13000.00000"></scales>
<clustering>
<clus scale="   81.134">  5  6 -1 -1</clus>
<clus scale="   90.328">  7  8 -1 -1</clus>
<clus scale="   96.082">  7  9 -1 -1</clus>
<clus scale="  109.268">  2  5  1 -1</clus>
<clus scale="  193.862">  1  5  2 -1</clus>
</clustering>
</event>
<event>
 9    2  0.4178938E-005  0.3418536E+03  0.7546771E-02  0.1087520E+00
          2   -1    0    0  502    0 -0.00000000000E+00  0.00000000000E+00  0.13373961335E+04  0.13373961335E+04  0.00000000000E+00 0. -1.
         21   -1    0    0  501  502  0.00000000000E+00 -0.00000000000E+00 -0.65043514632E+02  0.65043514632E+02  0.00000000000E+00 0. -1.
         24    2    1    2    0    0  0.88827272686E+02  0.14962182182E+03  0.78028224622E+03  0.80327593285E+03  0.78325389183E+02 0.  0.
         23    2    1    2    0    0  0.56755243094E+02  0.29104381559E+02  0.23727852920E+03  0.25557063012E+03  0.70335083117E+02 0.  0.
        -13    1    3    3    0    0  0.69425251501E+01  0.76938355469E+02  0.24423047938E+03  0.25615666350E+03  0.00000000000E+00 0.  1.
         14    1    3    3    0    0  0.81884747536E+02  0.72683466352E+02  0.53605176684E+03  0.54711926935E+03  0.00000000000E+00 0. -1.
        -11    1    4    4    0    0  0.23604367493E+02  0.25462246892E+02  0.20894338761E+03  0.21180847813E+03  0.00000000000E+00 0.  1.
         11    1    4    4    0    0  0.33150875601E+02  0.36421346667E+01  0.28335141588E+02  0.43762151991E+02  0.00000000000E+00 0. -1.
          1    1    1    2  501    0 -0.14558251578E+03 -0.17872620338E+03  0.25479184340E+03  0.34359308512E+03  0.00000000000E+00 0. -1.
<scales pt_clust_5="13000.00000" pt_clust_6="13000.00000" pt_clust_7="13000.00000" pt_clust_8="13000.00000" pt_clust_9="13000.00000"></scales>
<clustering>
<clus scale="   70.335">  7  8 -1 -1</clus>
<clus scale="   78.325">  5  6 -1 -1</clus>
<clus scale="  190.819">  1  5  2 -1</clus>
<clus scale="  136.863">  7  9 -1 -1</clus>
<clus scale="  341.854">  2  5  1 -1</clus>
</clustering>
</event>
<event>
 9    2  0.4178938E-005  0.2135396E+03  0.7546771E-02  0.1168533E+00
         21   -1    0    0  501  502  0.00000000000E+00  0.00000000000E+00  0.95761843136E+02  0.95761843136E+02  0.00000000000E+00 0.  1.
          2   -1    0    0  502    0 -0.00000000000E+00 -0.00000000000E+00 -0.37593281773E+03  0.37593281773E+03  0.00000000000E+00 0. -1.
         24    2    1    2    0    0 -0.30216009012E+02  0.63406456842E+02 -0.22864243999E+03  0.25202588803E+03  0.79412196190E+02 0.  0.
         23    2    1    2    0    0  0.75813213662E+02 -0.62269724358E+02 -0.89857424733E+02  0.16009108364E+03  0.89048505564E+02 0.  0.
        -11    1    3    3    0    0 -0.36033481110E+02  0.45539859566E+02 -0.64415090555E+02  0.86727126445E+02  0.00000000000E+00 0.  1.
         12    1    3    3    0    0  0.58174720977E+01  0.17866597276E+02 -0.16422734943E+03  0.16529876158E+03  0.00000000000E+00 0. -1.
        -11    1    4    4    0    0  0.42011793343E+02  0.13166381161E+02 -0.54816807961E+02  0.70308084939E+02  0.00000000000E+00 0. -1.
         11    1    4    4    0    0  0.33801420319E+02 -0.75436105519E+02 -0.35040616771E+02  0.89782998697E+02  0.00000000000E+00 0.  1.
          1    1    1    2  501    0 -0.45597204650E+02 -0.11367324841E+01  0.38328890123E+02  0.59577689202E+02  0.00000000000E+00 0. -1.
<scales pt_clust_5="13000.00000" pt_clust_6="13000.00000" pt_clust_7="13000.00000" pt_clust_8="13000.00000" pt_clust_9="13000.00000"></scales>
<clustering>
<clus scale="   79.412">  5  6 -1 -1</clus>
<clus scale="   89.049">  7  8 -1 -1</clus>
<clus scale="   45.611">  7  9 -1 -1</clus>
<clus scale="  106.017">  2  5  1 -1</clus>
<clus scale="  213.540">  1  5  2 -1</clus>
</clustering>
</event>
<event>
 9    2  0.4178938E-005  0.3257447E+03  0.7546771E-02  0.1100561E+00
          4   -1    0    0  502    0 -0.00000000000E+00  0.00000000000E+00  0.49590922191E+03  0.49590922191E+03  0.00000000000E+00 0. -1.
         21   -1    0    0  501  502  0.00000000000E+00 -0.00000000000E+00 -0.11739024470E+03  0.11739024470E+03  0.00000000000E+00 0. -1.
         24    2    1    2    0    0  0.12223534069E+03  0.55543038950E+02  0.11532456551E+03  0.19451443868E+03  0.80682115469E+02 0.  0.
         23    2    1    2    0    0  0.72973574977E+02  0.62069163715E+01  0.24120653268E+02  0.10402187935E+03  0.69821751729E+02 0.  0.
        -13    1    3    3    0    0  0.15664833113E+02 -0.18476920335E+02  0.32668364582E+02  0.40669467983E+02  0.00000000000E+00 0.  1.
         14    1    3    3    0    0  0.10657050757E+03  0.74019959286E+02  0.82656200930E+02  0.15384497070E+03  0.00000000000E+00 0. -1.
        -13    1    4    4    0    0  0.44305414391E+02  0.20620039052E+02  0.44430382215E+02  0.66047063664E+02  0.00000000000E+00 0.  1.
         13    1    4    4    0    0  0.28668160586E+02 -0.14413122681E+02 -0.20309728947E+02  0.37974815690E+02  0.00000000000E+00 0. -1.
          3    1    1    2  501    0 -0.19520891566E+03 -0.61749955322E+02  0.23907375842E+03  0.31476314858E+03  0.00000000000E+00 0. -1.
<scales pt_clust_5="13000.00000" pt_clust_6="13000.00000" pt_clust_7="13000.00000" pt_clust_8="13000.00000" pt_clust_9="13000.00000"></scales>
<clustering>
<clus scale="   69.822">  7  8 -1 -1</clus>
<clus scale="   80.682">  5  6 -1 -1</clus>
<clus scale="  156.640">  1  5  2 -1</clus>
<clus scale="   97.374">  7  9 -1 -1</clus>
<clus scale="  325.745">  2  5  1 -1</clus>
</clustering>
</event>
<event>
 9    2  0.4178938E-005  0.2617610E+03  0.7546771E-02  0.1140368E+00
          2   -1    0    0  502    0 -0.00000000000E+00  0.00000000000E+00  0.41529935790E+03  0.41529935790E+03  0.00000000000E+00 0. -1.
         21   -1    0    0  501  502  0.00000000000E+00 -0.00000000000E+00 -0.85244027767E+02  0.85244027767E+02  0.00000000000E+00 0. -1.
         24    2    1    2    0    0 -0.68053019573E+02 -0.32524535165E+02  0.71066217085E+02  0.13231221767E+03  0.82262122958E+02 0.  0.
         23    2    1    2    0    0 -0.73771498096E+02  0.16329493893E+02  0.13282705015E+03  0.17772305980E+03  0.90739045790E+02 0.  0.
        -13    1    3    3    0    0  0.46450700389E+00 -0.42361347035E+02  0.28288990050E+02  0.50940813180E+02  0.00000000000E+00 0.  1.
         14    1    3    3    0    0 -0.68517526577E+02  0.98368118704E+01  0.42777227034E+02  0.81371404490E+02  0.00000000000E+00 0. -1.
        -13    1    4    4    0    0 -0.51443879709E+02  0.47424117657E+02  0.48558417710E+02  0.85167127612E+02  0.00000000000E+00 0.  1.
         13    1    4    4    0    0 -0.22327618387E+02 -0.31094623764E+02  0.84268632441E+02  0.92555932189E+02  0.00000000000E+00 0. -1.
          1    1    1    2  501    0  0.14182451767E+03  0.16195041272E+02  0.12616206289E+03  0.19050810819E+03  0.00000000000E+00 0. -1.
<scales pt_clust_5="13000.00000" pt_clust_6="13000.00000" pt_clust_7="13000.00000" pt_clust_8="13000.00000" pt_clust_9="13000.00000"></scales>
<clustering>
<clus scale="   82.262">  5  6 -1 -1</clus>
<clus scale="   90.739">  7  8 -1 -1</clus>
<clus scale="  111.607">  1  5  2 -1</clus>
<clus scale="  107.466">  7  9 -1 -1</clus>
<clus scale="  261.761">  2  5  1 -1</clus>
</clustering>
</event>
<event>
 9    2  0.4178938E-005  0.4267618E+03  0.7546771E-02  0.1058962E+00
          2   -1    0    0  502    0 -0.00000000000E+00  0.00000000000E+00  0.15079532555E+03  0.15079532555E+03  0.00000000000E+00 0. -1.
         21   -1    0    0  501  502  0.00000000000E+00 -0.00000000000E+00 -0.92634242811E+03  0.92634242811E+03  0.00000000000E+00 0.  1.
         24    2    1    2    0    0 -0.16894138012E+03  0.10171904037E+03 -0.55916854576E+03  0.59865543684E+03  0.82649358144E+02 0.  0.
         23    2    1    2    0    0 -0.66848276944E+02 -0.14450496274E+02 -0.19648277253E+03  0.22627525230E+03  0.88980340114E+02 0.  0.
        -11    1    3    3    0    0 -0.14031422006E+03  0.42100113846E+02 -0.41329761494E+03  0.43849221025E+03  0.00000000000E+00 0.  1.
         12    1    3    3    0    0 -0.28627160055E+02  0.59618926522E+02 -0.14587093082E+03  0.16016322659E+03  0.00000000000E+00 0. -1.
        -13    1    4    4    0    0 -0.80837791986E+01 -0.26468474165E+02 -0.14381286826E+03  0.14645159162E+03  0.00000000000E+00 0.  1.
         13    1    4    4    0    0 -0.58764497746E+02  0.12017977891E+02 -0.52669904275E+02  0.79823660679E+02  0.00000000000E+00 0. -1.
          1    1    1    2  501    0  0.23578965706E+03 -0.87268544094E+02 -0.19895784267E+02  0.25220706453E+03  0.00000000000E+00 0. -1.
<scales pt_clust_5="13000.00000" pt_clust_6="13000.00000" pt_clust_7="13000.00000" pt_clust_8="13000.00000" pt_clust_9="13000.00000"></scales>
<clustering>
<clus scale="   82.649">  5  6 -1 -1</clus>
<clus scale="   88.980">  7  8 -1 -1</clus>
<clus scale="  213.820">  1  5  2 -1</clus>
<clus scale="   86.100">  7  9 -1 -1</clus>
<clus scale="  426.762">  2  5  1 -1</clus>
</clustering>
</event>
<event>
 9    2  0.4178938E-005  0.3558526E+03  0.7546771E-02  0.1113909E+00
         21   -1    0    0  501  502  0.00000000000E+00  0.00000000000E+00  0.64996226473E+02  0.64996226473E+02  0.00000000000E+00 0. -1.
          2   -1    0    0  502    0 -0.00000000000E+00 -0.00000000000E+00 -0.78451415165E+03  0.78451415165E+03  0.00000000000E+00 0. -1.
         24    2    1    2    0    0  0.25162304154E+02 -0.67160209796E+01 -0.22182434447E+03  0.23768527084E+03  0.81301916871E+02 0.  0.
         23    2    1    2    0    0  0.50147675055E+02  0.39122477755E+02 -0.51606059507E+03  0.52780654609E+03  0.90641352251E+02 0.  0.
        -11    1    3    3    0    0 -0.64151744846E+00 -0.32211844258E+02 -0.17754349289E+03  0.18044308333E+03  0.00000000000E+00 0.  1.
         12    1    3    3    0    0  0.25803821603E+02  0.25495823278E+02 -0.44280851577E+02  0.57242187505E+02  0.00000000000E+00 0. -1.
        -11    1    4    4    0    0  0.22403021092E+02  0.63883738672E+02 -0.40670888464E+03  0.41230467408E+03  0.00000000000E+00 0.  1.
         11    1    4    4    0    0  0.27744653963E+02 -0.24761260917E+02 -0.10935171043E+03  0.11550187202E+03  0.00000000000E+00 0. -1.
          1    1    1    2  501    0 -0.75309979209E+02 -0.32406456775E+02  0.18367014354E+02  0.84018561196E+02  0.00000000000E+00 0. -1.
<scales pt_clust_5="13000.00000" pt_clust_6="13000.00000" pt_clust_7="13000.00000" pt_clust_8="13000.00000" pt_clust_9="13000.00000"></scales>
<clustering>
<clus scale="   81.302">  5  6 -1 -1</clus>
<clus scale="   85.371">  2  5  1 -1</clus>
<clus scale="   90.641">  7  8 -1 -1</clus>
<clus scale="   80.782">  7  9 -1 -1</clus>
<clus scale="  355.853">  1  5  2 -1</clus>
</clustering>
</event>
<event>
 9    2  0.4178938E-005  0.8721430E+03  0.7546771E-02  0.1006632E+00
         21   -1    0    0  501  502  0.00000000000E+00  0.00000000000E+00  0.10340621423E+03  0.10340621423E+03  0.00000000000E+00 0. -1.
          2   -1    0    0  502    0 -0.00000000000E+00 -0.00000000000E+00 -0.25079226730E+04  0.25079226730E+04  0.00000000000E+00 0. -1.
         24    2    1    2    0    0 -0.16458643860E+02 -0.83835496370E+02 -0.12936673725E+03  0.17474528111E+03  0.80628054392E+02 0.  0.
         23    2    1    2    0    0  0.38586531426E+03 -0.98872797884E+02 -0.72344648801E+03  0.83108476345E+03  0.93054780165E+02 0.  0.
        -13    1    3    3    0    0 -0.17985374852E+02 -0.99493363155E+02 -0.11767423065E+03  0.15514389314E+03  0.00000000000E+00 0.  1.
         14    1    3    3    0    0  0.15267309921E+01  0.15657866785E+02 -0.11692506605E+02  0.19601387973E+02  0.00000000000E+00 0. -1.
        -11    1    4    4    0    0  0.58530368596E+02  0.12396611996E+02 -0.14984846464E+03  0.16135068141E+03  0.00000000000E+00 0.  1.
         11    1    4    4    0    0  0.32733494567E+03 -0.11126940988E+03 -0.57359802338E+03  0.66973408204E+03  0.00000000000E+00 0. -1.
          1    1    1    2  501    0 -0.36940667040E+03  0.18270829425E+03 -0.15517032335E+04  0.16054988427E+04  0.00000000000E+00 0. -1.
<scales pt_clust_5="13000.00000" pt_clust_6="13000.00000" pt_clust_7="13000.00000" pt_clust_8="13000.00000" pt_clust_9="13000.00000"></scales>
<clustering>
<clus scale="   80.628">  5  6 -1 -1</clus>
<clus scale="   93.055">  7  8 -1 -1</clus>
<clus scale="  117.474">  2  5  1 -1</clus>
<clus scale="  400.926">  7  9 -1 -1</clus>
<clus scale="  872.143">  1  5  2 -1</clus>
</clustering>
</event>
<event>
 9    2  0.4178938E-005  0.1647062E+03  0.7546771E-02  0.1195056E+00
          2   -1    0    0  502    0 -0.00000000000E+00  0.00000000000E+00  0.24401362768E+03  0.24401362768E+03  0.00000000000E+00 0. -1.
         21   -1    0    0  501  502  0.00000000000E+00 -0.00000000000E+00 -0.19399472428E+03  0.19399472428E+03  0.00000000000E+00 0. -1.
         24    2    1    2    0    0 -0.27666911253E+02 -0.94855207452E+02  0.18525684979E+03  0.22489468987E+03  0.80588788166E+02 0.  0.
         23    2    1    2    0    0  0.19553021015E+02  0.29875326160E+02 -0.78932730796E+02  0.12675106896E+03  0.92523519972E+02 0.  0.
        -11    1    3    3    0    0  0.11573938484E+02 -0.39452948822E+02  0.18966850936E+02  0.45279494887E+02  0.00000000000E+00 0.  1.
         12    1    3    3    0    0 -0.39240849737E+02 -0.55402258630E+02  0.16628999886E+03  0.17961519498E+03  0.00000000000E+00 0. -1.
        -11    1    4    4    0    0 -0.33853084534E+02  0.96506119492E+01 -0.87559979077E+01  0.36274414438E+02  0.00000000000E+00 0.  1.
         11    1    4    4    0    0  0.53406105550E+02  0.20224714211E+02 -0.70176732889E+02  0.90476654524E+02  0.00000000000E+00 0. -1.
          1    1    1    2  501    0  0.81138902376E+01  0.64979881292E+02 -0.56305215600E+02  0.86362593125E+02  0.00000000000E+00 0. -1.
<scales pt_clust_5="13000.00000" pt_clust_6="13000.00000" pt_clust_7="13000.00000" pt_clust_8="13000.00000" pt_clust_9="13000.00000"></scales>
<clustering>
<clus scale="   80.589">  5  6 -1 -1</clus>
<clus scale="   92.524">  7  8 -1 -1</clus>
<clus scale="   65.485">  7  9 -1 -1</clus>
<clus scale="  127.505">  1  5  2 -1</clus>
<clus scale="  164.706">  2  5  1 -1</clus>
</clustering>
</event>
<event>
 9    2  0.4178938E-005  0.3272991E+03  0.7546771E-02  0.1106748E+00
          2   -1    0    0  502    0 -0.00000000000E+00  0.00000000000E+00  0.24797854645E+03  0.24797854645E+03  0.00000000000E+00 0. -1.
         21   -1    0    0  501  502  0.00000000000E+00 -0.00000000000E+00 -0.25875441175E+03  0.25875441175E+03  0.00000000000E+00 0. -1.
         24    2    1    2    0    0  0.93159230310E+02 -0.37156721781E+02  0.95458589586E+02  0.16262476928E+03  0.85294836267E+02 0.  0.
         23    2    1    2    0    0  0.79318435844E+02  0.17676006541E+02  0.31589529775E+02  0.12246998298E+03  0.86006644318E+02 0.  0.
        -13    1    3    3    0    0  0.14506839147E+02  0.22485522451E+02  0.43512111990E+02  0.51081806857E+02  0.00000000000E+00 0.  1.
         14    1    3    3    0    0  0.78652391163E+02 -0.59642244231E+02  0.51946477596E+02  0.11154296243E+03  0.00000000000E+00 0. -1.
        -11    1    4    4    0    0  0.23305166412E+02 -0.29815658734E+02 -0.85247401803E+01  0.38791435683E+02  0.00000000000E+00 0.  1.
         11    1    4    4    0    0  0.56013269432E+02  0.47491665275E+02  0.40114269955E+02  0.83678547293E+02  0.00000000000E+00 0. -1.
          1    1    1    2  501    0 -0.17247766615E+03  0.19480715240E+02 -0.13782398466E+03  0.22163820595E+03  0.00000000000E+00 0. -1.
<scales pt_clust_5="13000.00000" pt_clust_6="13000.00000" pt_clust_7="13000.00000" pt_clust_8="13000.00000" pt_clust_9="13000.00000"></scales>
<clustering>
<clus scale="   85.295">  5  6 -1 -1</clus>
<clus scale="   86.007">  7  8 -1 -1</clus>
<clus scale="  131.660">  1  5  2 -1</clus>
<clus scale="  139.799">  7  9 -1 -1</clus>
<clus scale="  327.299">  2  5  1 -1</clus>
</clustering>
</event>
<event>
 9    2  0.4178938E-005  0.1906177E+03  0.7546771E-02  0.1183359E+00
         21   -1    0    0  501  502  0.00000000000E+00  0.00000000000E+00  0.64511393732E+02  0.64511393732E+02  0.00000000000E+00 0.  1.
          2   -1    0    0  502    0 -0.00000000000E+00 -0.00000000000E+00 -0.40301497238E+03  0.40301497238E+03  0.00000000000E+00 0. -1.
         24    2    1    2    0    0 -0.55659415189E+02 -0.40930740792E+02 -0.40942951874E+02  0.11414636711E+03  0.81115792394E+02 0.  0.
         23    2    1    2    0    0  0.40086003850E+02  0.64609058710E+02 -0.10646030138E+03  0.16018960523E+03  0.92442932026E+02 0.  0.
        -13    1    3    3    0    0 -0.56297971005E+02 -0.26817593826E+02 -0.62554211810E+02  0.88327086973E+02  0.00000000000E+00 0.  1.
         14    1    3    3    0    0  0.63855581623E+00 -0.14113146966E+02  0.21611259937E+02  0.25819280138E+02  0.00000000000E+00 0. -1.
        -11    1    4    4    0    0 -0.15587654888E+02  0.14644080550E+02  0.85152181135E+01  0.23020274099E+02  0.00000000000E+00 0. -1.
         11    1    4    4    0    0  0.55673658738E+02  0.49964978160E+02 -0.11497551950E+03  0.13716933113E+03  0.00000000000E+00 0.  1.
          1    1    1    2  501    0  0.15573411339E+02 -0.23678317919E+02 -0.19110032539E+03  0.19319039377E+03  0.00000000000E+00 0. -1.
<scales pt_clust_5="13000.00000" pt_clust_6="13000.00000" pt_clust_7="13000.00000" pt_clust_8="13000.00000" pt_clust_9="13000.00000"></scales>
<clustering>
<clus scale="   81.116">  5  6 -1 -1</clus>
<clus scale="   92.443">  7  8 -1 -1</clus>
<clus scale="   28.341">  7  9 -1 -1</clus>
<clus scale="  106.551">  2  5  1 -1</clus>
<clus scale="  190.618">  1  5  2 -1</clus>
</clustering>
</event>
<event>
 9    2  0.4178938E-005  0.2601714E+03  0.7546771E-02  0.1140053E+00
         21   -1    0    0  501  502  0.00000000000E+00  0.00000000000E+00  0.67991687758E+03  0.67991687758E+03  0.00000000000E+00 0.  1.
          2   -1    0    0  502    0 -0.00000000000E+00 -0.00000000000E+00 -0.55570209611E+02  0.55570209611E+02  0.00000000000E+00 0. -1.
         24    2    1    2    0    0 -0.30564805276E+02 -0.75694188925E+02  0.29030685412E+03  0.31208210451E+03  0.80332763213E+02 0.  0.
         23    2    1    2    0    0  0.15516071582E+02  0.30386473681E+01  0.33414960524E+03  0.34920724580E+03  0.10019860267E+03 0.  0.
        -13    1    3    3    0    0 -0.53610996063E+02 -0.63837695556E+02  0.25502443212E+03  0.26830365493E+03  0.00000000000E+00 0.  1.
         14    1    3    3    0    0  0.23046190787E+02 -0.11856493369E+02  0.35282422002E+02  0.43778449574E+02  0.00000000000E+00 0. -1.
        -11    1    4    4    0    0 -0.29879288221E+01  0.43710390361E+02  0.80484076077E+02  0.91636305284E+02  0.00000000000E+00 0. -1.
         11    1    4    4    0    0  0.18504000404E+02 -0.40671742993E+02  0.25366552917E+03  0.25757094051E+03  0.00000000000E+00 0.  1.
          1    1    1    2  501    0  0.15048733694E+02  0.72655541557E+02 -0.10979139763E+00  0.74197736885E+02  0.00000000000E+00 0. -1.
<scales pt_clust_5="13000.00000" pt_clust_6="13000.00000" pt_clust_7="13000.00000" pt_clust_8="13000.00000" pt_clust_9="13000.00000"></scales>
<clustering>
<clus scale="   80.333">  5  6 -1 -1</clus>
<clus scale="  100.199">  7  8 -1 -1</clus>
<clus scale="   74.198">  7  9 -1 -1</clus>
<clus scale="  114.530">  2  5  1 -1</clus>
<clus scale="  260.171">  1  5  2 -1</clus>
</clustering>
</event>
<event>
 9    2  0.4178938E-005  0.2643877E+03  0.7546771E-02  0.1117762E+00
          4   -1    0    0  502    0 -0.00000000000E+00  0.00000000000E+00  0.23641223008E+03  0.23641223008E+03  0.00000000000E+00 0. -1.
         21   -1    0    0  501  502  0.00000000000E+00 -0.00000000000E+00 -0.39009145557E+03  0.39009145557E+03  0.00000000000E+00 0.  1.
         24    2    1    2    0    0  0.10574902752E+03 -0.13390923772E+03 -0.27659150566E+03  0.33494187519E+03  0.81047257714E+02 0.  0.
         23    2    1    2    0    0 -0.46129802489E+02 -0.36751781502E+01  0.93441676625E+02  0.13874675899E+03  0.91530599183E+02 0.  0.
        -13    1    3    3    0    0  0.11754382499E+03 -0.12539962268E+03 -0.23700222900E+03  0.29276555930E+03  0.00000000000E+00 0.  1.
         14    1    3    3    0    0 -0.11794797470E+02 -0.85096150428E+01 -0.39589276654E+02  0.42176315883E+02  0.00000000000E+00 0. -1.
        -13    1    4    4    0    0 -0.57147875991E+02  0.25491856335E+02  0.33016298401E+02  0.70751610793E+02  0.00000000000E+00 0.  1.
         13    1    4    4    0    0  0.11018073502E+02 -0.29167034486E+02  0.60425378224E+02  0.67995148194E+02  0.00000000000E+00 0. -1.
          3    1    1    2  501    0 -0.59619225033E+02  0.13758441587E+03  0.29470603548E+02  0.15281505148E+03  0.00000000000E+00 0. -1.
<scales pt_clust_5="13000.00000" pt_clust_6="13000.00000" pt_clust_7="13000.00000" pt_clust_8="13000.00000" pt_clust_9="13000.00000"></scales>
<clustering>
<clus scale="   81.047">  5  6 -1 -1</clus>
<clus scale="   91.531">  7  8 -1 -1</clus>
<clus scale="  149.946">  7  9 -1 -1</clus>
<clus scale="  188.900">  1  5  2 -1</clus>
<clus scale="  264.388">  2  5  1 -1</clus>
</clustering>
</event>
<event>
 9    2  0.4178938E-005  0.2743384E+03  0.7546771E-02  0.1137409E+00
         21   -1    0    0  501  502  0.00000000000E+00  0.00000000000E+00  0.57214066788E+03  0.57214066788E+03  0.00000000000E+00 0. -1.
          2   -1    0    0  502    0 -0.00000000000E+00 -0.00000000000E+00 -0.71446074183E+02  0.71446074183E+02  0.00000000000E+00 0. -1.
         24    2    1    2    0    0 -0.20418676144E+02 -0.64240534825E+02  0.48957465755E+02  0.11507184870E+03  0.79378386605E+02 0.  0.
         23    2    1    2    0    0 -0.80516567528E+02  0.97423732827E+02  0.31870519087E+03  0.35826054150E+03  0.10393899917E+03 0.  0.
        -13    1    3    3    0    0  0.25490425306E+02 -0.49281362996E+02  0.21333211357E+02  0.59443422074E+02  0.00000000000E+00 0.  1.
         14    1    3    3    0    0 -0.45909101451E+02 -0.14959171828E+02  0.27624254398E+02  0.55628426626E+02  0.00000000000E+00 0. -1.
        -13    1    4    4    0    0 -0.25963480015E+02  0.28266816626E+02  0.13639125124E+02  0.40732553944E+02  0.00000000000E+00 0.  1.
         13    1    4    4    0    0 -0.54553087513E+02  0.69156916201E+02  0.30506606574E+03  0.31752798756E+03  0.00000000000E+00 0. -1.
          1    1    1    2  501    0  0.10093524367E+03 -0.33183198002E+02  0.13303193707E+03  0.17025435186E+03  0.00000000000E+00 0. -1.
<scales pt_clust_5="13000.00000" pt_clust_6="13000.00000" pt_clust_7="13000.00000" pt_clust_8="13000.00000" pt_clust_9="13000.00000"></scales>
<clustering>
<clus scale="   79.378">  5  6 -1 -1</clus>
<clus scale="  103.939">  7  8 -1 -1</clus>
<clus scale="  104.138">  2  5  1 -1</clus>
<clus scale="  111.470">  7  9 -1 -1</clus>
<clus scale="  274.338">  1  5  2 -1</clus>
</clustering>
</event>
<event>
 9    2  0.4178938E-005  0.1644553E+03  0.7546771E-02  0.1203232E+00
         21   -1    0    0  501  502  0.00000000000E+00  0.00000000000E+00  0.13706309395E+03  0.13706309395E+03  0.00000000000E+00 0. -1.
          2   -1    0    0  502    0 -0.00000000000E+00 -0.00000000000E+00 -0.15733671478E+03  0.15733671478E+03  0.00000000000E+00 0. -1.
         24    2    1    2    0    0 -0.33775803091E+02 -0.62275629192E+02 -0.63164593155E+02  0.12444336749E+03  0.80481842786E+02 0.  0.
         23    2    1    2    0    0  0.35923628299E+02  0.27204070334E+02  0.71290340935E+02  0.12477733621E+03  0.91959243184E+02 0.  0.
        -13    1    3    3    0    0 -0.18023521171E+02 -0.10799825712E+02  0.17582141437E+02  0.27397358418E+02  0.00000000000E+00 0.  1.
         14    1    3    3    0    0 -0.15752281921E+02 -0.51475803479E+02 -0.80746734592E+02  0.97046009072E+02  0.00000000000E+00 0. -1.
        -13    1    4    4    0    0  0.59176887685E+02  0.15772840431E+02  0.76858472233E+02  0.98274672655E+02  0.00000000000E+00 0. -1.
         13    1    4    4    0    0 -0.23253259386E+02  0.11431229903E+02 -0.55681312984E+01  0.26502663551E+02  0.00000000000E+00 0.  1.
          1    1    1    2  501    0 -0.21478252078E+01  0.35071558857E+02 -0.28399368608E+02  0.45179105028E+02  0.00000000000E+00 0. -1.
<scales pt_clust_5="13000.00000" pt_clust_6="13000.00000" pt_clust_7="13000.00000" pt_clust_8="13000.00000" pt_clust_9="13000.00000"></scales>
<clustering>
<clus scale="   80.482">  5  6 -1 -1</clus>
<clus scale="   91.959">  7  8 -1 -1</clus>
<clus scale="   35.137">  7  9 -1 -1</clus>
<clus scale="  107.221">  2  5  1 -1</clus>
<clus scale="  164.455">  1  5  2 -1</clus>
</clustering>
</event>
<event>
 9    2  0.4178938E-005  0.1658975E+03  0.7546771E-02  0.1214371E+00
          2   -1    0    0  502    0 -0.00000000000E+00  0.00000000000E+00  0.41300946546E+03  0.41300946546E+03  0.00000000000E+00 0. -1.
         21   -1    0    0  501  502  0.00000000000E+00 -0.00000000000E+00 -0.41156496879E+02  0.41156496879E+02  0.00000000000E+00 0. -1.
         24    2    1    2    0    0 -0.31456301932E+01  0.17423325674E+02  0.19513372571E+03  0.21177853424E+03  0.80371073095E+02 0.  0.
         23    2    1    2    0    0 -0.26569422625E+02  0.74722884585E+01  0.47041304854E+02  0.10703919732E+03  0.92101770265E+02 0.  0.
        -11    1    3    3    0    0  0.27764080237E+02 -0.17378574586E+02  0.10972656840E+03  0.11451104235E+03  0.00000000000E+00 0.  1.
         12    1    3    3    0    0 -0.30909710430E+02  0.34801900260E+02  0.85407157307E+02  0.97267491897E+02  0.00000000000E+00 0. -1.
        -11    1    4    4    0    0 -0.40970418586E+02  0.37722539860E+02  0.47999567054E+02  0.73522266355E+02  0.00000000000E+00 0.  1.
         11    1    4    4    0    0  0.14400995961E+02 -0.30250251402E+02 -0.95826220000E+00  0.33516930960E+02  0.00000000000E+00 0. -1.
          1    1    1    2  501    0  0.29715052819E+02 -0.24895614133E+02  0.12967793802E+03  0.13534823078E+03  0.00000000000E+00 0. -1.
<scales pt_clust_5="13000.00000" pt_clust_6="13000.00000" pt_clust_7="13000.00000" pt_clust_8="13000.00000" pt_clust_9="13000.00000"></scales>
<clustering>
<clus scale="   80.371">  5  6 -1 -1</clus>
<clus scale="   82.298">  1  5  2 -1</clus>
<clus scale="   92.102">  7  8 -1 -1</clus>
<clus scale="   31.005">  7  9 -1 -1</clus>
<clus scale="  165.897">  2  5  1 -1</clus>
</clustering>
</event>
<event>
 9    2  0.4178938E-005  0.3980911E+03  0.7546771E-02  0.1089500E+00
          4   -1    0    0  502    0 -0.00000000000E+00  0.00000000000E+00  0.46278351627E+03  0.46278351627E+03  0.00000000000E+00 0. -1.
         21   -1    0    0  501  502  0.00000000000E+00 -0.00000000000E+00 -0.16205917629E+03  0.16205917629E+03  0.00000000000E+00 0. -1.
         24    2    1    2    0    0  0.73322492185E+02  0.35903043419E+02  0.17151302548E+03  0.20630706460E+03  0.80502612426E+02 0.  0.
         23    2    1    2    0    0 -0.17197327963E+03 -0.67884054169E+01 -0.59665560118E+02  0.20346793217E+03  0.90654999878E+02 0.  0.
        -11    1    3    3    0    0  0.16646751788E+02  0.50633435335E+02  0.10454104233E+03  0.11734431665E+03  0.00000000000E+00 0.  1.
         12    1    3    3    0    0  0.56675740398E+02 -0.14730391916E+02  0.66971983155E+02  0.88962747952E+02  0.00000000000E+00 0. -1.
        -13    1    4    4    0    0 -0.91376900948E+02 -0.47514231955E+02 -0.20370564962E+02  0.10498714294E+03  0.00000000000E+00 0. -1.
         13    1    4    4    0    0 -0.80596378682E+02  0.40725826538E+02 -0.39294995156E+02  0.98480789234E+02  0.00000000000E+00 0.  1.
          3    1    1    2  501    0  0.98650787444E+02 -0.29114638002E+02  0.18887687461E+03  0.21506769579E+03  0.00000000000E+00 0. -1.
<scales pt_clust_5="13000.00000" pt_clust_6="13000.00000" pt_clust_7="13000.00000" pt_clust_8="13000.00000" pt_clust_9="13000.00000"></scales>
<clustering>
<clus scale="   80.503">  5  6 -1 -1</clus>
<clus scale="   90.655">  7  8 -1 -1</clus>
<clus scale="  102.857">  7  9 -1 -1</clus>
<clus scale="  114.656">  1  5  2 -1</clus>
<clus scale="  398.091">  2  5  1 -1</clus>
</clustering>
</event>
<event>
 9    2  0.4178938E-005  0.6501209E+03  0.7546771E-02  0.1041925E+00
          2   -1    0    0  502    0 -0.00000000000E+00  0.00000000000E+00  0.16833918322E+04  0.16833918322E+04  0.00000000000E+00 0. -1.
         21   -1    0    0  501  502  0.00000000000E+00 -0.00000000000E+00 -0.96069485751E+02  0.96069485751E+02  0.00000000000E+00 0. -1.
         24    2    1    2    0    0  0.39794312562E+02 -0.41675512746E+02  0.49920606858E+02  0.11025155253E+03  0.79642339063E+02 0.  0.
         23    2    1    2    0    0 -0.22445162157E+03  0.25799589071E+03  0.68992164666E+03  0.77527725365E+03  0.90125087787E+02 0.  0.
        -13    1    3    3    0    0  0.62071226656E+01 -0.51443532508E+02  0.32373466502E+01  0.51917683134E+02  0.00000000000E+00 0.  1.
         14    1    3    3    0    0  0.33587189897E+02  0.97680197610E+01  0.46683260208E+02  0.58333869398E+02  0.00000000000E+00 0. -1.
        -11    1    4    4    0    0 -0.17789972011E+03  0.24928120190E+03  0.59396496086E+03  0.66826925918E+03  0.00000000000E+00 0. -1.
         11    1    4    4    0    0 -0.46551901454E+02  0.87146888035E+01  0.95956685796E+02  0.10700799446E+03  0.00000000000E+00 0.  1.
          1    1    1    2  501    0  0.18465730901E+03 -0.21632037796E+03  0.84748009293E+03  0.89393251177E+03  0.00000000000E+00 0. -1.
<scales pt_clust_5="13000.00000" pt_clust_6="13000.00000" pt_clust_7="13000.00000" pt_clust_8="13000.00000" pt_clust_9="13000.00000"></scales>
<clustering>
<clus scale="   79.642">  5  6 -1 -1</clus>
<clus scale="   90.125">  7  8 -1 -1</clus>
<clus scale="   98.302">  1  5  2 -1</clus>
<clus scale="  315.666">  7  9 -1 -1</clus>
<clus scale="  650.121">  2  5  1 -1</clus>
</clustering>
</event>
<event>
 9    2  0.4178938E-005  0.6011199E+03  0.7546771E-02  0.1056267E+00
         21   -1    0    0  501  502  0.00000000000E+00  0.00000000000E+00  0.47745153016E+03  0.47745153016E+03  0.00000000000E+00 0. -1.
          2   -1    0    0  502    0 -0.00000000000E+00 -0.00000000000E+00 -0.24907127433E+03  0.24907127433E+03  0.00000000000E+00 0. -1.
         24    2    1    2    0    0 -0.73102710670E+01  0.17144165504E+02  0.60708964696E+02  0.10245646456E+03  0.80401407092E+02 0.  0.
         23    2    1    2    0    0 -0.17483052385E+03 -0.11047729542E+03 -0.13136185274E+03  0.26170303682E+03  0.91986946093E+02 0.  0.
        -11    1    3    3    0    0  0.33853935347E+02  0.20804459572E+02  0.39407212531E+02  0.55962870513E+02  0.00000000000E+00 0.  1.
         12    1    3    3    0    0 -0.41164206414E+02 -0.36602940682E+01  0.21301752166E+02  0.46493594050E+02  0.00000000000E+00 0. -1.
        -13    1    4    4    0    0 -0.24500589575E+02 -0.41383055948E+02 -0.70654877637E+02  0.85468988195E+02  0.00000000000E+00 0.  1.
         13    1    4    4    0    0 -0.15032993428E+03 -0.69094239468E+02 -0.60706975098E+02  0.17623404862E+03  0.00000000000E+00 0. -1.
          1    1    1    2  501    0  0.18214079492E+03  0.93333129913E+02  0.29903314387E+03  0.36236330312E+03  0.00000000000E+00 0. -1.
<scales pt_clust_5="13000.00000" pt_clust_6="13000.00000" pt_clust_7="13000.00000" pt_clust_8="13000.00000" pt_clust_9="13000.00000"></scales>
<clustering>
<clus scale="   80.401">  5  6 -1 -1</clus>
<clus scale="   82.533">  2  5  1 -1</clus>
<clus scale="   91.987">  7  8 -1 -1</clus>
<clus scale="  204.860">  7  9 -1 -1</clus>
<clus scale="  601.120">  1  5  2 -1</clus>
</clustering>
</event>
<event>
 9    2  0.4178938E-005  0.2514882E+03  0.7546771E-02  0.1145066E+00
          2   -1    0    0  502    0 -0.00000000000E+00  0.00000000000E+00  0.77460194892E+03  0.77460194892E+03  0.00000000000E+00 0. -1.
         21   -1    0    0  501  502  0.00000000000E+00 -0.00000000000E+00 -0.74648842119E+02  0.74648842119E+02  0.00000000000E+00 0. -1.
         24    2    1    2    0    0 -0.69468022977E+02  0.37655570927E+02  0.53915034373E+03  0.55074813082E+03  0.79979136116E+02 0.  0.
         23    2    1    2    0    0  0.68106356316E+02  0.69098367880E+02  0.46499315392E+02  0.14209442598E+03  0.92820145170E+02 0.  0.
        -11    1    3    3    0    0 -0.40677735050E+02  0.10442689083E+02  0.84359296863E+02  0.94234913123E+02  0.00000000000E+00 0.  1.
         12    1    3    3    0    0 -0.28790287927E+02  0.27212881845E+02  0.45479104687E+03  0.45651321770E+03  0.00000000000E+00 0. -1.
        -13    1    4    4    0    0  0.85143808503E+02  0.49522068964E+02  0.12449201288E+02  0.99281851583E+02  0.00000000000E+00 0. -1.
         13    1    4    4    0    0 -0.17037452188E+02  0.19576298915E+02  0.34050114105E+02  0.42812574401E+02  0.00000000000E+00 0.  1.
          1    1    1    2  501    0  0.13616666613E+01 -0.10675393881E+03  0.11430344768E+03  0.15640823424E+03  0.00000000000E+00 0. -1.
<scales pt_clust_5="13000.00000" pt_clust_6="13000.00000" pt_clust_7="13000.00000" pt_clust_8="13000.00000" pt_clust_9="13000.00000"></scales>
<clustering>
<clus scale="   79.979">  5  6 -1 -1</clus>
<clus scale="   92.820">  7  8 -1 -1</clus>
<clus scale="  106.763">  7  9 -1 -1</clus>
<clus scale="  112.430">  1  5  2 -1</clus>
<clus scale="  251.488">  2  5  1 -1</clus>
</clustering>
</event>
<event>
 9    2  0.4178938E-005  0.1485105E+03  0.7546771E-02  0.1213458E+00
         21   -1    0    0  501  502  0.00000000000E+00  0.00000000000E+00  0.10208174639E+03  0.10208174639E+03  0.00000000000E+00 0. -1.
          2   -1    0    0  502    0 -0.00000000000E+00 -0.00000000000E+00 -0.41704332976E+03  0.41704332976E+03  0.00000000000E+00 0. -1.
         24    2    1    2    0    0 -0.77398886280E+02  0.35716531771E+02 -0.34787434829E+03  0.36701127525E+03  0.80090297345E+02 0.  0.
         23    2    1    2    0    0  0.36906371222E+02 -0.11130614195E+02 -0.58313730100E+01  0.90915603676E+02  0.82132035598E+02 0.  0.
        -11    1    3    3    0    0 -0.31853000081E+02  0.17218100213E+02 -0.35208932976E+02  0.50504906201E+02  0.00000000000E+00 0.  1.
         12    1    3    3    0    0 -0.45545886199E+02  0.18498431558E+02 -0.31266541531E+03  0.31650636905E+03  0.00000000000E+00 0. -1.
        -11    1    4    4    0    0 -0.12138031611E+02 -0.29059758845E+02 -0.19366517144E+02  0.36971115507E+02  0.00000000000E+00 0.  1.
         11    1    4    4    0    0  0.49044402833E+02  0.17929144649E+02  0.13535144134E+02  0.53944488170E+02  0.00000000000E+00 0. -1.
          1    1    1    2  501    0  0.40492515058E+02 -0.24585917575E+02  0.38744137930E+02  0.61198197217E+02  0.00000000000E+00 0. -1.
<scales pt_clust_5="13000.00000" pt_clust_6="13000.00000" pt_clust_7="13000.00000" pt_clust_8="13000.00000" pt_clust_9="13000.00000"></scales>
<clustering>
<clus scale="   80.090">  5  6 -1 -1</clus>
<clus scale="   82.132">  7  8 -1 -1</clus>
<clus scale="   47.372">  7  9 -1 -1</clus>
<clus scale="  116.965">  2  5  1 -1</clus>
<clus scale="  148.510">  1  5  2 -1</clus>
</clustering>
</event>
<event>
 9    2  0.5148588E-005  0.2625869E+03  0.7546771E-02  0.1135844E+00
          2   -1    0    0  502    0 -0.00000000000E+00  0.00000000000E+00  0.73780584433E+03  0.73780584433E+03  0.00000000000E+00 0. -1.
         21   -1    0    0  501  502  0.00000000000E+00 -0.00000000000E+00 -0.78638368888E+02  0.78638368888E+02  0.00000000000E+00 0. -1.
         24    2    1    2    0    0  0.93601108658E+02  0.34753638264E+01  0.48716535292E+03  0.50253877078E+03  0.80261381489E+02 0.  0.
         23    2    1    2    0    0  0.32266499627E+02 -0.68760743423E+01  0.16035313431E+03  0.18745419264E+03  0.91310126807E+02 0.  0.
        -11    1    3    3    0    0  0.10723562544E+02  0.31652886591E+02  0.94529772125E+02  0.10026354193E+03  0.00000000000E+00 0.  1.
         12    1    3    3    0    0  0.82877546113E+02 -0.28177522765E+02  0.39263558080E+03  0.40227522885E+03  0.00000000000E+00 0. -1.
        -13    1    4    4    0    0  0.54887510882E+02 -0.10483797383E+02  0.50759613668E+02  0.75492299197E+02  0.00000000000E+00 0. -1.
         13    1    4    4    0    0 -0.22621011255E+02  0.36077230412E+01  0.10959352065E+03  0.11196189344E+03  0.00000000000E+00 0.  1.
          1    1    1    2  501    0 -0.12586760828E+03  0.34007105159E+01  0.11648988204E+02  0.12645124979E+03  0.00000000000E+00 0. -1.
<scales pt_clust_5="13000.00000" pt_clust_6="13000.00000" pt_clust_7="13000.00000" pt_clust_8="13000.00000" pt_clust_9="13000.00000"></scales>
<clustering>
<clus scale="   80.261">  5  6 -1 -1</clus>
<clus scale="   91.310">  7  8 -1 -1</clus>
<clus scale="  123.350">  1  5  2 -1</clus>
<clus scale="   99.362">  7  9 -1 -1</clus>
<clus scale="  262.587">  2  5  1 -1</clus>
</clustering>
</event>
<event>
 9    2  0.4467343E-005  0.2834137E+03  0.7546771E-02  0.1121736E+00
         -1   -1    0    0    0  501 -0.00000000000E+00  0.00000000000E+00  0.88356699968E+03  0.88356699968E+03  0.00000000000E+00 0.  1.
         21   -1    0    0  501  502  0.00000000000E+00 -0.00000000000E+00 -0.55668861438E+02  0.55668861438E+02  0.00000000000E+00 0.  1.
         24    2    1    2    0    0  0.46995649413E+02  0.10328992358E+03  0.14953596176E+03  0.20404978250E+03  0.79986939566E+02 0.  0.
         23    2    1    2    0    0  0.84509251626E+01  0.58292244142E+02  0.34072643376E+03  0.35679340649E+03  0.87963790194E+02 0.  0.
        -13    1    3    3    0    0  0.67616281951E+02  0.94960280546E+02  0.12421632514E+03  0.17034996888E+03  0.00000000000E+00 0.  1.
         14    1    3    3    0    0 -0.20620632539E+02  0.83296430377E+01  0.25319636618E+02  0.33699813618E+02  0.00000000000E+00 0. -1.
        -11    1    4    4    0    0 -0.39596249768E+02  0.19699420603E+02  0.14477669600E+03  0.15138104859E+03  0.00000000000E+00 0.  1.
         11    1    4    4    0    0  0.48047174930E+02  0.38592823539E+02  0.19594973776E+03  0.20541235790E+03  0.00000000000E+00 0. -1.
         -2    1    1    2    0  502 -0.55446574575E+02 -0.16158216773E+03  0.33763574272E+03  0.37839267213E+03  0.00000000000E+00 0.  1.
<scales pt_clust_5="13000.00000" pt_clust_6="13000.00000" pt_clust_7="13000.00000" pt_clust_8="13000.00000" pt_clust_9="13000.00000"></scales>
<clustering>
<clus scale="   79.987">  5  6 -1 -1</clus>
<clus scale="   87.964">  7  8 -1 -1</clus>
<clus scale="  138.836">  1  5  2 -1</clus>
<clus scale="  113.750">  7  9 -1 -1</clus>
<clus scale="  283.414">  2  5  1 -1</clus>
</clustering>
</event>
<event>
 9    2  0.4178938E-005  0.2504337E+03  0.7546771E-02  0.1126107E+00
          2   -1    0    0  502    0 -0.00000000000E+00  0.00000000000E+00  0.67152098750E+03  0.67152098750E+03  0.00000000000E+00 0. -1.
         21   -1    0    0  501  502  0.00000000000E+00 -0.00000000000E+00 -0.76484635571E+02  0.76484635571E+02  0.00000000000E+00 0. -1.
         24    2    1    2    0    0 -0.16079185854E+03 -0.50264413300E+01  0.36836219941E+03  0.41022135487E+03  0.81924130485E+02 0.  0.
         23    2    1    2    0    0  0.65856847756E+02  0.23350886353E+02  0.20908965047E+03  0.23951089301E+03  0.93619429868E+02 0.  0.
        -11    1    3    3    0    0 -0.97325620059E+02  0.21058685892E+02  0.28701814594E+03  0.30380118609E+03  0.00000000000E+00 0.  1.
         12    1    3    3    0    0 -0.63466238481E+02 -0.26085127222E+02  0.81344053472E+02  0.10642016879E+03  0.00000000000E+00 0. -1.
        -11    1    4    4    0    0  0.12574402802E+02 -0.34298333205E+02  0.48079115961E+02  0.60382883817E+02  0.00000000000E+00 0.  1.
         11    1    4    4    0    0  0.53282444954E+02  0.57649219558E+02  0.16101053451E+03  0.17912800920E+03  0.00000000000E+00 0. -1.
          1    1    1    2  501    0  0.94935010785E+02 -0.18324445023E+02  0.17584502053E+02  0.98273375186E+02  0.00000000000E+00 0. -1.
<scales pt_clust_5="13000.00000" pt_clust_6="13000.00000" pt_clust_7="13000.00000" pt_clust_8="13000.00000" pt_clust_9="13000.00000"></scales>
<clustering>
<clus scale="   81.924">  5  6 -1 -1</clus>
<clus scale="   93.619">  7  8 -1 -1</clus>
<clus scale="   96.687">  7  9 -1 -1</clus>
<clus scale="  180.529">  1  5  2 -1</clus>
<clus scale="  250.434">  2  5  1 -1</clus>
</clustering>
</event>
<event>
 9    2  0.4178938E-005  0.2879138E+03  0.7546771E-02  0.1134950E+00
         21   -1    0    0  501  502  0.00000000000E+00  0.00000000000E+00  0.20724741302E+03  0.20724741302E+03  0.00000000000E+00 0. -1.
          2   -1    0    0  502    0 -0.00000000000E+00 -0.00000000000E+00 -0.30093613356E+03  0.30093613356E+03  0.00000000000E+00 0. -1.
         24    2    1    2    0    0 -0.36262208901E+02 -0.36672928516E+02 -0.18321400016E+03  0.20667215065E+03  0.80536678091E+02 0.  0.
         23    2    1    2    0    0  0.81433223417E+02 -0.90378341830E+02  0.31794792391E+02  0.15483060304E+03  0.90343745031E+02 0.  0.
        -13    1    3    3    0    0 -0.46774391733E+02  0.98163317841E+01 -0.98041632631E+02  0.10907046264E+03  0.00000000000E+00 0.  1.
         14    1    3    3    0    0  0.10512182832E+02 -0.46489260300E+02 -0.85172367533E+02  0.97601688009E+02  0.00000000000E+00 0. -1.
        -13    1    4    4    0    0  0.51099026926E+02 -0.10515485414E+03  0.17624158730E+02  0.11823394129E+03  0.00000000000E+00 0. -1.
         13    1    4    4    0    0  0.30334196490E+02  0.14776512310E+02  0.14170633661E+02  0.36596661748E+02  0.00000000000E+00 0.  1.
          1    1    1    2  501    0 -0.45171014516E+02  0.12705127035E+03  0.57730487235E+02  0.14668079290E+03  0.00000000000E+00 0. -1.
<scales pt_clust_5="13000.00000" pt_clust_6="13000.00000" pt_clust_7="13000.00000" pt_clust_8="13000.00000" pt_clust_9="13000.00000"></scales>
<clustering>
<clus scale="   80.537">  5  6 -1 -1</clus>
<clus scale="   90.344">  7  8 -1 -1</clus>
<clus scale="   95.635">  2  5  1 -1</clus>
<clus scale="  126.946">  7  9 -1 -1</clus>
<clus scale="  287.914">  1  5  2 -1</clus>
</clustering>
</event>
<event>
 9    2  0.4178938E-005  0.1091574E+04  0.7546771E-02  0.9620131E-01
          2   -1    0    0  502    0 -0.00000000000E+00  0.00000000000E+00  0.93663612274E+03  0.93663612274E+03  0.00000000000E+00 0. -1.
         21   -1    0    0  501  502  0.00000000000E+00 -0.00000000000E+00 -0.56780067006E+03  0.56780067006E+03  0.00000000000E+00 0. -1.
         24    2    1    2    0    0  0.22524090282E+03 -0.92180928200E+02  0.32249457879E+03  0.41187954756E+03  0.80070097587E+02 0.  0.
         23    2    1    2    0    0  0.28909929748E+03 -0.25371367011E+03 -0.17649479943E+03  0.43388839666E+03  0.95706302464E+02 0.  0.
        -13    1    3    3    0    0  0.73535169788E+02 -0.66384935832E+02  0.15915740356E+03  0.18747122448E+03  0.00000000000E+00 0.  1.
         14    1    3    3    0    0  0.15170573303E+03 -0.25795992367E+02  0.16333717523E+03  0.22440832308E+03  0.00000000000E+00 0. -1.
        -13    1    4    4    0    0  0.18608854062E+03 -0.10132940501E+03 -0.83107415441E+02  0.22760368136E+03  0.00000000000E+00 0.  1.
         13    1    4    4    0    0  0.10301075686E+03 -0.15238426509E+03 -0.93387383988E+02  0.20628471530E+03  0.00000000000E+00 0. -1.
          1    1    1    2  501    0 -0.51434020030E+03  0.34589459831E+03  0.22283567331E+03  0.65866884857E+03  0.00000000000E+00 0. -1.
<scales pt_clust_5="13000.00000" pt_clust_6="13000.00000" pt_clust_7="13000.00000" pt_clust_8="13000.00000" pt_clust_9="13000.00000"></scales>
<clustering>
<clus scale="   80.070">  5  6 -1 -1</clus>
<clus scale="   95.706">  7  8 -1 -1</clus>
<clus scale="  256.207">  1  5  2 -1</clus>
<clus scale="  437.011">  7  9 -1 -1</clus>
<clus scale=" 1091.574">  2  5  1 -1</clus>
</clustering>
</event>
<event>
 9    2  0.4178938E-005  0.7172758E+03  0.7546771E-02  0.9979585E-01
         21   -1    0    0  501  502  0.00000000000E+00  0.00000000000E+00  0.33469163770E+03  0.33469163770E+03  0.00000000000E+00 0. -1.
          2   -1    0    0  502    0 -0.00000000000E+00 -0.00000000000E+00 -0.96300742466E+03  0.96300742466E+03  0.00000000000E+00 0. -1.
         24    2    1    2    0    0 -0.64112626859E+02  0.25691197659E+03 -0.49616168077E+03  0.56835056567E+03  0.82047299699E+02 0.  0.
         23    2    1    2    0    0  0.25925897633E+03 -0.37950985331E+02 -0.28584849295E+03  0.39821713616E+03  0.90620265450E+02 0.  0.
        -13    1    3    3    0    0 -0.53080045027E+02  0.10987232293E+03 -0.29234156302E+03  0.31678542895E+03  0.00000000000E+00 0.  1.
         14    1    3    3    0    0 -0.11032581833E+02  0.14703965366E+03 -0.20382011776E+03  0.25156513672E+03  0.00000000000E+00 0. -1.
        -11    1    4    4    0    0  0.21324297824E+03  0.59445150064E+01 -0.21185362804E+03  0.30064907241E+03  0.00000000000E+00 0.  1.
         11    1    4    4    0    0  0.46015998096E+02 -0.43895500337E+02 -0.73994864910E+02  0.97568063749E+02  0.00000000000E+00 0. -1.
          1    1    1    2  501    0 -0.19514634947E+03 -0.21896099126E+03  0.15369438676E+03  0.33113136053E+03  0.00000000000E+00 0. -1.
<scales pt_clust_5="13000.00000" pt_clust_6="13000.00000" pt_clust_7="13000.00000" pt_clust_8="13000.00000" pt_clust_9="13000.00000"></scales>
<clustering>
<clus scale="   82.047">  5  6 -1 -1</clus>
<clus scale="   90.620">  7  8 -1 -1</clus>
<clus scale="  277.211">  2  5  1 -1</clus>
<clus scale="  266.424">  7  9 -1 -1</clus>
<clus scale="  717.276">  1  5  2 -1</clus>
</clustering>
</event>
<event>
 9    2  0.4178938E-005  0.3726875E+03  0.7546771E-02  0.1086032E+00
          2   -1    0    0  502    0 -0.00000000000E+00  0.00000000000E+00  0.67803466014E+03  0.67803466014E+03  0.00000000000E+00 0. -1.
         21   -1    0    0  501  502  0.00000000000E+00 -0.00000000000E+00 -0.11171657381E+03  0.11171657381E+03  0.00000000000E+00 0. -1.
         24    2    1    2    0    0  0.13434051653E+03 -0.72210029013E+01  0.28222489208E+03  0.32113099992E+03  0.73312428251E+02 0.  0.
         23    2    1    2    0    0 -0.20314327633E+02 -0.49067788470E+02 -0.44296094511E+02  0.11646980487E+03  0.93716336280E+02 0.  0.
        -11    1    3    3    0    0  0.26137016621E+02  0.24975138468E+02  0.40153785350E+02  0.54029877450E+02  0.00000000000E+00 0.  1.
         12    1    3    3    0    0  0.10820349991E+03 -0.32196141369E+02  0.24207110673E+03  0.26710112247E+03  0.00000000000E+00 0. -1.
        -13    1    4    4    0    0 -0.20541549911E+02 -0.17039240639E+02 -0.70311424625E+02  0.75206299119E+02  0.00000000000E+00 0.  1.
         13    1    4    4    0    0  0.22722227864E+00 -0.32028547831E+02  0.26015330114E+02  0.41263505754E+02  0.00000000000E+00 0. -1.
          1    1    1    2  501    0 -0.11402618890E+03  0.56288791371E+02  0.32838928876E+03  0.35215042916E+03  0.00000000000E+00 0. -1.
<scales pt_clust_5="13000.00000" pt_clust_6="13000.00000" pt_clust_7="13000.00000" pt_clust_8="13000.00000" pt_clust_9="13000.00000"></scales>
<clustering>
<clus scale="   73.312">  5  6 -1 -1</clus>
<clus scale="   93.716">  7  8 -1 -1</clus>
<clus scale="  127.163">  7  9 -1 -1</clus>
<clus scale="  153.213">  1  5  2 -1</clus>
<clus scale="  372.688">  2  5  1 -1</clus>
</clustering>
</event>
<event>
 9    2  0.4178938E-005  0.1939480E+03  0.7546771E-02  0.1191666E+00
         21   -1    0    0  501  502  0.00000000000E+00  0.00000000000E+00  0.39955034219E+03  0.39955034219E+03  0.00000000000E+00 0. -1.
         -3   -1    0    0    0  501 -0.00000000000E+00 -0.00000000000E+00 -0.51756389194E+02  0.51756389194E+02  0.00000000000E+00 0.  1.
         24    2    1    2    0    0  0.14286133191E+02 -0.14281515073E+02  0.16293629318E+03  0.18337355406E+03  0.81667431805E+02 0.  0.
         23    2    1    2    0    0 -0.37974815694E+02 -0.12179010498E+02  0.20441465274E+03  0.22738950871E+03  0.91270058029E+02 0.  0.
        -11    1    3    3    0    0  0.60596233908E+01 -0.38785573551E+02  0.34188328897E+02  0.52056522974E+02  0.00000000000E+00 0.  1.
         12    1    3    3    0    0  0.82265097999E+01  0.24504058478E+02  0.12874796428E+03  0.13131703108E+03  0.00000000000E+00 0. -1.
        -11    1    4    4    0    0 -0.34118098342E+02 -0.47823898850E+02  0.15914710336E+03  0.16964365725E+03  0.00000000000E+00 0. -1.
         11    1    4    4    0    0 -0.38567173522E+01  0.35644888352E+02  0.45267549375E+02  0.57745851460E+02  0.00000000000E+00 0.  1.
         -4    1    1    2    0  502  0.23688682503E+02  0.26460525571E+02 -0.19556992929E+02  0.40543668613E+02  0.00000000000E+00 0.  1.
<scales pt_clust_5="13000.00000" pt_clust_6="13000.00000" pt_clust_7="13000.00000" pt_clust_8="13000.00000" pt_clust_9="13000.00000"></scales>
<clustering>
<clus scale="   81.667">  5  6 -1 -1</clus>
<clus scale="   84.129">  2  5  1 -1</clus>
<clus scale="   91.270">  7  8 -1 -1</clus>
<clus scale="   37.653">  7  9 -1 -1</clus>
<clus scale="  193.948">  1  5  2 -1</clus>
</clustering>
</event>
<event>
 9    2  0.4178938E-005  0.2970918E+03  0.7546771E-02  0.1120680E+00
         21   -1    0    0  501  502  0.00000000000E+00  0.00000000000E+00  0.15990264771E+03  0.15990264771E+03  0.00000000000E+00 0. -1.
          2   -1    0    0  502    0 -0.00000000000E+00 -0.00000000000E+00 -0.85604698324E+03  0.85604698324E+03  0.00000000000E+00 0. -1.
         24    2    1    2    0    0  0.39026057185E+02  0.83610941736E+02 -0.70789048891E+03  0.71862571264E+03  0.82463009009E+02 0.  0.
         23    2    1    2    0    0  0.75154581068E+02 -0.81683791889E+02 -0.65979959291E+02  0.15918528993E+03  0.93092151068E+02 0.  0.
        -11    1    3    3    0    0  0.38296585802E+02 -0.17965781137E+01 -0.21859211433E+03  0.22192874673E+03  0.00000000000E+00 0.  1.
         12    1    3    3    0    0  0.72947138237E+00  0.85407519849E+02 -0.48929837458E+03  0.49669696591E+03  0.00000000000E+00 0. -1.
        -13    1    4    4    0    0  0.26081782184E+02 -0.53063268960E+02 -0.81131197997E+02  0.10039044358E+03  0.00000000000E+00 0.  1.
         13    1    4    4    0    0  0.49072798884E+02 -0.28620522930E+02  0.15151238705E+02  0.58794846351E+02  0.00000000000E+00 0. -1.
          1    1    1    2  501    0 -0.11418063825E+03 -0.19271498463E+01  0.77726112679E+02  0.13813862838E+03  0.00000000000E+00 0. -1.
<scales pt_clust_5="13000.00000" pt_clust_6="13000.00000" pt_clust_7="13000.00000" pt_clust_8="13000.00000" pt_clust_9="13000.00000"></scales>
<clustering>
<clus scale="   82.463">  5  6 -1 -1</clus>
<clus scale="   93.092">  7  8 -1 -1</clus>
<clus scale="  114.197">  7  9 -1 -1</clus>
<clus scale="  123.750">  2  5  1 -1</clus>
<clus scale="  297.092">  1  5  2 -1</clus>
</clustering>
</event>
<event>
 9    2  0.4178938E-005  0.2667530E+03  0.7546771E-02  0.1113354E+00
          2   -1    0    0  502    0 -0.00000000000E+00  0.00000000000E+00  0.20279814029E+04  0.20279814029E+04  0.00000000000E+00 0. -1.
         21   -1    0    0  501  502  0.00000000000E+00 -0.00000000000E+00 -0.28155584440E+02  0.28155584440E+02  0.00000000000E+00 0. -1.
         24    2    1    2    0    0  0.18902454587E+03  0.93570268443E+01  0.71749971024E+03  0.74635936298E+03  0.80178747884E+02 0.  0.
         23    2    1    2    0    0 -0.51868541814E+02  0.23144333726E+02  0.32883812170E+03  0.34592729971E+03  0.91132763552E+02 0.  0.
        -11    1    3    3    0    0  0.75121091236E+02 -0.30898699361E+02  0.35817461579E+03  0.36726960583E+03  0.00000000000E+00 0.  1.
         12    1    3    3    0    0  0.11390345463E+03  0.40255726205E+02  0.35932509445E+03  0.37908975715E+03  0.00000000000E+00 0. -1.
        -11    1    4    4    0    0 -0.33217426096E+02  0.58355994087E+02  0.22030192413E+03  0.23030796169E+03  0.00000000000E+00 0. -1.
         11    1    4    4    0    0 -0.18651115718E+02 -0.35211660360E+02  0.10853619756E+03  0.11561933802E+03  0.00000000000E+00 0.  1.
          1    1    1    2  501    0 -0.13715600405E+03 -0.32501360571E+02  0.95348798648E+03  0.96385032460E+03  0.00000000000E+00 0. -1.
<scales pt_clust_5="13000.00000" pt_clust_6="13000.00000" pt_clust_7="13000.00000" pt_clust_8="13000.00000" pt_clust_9="13000.00000"></scales>
<clustering>
<clus scale="   80.179">  5  6 -1 -1</clus>
<clus scale="   91.133">  7  8 -1 -1</clus>
<clus scale="  140.954">  7  9 -1 -1</clus>
<clus scale="  205.540">  1  5  2 -1</clus>
<clus scale="  266.753">  2  5  1 -1</clus>
</clustering>
</event>
<event>
 9    2  0.4178938E-005  0.1923606E+03  0.7546771E-02  0.1189737E+00
         21   -1    0    0  501  502  0.00000000000E+00  0.00000000000E+00  0.76601552412E+02  0.76601552412E+02  0.00000000000E+00 0.  1.
         -1   -1    0    0    0  501 -0.00000000000E+00 -0.00000000000E+00 -0.29175012411E+03  0.29175012411E+03  0.00000000000E+00 0.  1.
         24    2    1    2    0    0  0.21217118159E+02 -0.37672306403E+02 -0.15849504506E+02  0.91363036387E+02  0.78908990946E+02 0.  0.
         23    2    1    2    0    0  0.45928640045E+02  0.10413679951E+02 -0.58611088860E+02  0.11873348917E+03  0.91893944337E+02 0.  0.
        -11    1    3    3    0    0  0.41262296204E+02 -0.46308781398E+02  0.35984573492E+01  0.62129133407E+02  0.00000000000E+00 0.  1.
         12    1    3    3    0    0 -0.20045178045E+02  0.86364749949E+01 -0.19447961855E+02  0.29233902981E+02  0.00000000000E+00 0. -1.
        -11    1    4    4    0    0  0.53467150407E+02  0.43443326796E+02 -0.33771119633E+02  0.76723838128E+02  0.00000000000E+00 0.  1.
         11    1    4    4    0    0 -0.75385103618E+01 -0.33029646846E+02 -0.24839969227E+02  0.42009651039E+02  0.00000000000E+00 0. -1.
         -2    1    1    2    0  502 -0.67145758204E+02  0.27258626453E+02 -0.14068797833E+03  0.15825515097E+03  0.00000000000E+00 0.  1.
<scales pt_clust_5="13000.00000" pt_clust_6="13000.00000" pt_clust_7="13000.00000" pt_clust_8="13000.00000" pt_clust_9="13000.00000"></scales>
<clustering>
<clus scale="   78.909">  5  6 -1 -1</clus>
<clus scale="   89.978">  2  5  1 -1</clus>
<clus scale="   91.894">  7  8 -1 -1</clus>
<clus scale="   53.950">  7  9 -1 -1</clus>
<clus scale="  192.361">  1  5  2 -1</clus>
</clustering>
</event>
<event>
 9    2  0.4178938E-005  0.2868500E+03  0.7546771E-02  0.1119910E+00
         21   -1    0    0  501  502  0.00000000000E+00  0.00000000000E+00  0.18340022107E+03  0.18340022107E+03  0.00000000000E+00 0.  1.
         -1   -1    0    0    0  501 -0.00000000000E+00 -0.00000000000E+00 -0.24913557885E+03  0.24913557885E+03  0.00000000000E+00 0.  1.
         24    2    1    2    0    0 -0.78675199269E+02  0.83346481508E+02 -0.31478362516E+02  0.14364751864E+03  0.80667833398E+02 0.  0.
         23    2    1    2    0    0  0.51175375280E+02  0.72439025060E+02 -0.15132991483E+02  0.12954245643E+03  0.93198225311E+02 0.  0.
        -13    1    3    3    0    0 -0.65040429086E+02  0.11010174987E+02 -0.83654943468E+01  0.66494081426E+02  0.00000000000E+00 0.  1.
         14    1    3    3    0    0 -0.13634770182E+02  0.72336306521E+02 -0.23112868169E+02  0.77153437215E+02  0.00000000000E+00 0. -1.
        -13    1    4    4    0    0  0.39524412214E+01  0.29025468243E+02  0.36781186970E+02  0.47020796604E+02  0.00000000000E+00 0. -1.
         13    1    4    4    0    0  0.47222934058E+02  0.43413556817E+02 -0.51914178453E+02  0.82521659830E+02  0.00000000000E+00 0.  1.
         -2    1    1    2    0  502  0.27499823989E+02 -0.15578550657E+03 -0.19124003775E+02  0.15934582485E+03  0.00000000000E+00 0.  1.
<scales pt_clust_5="13000.00000" pt_clust_6="13000.00000" pt_clust_7="13000.00000" pt_clust_8="13000.00000" pt_clust_9="13000.00000"></scales>
<clustering>
<clus scale="   80.668">  5  6 -1 -1</clus>
<clus scale="   93.198">  7  8 -1 -1</clus>
<clus scale="  140.156">  2  5  1 -1</clus>
<clus scale="  110.907">  7  9 -1 -1</clus>
<clus scale="  286.850">  1  5  2 -1</clus>
</clustering>
</event>
<event>
 9    2  0.4178938E-005  0.2143083E+03  0.7546771E-02  0.1159213E+00
         21   -1    0    0  501  502  0.00000000000E+00  0.00000000000E+00  0.65535575686E+02  0.65535575686E+02  0.00000000000E+00 0. -1.
          2   -1    0    0  502    0 -0.00000000000E+00 -0.00000000000E+00 -0.11336752239E+04  0.11336752239E+04  0.00000000000E+00 0. -1.
         24    2    1    2    0    0  0.14234549805E+02  0.10219504064E+03 -0.94115800179E+03  0.95010766170E+03  0.79244783708E+02 0.  0.
         23    2    1    2    0    0 -0.36807595115E+02 -0.53391919219E+02 -0.15352028212E+03  0.18913993060E+03  0.89442384965E+02 0.  0.
        -13    1    3    3    0    0  0.16415184790E+02  0.52365945316E+02 -0.20363696270E+03  0.21090202251E+03  0.00000000000E+00 0.  1.
         14    1    3    3    0    0 -0.21806349849E+01  0.49829095325E+02 -0.73752103909E+03  0.73920563919E+03  0.00000000000E+00 0. -1.
        -13    1    4    4    0    0 -0.51255921958E+02 -0.11960646831E+02 -0.36192737030E+02  0.63875980009E+02  0.00000000000E+00 0. -1.
         13    1    4    4    0    0  0.14448326843E+02 -0.41431272388E+02 -0.11732754509E+03  0.12526395059E+03  0.00000000000E+00 0.  1.
          1    1    1    2  501    0  0.22573045310E+02 -0.48803121422E+02  0.26538635747E+02  0.59963207239E+02  0.00000000000E+00 0. -1.
<scales pt_clust_5="13000.00000" pt_clust_6="13000.00000" pt_clust_7="13000.00000" pt_clust_8="13000.00000" pt_clust_9="13000.00000"></scales>
<clustering>
<clus scale="   79.245">  5  6 -1 -1</clus>
<clus scale="   89.442">  7  8 -1 -1</clus>
<clus scale="   53.771">  7  9 -1 -1</clus>
<clus scale="  130.101">  2  5  1 -1</clus>
<clus scale="  214.308">  1  5  2 -1</clus>
</clustering>
</event>
<event>
 9    2  0.4178938E-005  0.2024577E+03  0.7546771E-02  0.1173847E+00
         21   -1    0    0  501  502  0.00000000000E+00  0.00000000000E+00  0.16648473323E+03  0.16648473323E+03  0.00000000000E+00 0.  1.
          4   -1    0    0  502    0 -0.00000000000E+00 -0.00000000000E+00 -0.22103422569E+03  0.22103422569E+03  0.00000000000E+00 0. -1.
         24    2    1    2    0    0  0.25844355381E+02 -0.71733388629E+02 -0.13093580626E+03  0.17113041487E+03  0.79547619583E+02 0.  0.
         23    2    1    2    0    0  0.50774598198E+02  0.36332335670E+02  0.74423812606E+02  0.13196372537E+03  0.89316417831E+02 0.  0.
        -11    1    3    3    0    0 -0.21919513240E+02 -0.67623277713E+01 -0.58110928344E+02  0.62474587878E+02  0.00000000000E+00 0.  1.
         12    1    3    3    0    0  0.47763868621E+02 -0.64971060858E+02 -0.72824877920E+02  0.10865582699E+03  0.00000000000E+00 0. -1.
        -11    1    4    4    0    0  0.53737855225E+01  0.32064276031E+02  0.79683156539E+02  0.86060448548E+02  0.00000000000E+00 0.  1.
         11    1    4    4    0    0  0.45400812676E+02  0.42680596385E+01 -0.52593439331E+01  0.45903276825E+02  0.00000000000E+00 0. -1.
          3    1    1    2  501    0 -0.76618953579E+02  0.35401052959E+02  0.19625011883E+01  0.84424818680E+02  0.00000000000E+00 0. -1.
<scales pt_clust_5="13000.00000" pt_clust_6="13000.00000" pt_clust_7="13000.00000" pt_clust_8="13000.00000" pt_clust_9="13000.00000"></scales>
<clustering>
<clus scale="   79.548">  5  6 -1 -1</clus>
<clus scale="   89.316">  7  8 -1 -1</clus>
<clus scale="   84.402">  7  9 -1 -1</clus>
<clus scale="  110.188">  2  5  1 -1</clus>
<clus scale="  202.458">  1  5  2 -1</clus>
</clustering>
</event>
<event>
 9    2  0.4178938E-005  0.3000512E+03  0.7546771E-02  0.1134447E+00
         21   -1    0    0  501  502  0.00000000000E+00  0.00000000000E+00  0.81306326981E+03  0.81306326981E+03  0.00000000000E+00 0. -1.
          4   -1    0    0  502    0 -0.00000000000E+00 -0.00000000000E+00 -0.45773470680E+02  0.45773470680E+02  0.00000000000E+00 0. -1.
         24    2    1    2    0    0  0.76102835977E+00 -0.27713347331E+02  0.18330349143E+03  0.20227696261E+03  0.80914713421E+02 0.  0.
         23    2    1    2    0    0  0.46072647395E+02 -0.11278487633E+03  0.29239244854E+03  0.32951219306E+03  0.90784493428E+02 0.  0.
        -13    1    3    3    0    0  0.36942298119E+02  0.35533227000E+01  0.68392120377E+02  0.77812862833E+02  0.00000000000E+00 0.  1.
         14    1    3    3    0    0 -0.36181269759E+02 -0.31266670031E+02  0.11491137105E+03  0.12446409978E+03  0.00000000000E+00 0. -1.
        -11    1    4    4    0    0  0.71853583225E+02 -0.96758759827E+02  0.21670615913E+03  0.24796522827E+03  0.00000000000E+00 0. -1.
         11    1    4    4    0    0 -0.25780935830E+02 -0.16026116501E+02  0.75686289406E+02  0.81546964789E+02  0.00000000000E+00 0.  1.
          3    1    1    2  501    0 -0.46833675755E+02  0.14049822366E+03  0.29159385916E+03  0.32704758482E+03  0.00000000000E+00 0. -1.
<scales pt_clust_5="13000.00000" pt_clust_6="13000.00000" pt_clust_7="13000.00000" pt_clust_8="13000.00000" pt_clust_9="13000.00000"></scales>
<clustering>
<clus scale="   80.915">  5  6 -1 -1</clus>
<clus scale="   85.532">  2  5  1 -1</clus>
<clus scale="   90.784">  7  8 -1 -1</clus>
<clus scale="  135.194">  7  9 -1 -1</clus>
<clus scale="  300.051">  1  5  2 -1</clus>
</clustering>
</event>
<event>
 9    2  0.4178938E-005  0.5573909E+03  0.7546771E-02  0.1050559E+00
          2   -1    0    0  502    0 -0.00000000000E+00  0.00000000000E+00  0.35901311267E+03  0.35901311267E+03  0.00000000000E+00 0. -1.
         21   -1    0    0  501  502  0.00000000000E+00 -0.00000000000E+00 -0.32175068353E+03  0.32175068353E+03  0.00000000000E+00 0. -1.
         24    2    1    2    0    0 -0.43253544721E+02 -0.80347106769E+02  0.18130626063E+02  0.12304463025E+03  0.80527850675E+02 0.  0.
         23    2    1    2    0    0  0.25110761030E+03  0.55716764483E+02  0.14937386409E+03  0.31119744116E+03  0.91498121921E+02 0.  0.
        -11    1    3    3    0    0 -0.32633626989E+02 -0.44926316200E+01  0.31167010423E+02  0.45348868652E+02  0.00000000000E+00 0.  1.
         12    1    3    3    0    0 -0.10619917731E+02 -0.75854475149E+02 -0.13036384359E+02  0.77695761596E+02  0.00000000000E+00 0. -1.
        -13    1    4    4    0    0  0.12906284197E+03 -0.14094403578E+02  0.93065823783E+02  0.15974078048E+03  0.00000000000E+00 0. -1.
         13    1    4    4    0    0  0.12204476833E+03  0.69811168061E+02  0.56308040310E+02  0.15145666068E+03  0.00000000000E+00 0.  1.
          1    1    1    2  501    0 -0.20785406558E+03  0.24630342286E+02 -0.13024206102E+03  0.24652172480E+03  0.00000000000E+00 0. -1.
<scales pt_clust_5="13000.00000" pt_clust_6="13000.00000" pt_clust_7="13000.00000" pt_clust_8="13000.00000" pt_clust_9="13000.00000"></scales>
<clustering>
<clus scale="   80.528">  5  6 -1 -1</clus>
<clus scale="   91.498">  7  8 -1 -1</clus>
<clus scale="  121.702">  1  5  2 -1</clus>
<clus scale="  216.737">  7  9 -1 -1</clus>
<clus scale="  557.391">  2  5  1 -1</clus>
</clustering>
</event>
<event>
 9    2  0.4178938E-005  0.1820564E+03  0.7546771E-02  0.1190701E+00
          2   -1    0    0  502    0 -0.00000000000E+00  0.00000000000E+00  0.10779798349E+04  0.10779798349E+04  0.00000000000E+00 0. -1.
         21   -1    0    0  501  502  0.00000000000E+00 -0.00000000000E+00 -0.37161422850E+02  0.37161422850E+02  0.00000000000E+00 0. -1.
         24    2    1    2    0    0 -0.50011017683E+02 -0.37279187939E+02  0.83048897217E+03  0.83696324326E+03  0.83094512040E+02 0.  0.
         23    2    1    2    0    0 -0.28350954710E+02 -0.20554246601E+02  0.90077951111E+02  0.12343395024E+03  0.76783130363E+02 0.  0.
        -13    1    3    3    0    0  0.11727824834E+02  0.16279040812E+02  0.10631765031E+03  0.10819423189E+03  0.00000000000E+00 0.  1.
         14    1    3    3    0    0 -0.61738842518E+02 -0.53558228751E+02  0.72417132186E+03  0.72876901138E+03  0.00000000000E+00 0. -1.
        -13    1    4    4    0    0 -0.12302716039E+02 -0.47814592615E+02  0.37206074323E+02  0.61821388333E+02  0.00000000000E+00 0. -1.
         13    1    4    4    0    0 -0.16048238671E+02  0.27260346014E+02  0.52871876788E+02  0.61612561903E+02  0.00000000000E+00 0.  1.
          1    1    1    2  501    0  0.78361972394E+02  0.57833434541E+02  0.12025148874E+03  0.15474406422E+03  0.00000000000E+00 0. -1.
<scales pt_clust_5="13000.00000" pt_clust_6="13000.00000" pt_clust_7="13000.00000" pt_clust_8="13000.00000" pt_clust_9="13000.00000"></scales>
<clustering>
<clus scale="   76.783">  7  8 -1 -1</clus>
<clus scale="   83.095">  5  6 -1 -1</clus>
<clus scale="   97.393">  7  9 -1 -1</clus>
<clus scale="  103.902">  1  5  2 -1</clus>
<clus scale="  182.056">  2  5  1 -1</clus>
</clustering>
</event>
<event>
 9    2  0.4178938E-005  0.1318562E+03  0.7546771E-02  0.1247983E+00
         21   -1    0    0  501  502  0.00000000000E+00  0.00000000000E+00  0.25664705906E+02  0.25664705906E+02  0.00000000000E+00 0. -1.
          2   -1    0    0  502    0 -0.00000000000E+00 -0.00000000000E+00 -0.67905213950E+03  0.67905213950E+03  0.00000000000E+00 0. -1.
         24    2    1    2    0    0  0.26691832877E+02 -0.28645646394E+01 -0.47966973178E+03  0.48662533770E+03  0.77462946202E+02 0.  0.
         23    2    1    2    0    0 -0.59767939297E+01 -0.23177298907E+02 -0.15795754238E+03  0.18127202753E+03  0.85650764841E+02 0.  0.
        -11    1    3    3    0    0 -0.11523091962E+02  0.21221226658E+02 -0.62267902388E+02  0.66786329267E+02  0.00000000000E+00 0.  1.
         12    1    3    3    0    0  0.38214924839E+02 -0.24085791298E+02 -0.41740182939E+03  0.41983900843E+03  0.00000000000E+00 0. -1.
        -11    1    4    4    0    0 -0.31463438947E+02 -0.37311566886E+02 -0.13683526890E+03  0.14527901372E+03  0.00000000000E+00 0. -1.
         11    1    4    4    0    0  0.25486645017E+02  0.14134267979E+02 -0.21122273484E+02  0.35993013804E+02  0.00000000000E+00 0.  1.
          1    1    1    2  501    0 -0.20715038948E+02  0.26041863546E+02 -0.15760159438E+02  0.36819480185E+02  0.00000000000E+00 0. -1.
<scales pt_clust_5="13000.00000" pt_clust_6="13000.00000" pt_clust_7="13000.00000" pt_clust_8="13000.00000" pt_clust_9="13000.00000"></scales>
<clustering>
<clus scale="   77.463">  5  6 -1 -1</clus>
<clus scale="   81.983">  2  5  1 -1</clus>
<clus scale="   85.651">  7  8 -1 -1</clus>
<clus scale="   30.852">  7  9 -1 -1</clus>
<clus scale="  131.856">  1  5  2 -1</clus>
</clustering>
</event>
<event>
 9    2  0.4178938E-005  0.2473884E+03  0.7546771E-02  0.1152892E+00
         21   -1    0    0  501  502  0.00000000000E+00  0.00000000000E+00  0.33836285673E+03  0.33836285673E+03  0.00000000000E+00 0. -1.
          2   -1    0    0  502    0 -0.00000000000E+00 -0.00000000000E+00 -0.38618151948E+03  0.38618151948E+03  0.00000000000E+00 0. -1.
         24    2    1    2    0    0 -0.32240398472E+02  0.48712527641E+02 -0.33292287899E+03  0.34707192915E+03  0.78796744899E+02 0.  0.
         23    2    1    2    0    0 -0.30642426488E+02  0.29905506637E+02  0.25257778751E+03  0.27167540762E+03  0.90436114098E+02 0.  0.
        -11    1    3    3    0    0 -0.40831486018E+02 -0.47061283844E+01 -0.10365914212E+03  0.11151042839E+03  0.00000000000E+00 0.  1.
         12    1    3    3    0    0  0.85910875458E+01  0.53418656025E+02 -0.22926373688E+03  0.23556150077E+03  0.00000000000E+00 0. -1.
        -13    1    4    4    0    0 -0.42804805521E+02  0.88993682948E+01  0.24072503885E+03  0.24466302226E+03  0.00000000000E+00 0. -1.
         13    1    4    4    0    0  0.12162379034E+02  0.21006138343E+02  0.11852748654E+02  0.27012385353E+02  0.00000000000E+00 0.  1.
          1    1    1    2  501    0  0.62882824960E+02 -0.78618034278E+02  0.32526428735E+02  0.10579703944E+03  0.00000000000E+00 0. -1.
<scales pt_clust_5="13000.00000" pt_clust_6="13000.00000" pt_clust_7="13000.00000" pt_clust_8="13000.00000" pt_clust_9="13000.00000"></scales>
<clustering>
<clus scale="   78.797">  5  6 -1 -1</clus>
<clus scale="   90.436">  7  8 -1 -1</clus>
<clus scale="   98.088">  2  5  1 -1</clus>
<clus scale="   54.682">  7  9 -1 -1</clus>
<clus scale="  247.388">  1  5  2 -1</clus>
</clustering>
</event>
<event>
 9    2  0.4178938E-005  0.3153585E+03  0.7546771E-02  0.1109747E+00
         -3   -1    0    0    0  501 -0.00000000000E+00  0.00000000000E+00  0.37361008705E+03  0.37361008705E+03  0.00000000000E+00 0.  1.
         21   -1    0    0  501  502  0.00000000000E+00 -0.00000000000E+00 -0.15304257575E+03  0.15304257575E+03  0.00000000000E+00 0.  1.
         24    2    1    2    0    0 -0.91107143930E+02  0.69573485436E+02  0.15152010460E+03  0.20382375535E+03  0.73788885315E+02 0.  0.
         23    2    1    2    0    0 -0.78265666242E+02 -0.15389511508E+01  0.47236756773E+02  0.13900412368E+03  0.10470411800E+03 0.  0.
        -11    1    3    3    0    0 -0.10404188477E+03  0.60574511897E+02  0.13719903186E+03  0.18253098264E+03  0.00000000000E+00 0.  1.
         12    1    3    3    0    0  0.12934740843E+02  0.89989735386E+01  0.14321072744E+02  0.21292772716E+02  0.00000000000E+00 0. -1.
        -13    1    4    4    0    0  0.96829138137E+01  0.24083765723E+02 -0.13336853885E+02  0.29183184591E+02  0.00000000000E+00 0. -1.
         13    1    4    4    0    0 -0.87948580055E+02 -0.25622716873E+02  0.60573610657E+02  0.10982093909E+03  0.00000000000E+00 0.  1.
         -4    1    1    2    0  502  0.16937281017E+03 -0.68034534285E+02  0.21810649926E+02  0.18382478378E+03  0.00000000000E+00 0.  1.
<scales pt_clust_5="13000.00000" pt_clust_6="13000.00000" pt_clust_7="13000.00000" pt_clust_8="13000.00000" pt_clust_9="13000.00000"></scales>
<clustering>
<clus scale="   73.789">  5  6 -1 -1</clus>
<clus scale="  104.704">  7  8 -1 -1</clus>
<clus scale="  136.330">  1  5  2 -1</clus>
<clus scale="  125.586">  7  9 -1 -1</clus>
<clus scale="  315.358">  2  5  1 -1</clus>
</clustering>
</event>
<event>
 9    2  0.4178938E-005  0.2930551E+03  0.7546771E-02  0.1126364E+00
          4   -1    0    0  502    0 -0.00000000000E+00  0.00000000000E+00  0.47967486824E+02  0.47967486824E+02  0.00000000000E+00 0. -1.
         21   -1    0    0  501  502  0.00000000000E+00 -0.00000000000E+00 -0.85768310596E+03  0.85768310596E+03  0.00000000000E+00 0. -1.
         24    2    1    2    0    0  0.26965925641E+02 -0.74409509549E+02 -0.20129904208E+03  0.23033436749E+03  0.79174997634E+02 0.  0.
         23    2    1    2    0    0  0.90217342469E+00 -0.78237037243E+02 -0.18504263863E+03  0.22440260725E+03  0.99969515936E+02 0.  0.
        -13    1    3    3    0    0 -0.16091861379E+02 -0.50584200435E+02 -0.15059579696E+03  0.15967718497E+03  0.00000000000E+00 0.  1.
         14    1    3    3    0    0  0.43057787019E+02 -0.23825309115E+02 -0.50703245114E+02  0.70657182526E+02  0.00000000000E+00 0. -1.
        -11    1    4    4    0    0 -0.10347757932E+02 -0.38280117095E+02 -0.53924484377E+01  0.40019019968E+02  0.00000000000E+00 0.  1.
         11    1    4    4    0    0  0.11249931357E+02 -0.39956920148E+02 -0.17965019019E+03  0.18438358728E+03  0.00000000000E+00 0. -1.
          3    1    1    2  501    0 -0.27868099065E+02  0.15264654679E+03 -0.42337393843E+03  0.45091361804E+03  0.00000000000E+00 0. -1.
<scales pt_clust_5="13000.00000" pt_clust_6="13000.00000" pt_clust_7="13000.00000" pt_clust_8="13000.00000" pt_clust_9="13000.00000"></scales>
<clustering>
<clus scale="   79.175">  5  6 -1 -1</clus>
<clus scale="   99.970">  7  8 -1 -1</clus>
<clus scale="  111.949">  1  5  2 -1</clus>
<clus scale="  123.162">  7  9 -1 -1</clus>
<clus scale="  293.055">  2  5  1 -1</clus>
</clustering>
</event>
<event>
 9    2  0.4178938E-005  0.2069466E+03  0.7546771E-02  0.1183163E+00
         21   -1    0    0  501  502  0.00000000000E+00  0.00000000000E+00  0.18972203157E+03  0.18972203157E+03  0.00000000000E+00 0.  1.
          2   -1    0    0  502    0 -0.00000000000E+00 -0.00000000000E+00 -0.11367649773E+03  0.11367649773E+03  0.00000000000E+00 0. -1.
         24    2    1    2    0    0  0.20411979028E+02  0.12499195732E+02  0.42287342021E+02  0.93716609326E+02  0.80135540097E+02 0.  0.
         23    2    1    2    0    0  0.57728802671E+02  0.21478130812E+02  0.52960027161E+02  0.12233690888E+03  0.91474750808E+02 0.  0.
        -13    1    3    3    0    0 -0.29920635874E+02  0.12418308133E+02  0.99410110336E+01  0.33886317717E+02  0.00000000000E+00 0.  1.
         14    1    3    3    0    0  0.50332614902E+02  0.80887598902E-01  0.32346330988E+02  0.59830291610E+02  0.00000000000E+00 0. -1.
        -11    1    4    4    0    0 -0.15045336256E+02  0.33179830380E+02  0.14651993002E+02  0.39267597151E+02  0.00000000000E+00 0. -1.
         11    1    4    4    0    0  0.72774138927E+02 -0.11701699568E+02  0.38308034158E+02  0.83069311725E+02  0.00000000000E+00 0.  1.
          1    1    1    2  501    0 -0.78140781699E+02 -0.33977326545E+02 -0.19201835338E+02  0.87345011100E+02  0.00000000000E+00 0. -1.
<scales pt_clust_5="13000.00000" pt_clust_6="13000.00000" pt_clust_7="13000.00000" pt_clust_8="13000.00000" pt_clust_9="13000.00000"></scales>
<clustering>
<clus scale="   80.136">  5  6 -1 -1</clus>
<clus scale="   83.634">  2  5  1 -1</clus>
<clus scale="   91.475">  7  8 -1 -1</clus>
<clus scale="   70.881">  7  9 -1 -1</clus>
<clus scale="  206.947">  1  5  2 -1</clus>
</clustering>
</event>
<event>
 9    2  0.4178938E-005  0.6975159E+03  0.7546771E-02  0.1014351E+00
          2   -1    0    0  502    0 -0.00000000000E+00  0.00000000000E+00  0.19984779091E+04  0.19984779091E+04  0.00000000000E+00 0. -1.
         21   -1    0    0  501  502  0.00000000000E+00 -0.00000000000E+00 -0.10085221283E+03  0.10085221283E+03  0.00000000000E+00 0. -1.
         24    2    1    2    0    0  0.16158192794E+03  0.19092495340E+02  0.23723962585E+03  0.29838307478E+03  0.79224847261E+02 0.  0.
         23    2    1    2    0    0 -0.35457858881E+03 -0.21198880342E+03  0.95912080530E+03  0.10484647093E+04  0.93275393346E+02 0.  0.
        -13    1    3    3    0    0  0.12213918317E+03 -0.20733279780E+02  0.17757107414E+03  0.21651636272E+03  0.00000000000E+00 0.  1.
         14    1    3    3    0    0  0.39442744776E+02  0.39825775120E+02  0.59668551708E+02  0.81866712053E+02  0.00000000000E+00 0. -1.
        -13    1    4    4    0    0 -0.67728470938E+02 -0.87211997483E+02  0.26727941380E+03  0.28919087696E+03  0.00000000000E+00 0.  1.
         13    1    4    4    0    0 -0.28685011787E+03 -0.12477680594E+03  0.69184139151E+03  0.75927383231E+03  0.00000000000E+00 0. -1.
          1    1    1    2  501    0  0.19299666086E+03  0.19289630809E+03  0.70126526516E+03  0.75248233793E+03  0.00000000000E+00 0. -1.
<scales pt_clust_5="13000.00000" pt_clust_6="13000.00000" pt_clust_7="13000.00000" pt_clust_8="13000.00000" pt_clust_9="13000.00000"></scales>
<clustering>
<clus scale="   79.225">  5  6 -1 -1</clus>
<clus scale="   93.275">  7  8 -1 -1</clus>
<clus scale="  180.969">  1  5  2 -1</clus>
<clus scale="  329.265">  7  9 -1 -1</clus>
<clus scale="  697.516">  2  5  1 -1</clus>
</clustering>
</event>
<event>
 9    2  0.4178938E-005  0.2653281E+03  0.7546771E-02  0.1151917E+00
          2   -1    0    0  502    0 -0.00000000000E+00  0.00000000000E+00  0.79451089853E+03  0.79451089853E+03  0.00000000000E+00 0. -1.
         21   -1    0    0  501  502  0.00000000000E+00 -0.00000000000E+00 -0.40902427805E+02  0.40902427805E+02  0.00000000000E+00 0.  1.
         24    2    1    2    0    0  0.82972859966E+00 -0.88343950505E+01  0.93286882417E+02  0.12377885407E+03  0.80870435252E+02 0.  0.
         23    2    1    2    0    0  0.42833585172E+01 -0.88747040365E+02  0.17605324027E+03  0.21760601852E+03  0.91995932267E+02 0.  0.
        -11    1    3    3    0    0  0.21117588776E+02  0.10862837153E+02 -0.25248694032E+01  0.23881556738E+02  0.00000000000E+00 0.  1.
         12    1    3    3    0    0 -0.20287860176E+02 -0.19697232204E+02  0.95811751820E+02  0.99897297330E+02  0.00000000000E+00 0. -1.
        -11    1    4    4    0    0 -0.33533255848E+02 -0.10515331833E+02  0.24266055607E+02  0.42707059206E+02  0.00000000000E+00 0. -1.
         11    1    4    4    0    0  0.37816614365E+02 -0.78231708532E+02  0.15178718466E+03  0.17489895931E+03  0.00000000000E+00 0.  1.
          1    1    1    2  501    0 -0.51130871169E+01  0.97581435415E+02  0.48426834804E+03  0.49402845375E+03  0.00000000000E+00 0. -1.
<scales pt_clust_5="13000.00000" pt_clust_6="13000.00000" pt_clust_7="13000.00000" pt_clust_8="13000.00000" pt_clust_9="13000.00000"></scales>
<clustering>
<clus scale="   80.870">  5  6 -1 -1</clus>
<clus scale="   81.356">  1  5  2 -1</clus>
<clus scale="   91.996">  7  8 -1 -1</clus>
<clus scale="   91.394">  7  9 -1 -1</clus>
<clus scale="  265.328">  2  5  1 -1</clus>
</clustering>
</event>
<event>
 9    2  0.4178938E-005  0.5436524E+03  0.7546771E-02  0.1012154E+00
         21   -1    0    0  501  502  0.00000000000E+00  0.00000000000E+00  0.32436894511E+03  0.32436894511E+03  0.00000000000E+00 0. -1.
          2   -1    0    0  502    0 -0.00000000000E+00 -0.00000000000E+00 -0.25307948856E+04  0.25307948856E+04  0.00000000000E+00 0. -1.
         24    2    1    2    0    0  0.29432873962E+03 -0.27219800113E+03 -0.22711609928E+04  0.23076708209E+04  0.80319385808E+02 0.  0.
         23    2    1    2    0    0 -0.39250396947E+02  0.15210092498E+03 -0.11312712496E+03  0.21414150954E+03  0.91561753291E+02 0.  0.
        -11    1    3    3    0    0  0.59968003760E+02 -0.18501894838E+02 -0.30220412971E+03  0.30865161202E+03  0.00000000000E+00 0.  1.
         12    1    3    3    0    0  0.23436073586E+03 -0.25369610630E+03 -0.19689568631E+04  0.19990192089E+04  0.00000000000E+00 0. -1.
        -13    1    4    4    0    0  0.13491575363E+02  0.11852148839E+03 -0.75268921227E+02  0.14104884373E+03  0.00000000000E+00 0.  1.
         13    1    4    4    0    0 -0.52741972310E+02  0.33579436595E+02 -0.37858203730E+02  0.73092665807E+02  0.00000000000E+00 0. -1.
          1    1    1    2  501    0 -0.25507834267E+03  0.12009707615E+03  0.17786217729E+03  0.33335150023E+03  0.00000000000E+00 0. -1.
<scales pt_clust_5="13000.00000" pt_clust_6="13000.00000" pt_clust_7="13000.00000" pt_clust_8="13000.00000" pt_clust_9="13000.00000"></scales>
<clustering>
<clus scale="   80.319">  5  6 -1 -1</clus>
<clus scale="   91.562">  7  8 -1 -1</clus>
<clus scale="  281.937">  7  9 -1 -1</clus>
<clus scale="  408.867">  2  5  1 -1</clus>
<clus scale="  543.652">  1  5  2 -1</clus>
</clustering>
</event>
<event>
 9    2  0.4178938E-005  0.2136781E+03  0.7546771E-02  0.1167218E+00
         21   -1    0    0  501  502  0.00000000000E+00  0.00000000000E+00  0.50389126337E+02  0.50389126337E+02  0.00000000000E+00 0. -1.
          2   -1    0    0  502    0 -0.00000000000E+00 -0.00000000000E+00 -0.12911333617E+04  0.12911333617E+04  0.00000000000E+00 0. -1.
         24    2    1    2    0    0 -0.36568679270E+02  0.64916986848E+02 -0.10483032513E+04  0.10539605435E+04  0.79634396220E+02 0.  0.
         23    2    1    2    0    0 -0.27759792565E+02 -0.42498882473E+02 -0.25472119869E+02  0.10723078999E+03  0.90955221603E+02 0.  0.
        -13    1    3    3    0    0  0.19557433640E+02  0.17874010173E+02 -0.12606095414E+03  0.12881512958E+03  0.00000000000E+00 0.  1.
         14    1    3    3    0    0 -0.56126112910E+02  0.47042976675E+02 -0.92224229719E+03  0.92514541394E+03  0.00000000000E+00 0. -1.
        -11    1    4    4    0    0 -0.33348813904E+02  0.62169909199E+01 -0.43343243725E+02  0.55040268363E+02  0.00000000000E+00 0. -1.
         11    1    4    4    0    0  0.55890213394E+01 -0.48715873393E+02  0.17871123856E+02  0.52190521628E+02  0.00000000000E+00 0.  1.
          1    1    1    2  501    0  0.64328471835E+02 -0.22418104375E+02 -0.16696886416E+03  0.18033115452E+03  0.00000000000E+00 0. -1.
<scales pt_clust_5="13000.00000" pt_clust_6="13000.00000" pt_clust_7="13000.00000" pt_clust_8="13000.00000" pt_clust_9="13000.00000"></scales>
<clustering>
<clus scale="   79.634">  5  6 -1 -1</clus>
<clus scale="   90.955">  7  8 -1 -1</clus>
<clus scale="   68.123">  7  9 -1 -1</clus>
<clus scale="  109.056">  2  5  1 -1</clus>
<clus scale="  213.678">  1  5  2 -1</clus>
</clustering>
</event>
<event>
 9    2  0.4178938E-005  0.1745035E+03  0.7546771E-02  0.1200597E+00
         -3   -1    0    0    0  501 -0.00000000000E+00  0.00000000000E+00  0.17438206060E+03  0.17438206060E+03  0.00000000000E+00 0.  1.
         21   -1    0    0  501  502  0.00000000000E+00 -0.00000000000E+00 -0.11085670677E+03  0.11085670677E+03  0.00000000000E+00 0.  1.
         24    2    1    2    0    0 -0.33783632702E+02 -0.37802588406E+02 -0.10681997272E+02  0.95612321869E+02  0.80356962975E+02 0.  0.
         23    2    1    2    0    0  0.68939325187E+02 -0.98284837017E+01  0.50514694157E+02  0.12586137875E+03  0.91870140335E+02 0.  0.
        -13    1    3    3    0    0 -0.20522549975E+02 -0.62241336959E+02  0.76864822545E+00  0.65541970553E+02  0.00000000000E+00 0.  1.
         14    1    3    3    0    0 -0.13261082727E+02  0.24438748553E+02 -0.11450645498E+02  0.30070351316E+02  0.00000000000E+00 0. -1.
        -11    1    4    4    0    0 -0.17522172517E+02 -0.21718997728E+02  0.14487253587E+02  0.31442358507E+02  0.00000000000E+00 0. -1.
         11    1    4    4    0    0  0.86461497704E+02  0.11890514026E+02  0.36027440571E+02  0.94419020240E+02  0.00000000000E+00 0.  1.
         -4    1    1    2    0  502 -0.35155692485E+02  0.47631072108E+02  0.23692656949E+02  0.63765066749E+02  0.00000000000E+00 0.  1.
<scales pt_clust_5="13000.00000" pt_clust_6="13000.00000" pt_clust_7="13000.00000" pt_clust_8="13000.00000" pt_clust_9="13000.00000"></scales>
<clustering>
<clus scale="   80.357">  5  6 -1 -1</clus>
<clus scale="   91.870">  7  8 -1 -1</clus>
<clus scale="   59.200">  7  9 -1 -1</clus>
<clus scale="   95.014">  1  5  2 -1</clus>
<clus scale="  174.503">  2  5  1 -1</clus>
</clustering>
</event>
<event>
 9    2  0.4178938E-005  0.2277870E+03  0.7546771E-02  0.1171124E+00
          2   -1    0    0  502    0 -0.00000000000E+00  0.00000000000E+00  0.16131534549E+03  0.16131534549E+03  0.00000000000E+00 0. -1.
         21   -1    0    0  501  502  0.00000000000E+00 -0.00000000000E+00 -0.18510640587E+03  0.18510640587E+03  0.00000000000E+00 0. -1.
         24    2    1    2    0    0  0.19584971734E+01  0.85259601130E+01  0.61959856958E+02  0.10302878783E+03  0.81849737569E+02 0.  0.
         23    2    1    2    0    0 -0.51046336877E+01 -0.33533417285E+02  0.49448811584E+02  0.10586392008E+03  0.87243551329E+02 0.  0.
        -13    1    3    3    0    0  0.27465866515E+02 -0.16073906570E+00 -0.75446969161E+01  0.28483716612E+02  0.00000000000E+00 0.  1.
         14    1    3    3    0    0 -0.25507369342E+02  0.86866991787E+01  0.69504553874E+02  0.74545071216E+02  0.00000000000E+00 0. -1.
        -11    1    4    4    0    0  0.18302918796E+02 -0.57052859746E+02  0.37015858592E+02  0.70428683283E+02  0.00000000000E+00 0.  1.
         11    1    4    4    0    0 -0.23407552484E+02  0.23519442461E+02  0.12432952993E+02  0.35435236800E+02  0.00000000000E+00 0. -1.
          1    1    1    2  501    0  0.31461365142E+01  0.25007457172E+02 -0.13519972893E+03  0.13752904344E+03  0.00000000000E+00 0. -1.
<scales pt_clust_5="13000.00000" pt_clust_6="13000.00000" pt_clust_7="13000.00000" pt_clust_8="13000.00000" pt_clust_9="13000.00000"></scales>
<clustering>
<clus scale="   81.850">  5  6 -1 -1</clus>
<clus scale="   82.316">  1  5  2 -1</clus>
<clus scale="   87.244">  7  8 -1 -1</clus>
<clus scale="   25.333">  7  9 -1 -1</clus>
<clus scale="  227.787">  2  5  1 -1</clus>
</clustering>
</event>
<event>
 9    2  0.4178938E-005  0.2213806E+03  0.7546771E-02  0.1142485E+00
          2   -1    0    0  502    0 -0.00000000000E+00  0.00000000000E+00  0.13310682113E+03  0.13310682113E+03  0.00000000000E+00 0. -1.
         21   -1    0    0  501  502  0.00000000000E+00 -0.00000000000E+00 -0.43380747502E+03  0.43380747502E+03  0.00000000000E+00 0. -1.
         24    2    1    2    0    0 -0.15572558997E+03  0.14557177235E+01 -0.29772058482E+03  0.34551366590E+03  0.80557856311E+02 0.  0.
         23    2    1    2    0    0  0.30532953538E+02  0.62100111337E+01  0.88304144016E+01  0.95418698466E+02  0.89754812174E+02 0.  0.
        -11    1    3    3    0    0 -0.51428851293E+02  0.68458545238E+01 -0.34431381870E+02  0.62268069883E+02  0.00000000000E+00 0.  1.
         12    1    3    3    0    0 -0.10429673867E+03 -0.53901368003E+01 -0.26328920295E+03  0.28324559602E+03  0.00000000000E+00 0. -1.
        -13    1    4    4    0    0 -0.22731254786E+02 -0.24585188167E+02  0.31189550347E+01  0.33628400227E+02  0.00000000000E+00 0.  1.
         13    1    4    4    0    0  0.53264208324E+02  0.30795199300E+02  0.57114593670E+01  0.61790298238E+02  0.00000000000E+00 0. -1.
          1    1    1    2  501    0  0.12519263643E+03 -0.76657288571E+01 -0.11810483463E+02  0.12598193178E+03  0.00000000000E+00 0. -1.
<scales pt_clust_5="13000.00000" pt_clust_6="13000.00000" pt_clust_7="13000.00000" pt_clust_8="13000.00000" pt_clust_9="13000.00000"></scales>
<clustering>
<clus scale="   80.558">  5  6 -1 -1</clus>
<clus scale="   89.755">  7  8 -1 -1</clus>
<clus scale="  125.427">  7  9 -1 -1</clus>
<clus scale="  175.334">  1  5  2 -1</clus>
<clus scale="  221.381">  2  5  1 -1</clus>
</clustering>
</event>
<event>
 9    2  0.4178938E-005  0.2126885E+03  0.7546771E-02  0.1180326E+00
          2   -1    0    0  502    0 -0.00000000000E+00  0.00000000000E+00  0.12619950447E+04  0.12619950447E+04  0.00000000000E+00 0. -1.
         21   -1    0    0  501  502  0.00000000000E+00 -0.00000000000E+00 -0.17865049375E+02  0.17865049375E+02  0.00000000000E+00 0.  1.
         24    2    1    2    0    0 -0.17270987933E+02 -0.17700024892E+02  0.24655980071E+03  0.25986857488E+03  0.78283861544E+02 0.  0.
         23    2    1    2    0    0  0.89157681152E+02  0.19645266838E+02  0.46974406518E+03  0.48728906609E+03  0.91957156019E+02 0.  0.
        -11    1    3    3    0    0  0.16154864491E+02 -0.39028356334E+02  0.11794889258E+03  0.12528421092E+03  0.00000000000E+00 0.  1.
         12    1    3    3    0    0 -0.33425852425E+02  0.21328331442E+02  0.12861090814E+03  0.13458436396E+03  0.00000000000E+00 0. -1.
        -13    1    4    4    0    0  0.54108187318E+01  0.36839629791E+02  0.79470055806E+02  0.87760612192E+02  0.00000000000E+00 0.  1.
         13    1    4    4    0    0  0.83746862420E+02 -0.17194362953E+02  0.39027400938E+03  0.39952845390E+03  0.00000000000E+00 0. -1.
          1    1    1    2  501    0 -0.71886693219E+02 -0.19452419458E+01  0.52782612940E+03  0.53270245307E+03  0.00000000000E+00 0. -1.
<scales pt_clust_5="13000.00000" pt_clust_6="13000.00000" pt_clust_7="13000.00000" pt_clust_8="13000.00000" pt_clust_9="13000.00000"></scales>
<clustering>
<clus scale="   78.284">  5  6 -1 -1</clus>
<clus scale="   82.097">  1  5  2 -1</clus>
<clus scale="   91.957">  7  8 -1 -1</clus>
<clus scale="   81.743">  7  9 -1 -1</clus>
<clus scale="  212.689">  2  5  1 -1</clus>
</clustering>
</event>
<event>
 9    2  0.4178938E-005  0.4600211E+03  0.7546771E-02  0.1082590E+00
         -1   -1    0    0    0  501 -0.00000000000E+00  0.00000000000E+00  0.12843037813E+03  0.12843037813E+03  0.00000000000E+00 0.  1.
         21   -1    0    0  501  502  0.00000000000E+00 -0.00000000000E+00 -0.12365781990E+04  0.12365781990E+04  0.00000000000E+00 0.  1.
         24    2    1    2    0    0  0.35671916062E+02  0.20499556778E+02  0.61303945883E+02  0.10833166569E+03  0.79277100013E+02 0.  0.
         23    2    1    2    0    0  0.17387739985E+03  0.88673501074E+02 -0.44316369265E+03  0.49292038026E+03  0.92087473712E+02 0.  0.
        -13    1    3    3    0    0  0.58136923879E+02  0.25497385590E+02  0.56140416355E+02  0.84745294492E+02  0.00000000000E+00 0.  1.
         14    1    3    3    0    0 -0.22465007817E+02 -0.49978288120E+01  0.51635295284E+01  0.23586371197E+02  0.00000000000E+00 0. -1.
        -11    1    4    4    0    0  0.10166469899E+03  0.80515428807E+02 -0.35909515211E+03  0.38179546038E+03  0.00000000000E+00 0.  1.
         11    1    4    4    0    0  0.72212700860E+02  0.81580722668E+01 -0.84068540538E+02  0.11112491987E+03  0.00000000000E+00 0. -1.
         -2    1    1    2    0  502 -0.20954931591E+03 -0.10917305785E+03 -0.72628807406E+03  0.76375653116E+03  0.00000000000E+00 0.  1.
<scales pt_clust_5="13000.00000" pt_clust_6="13000.00000" pt_clust_7="13000.00000" pt_clust_8="13000.00000" pt_clust_9="13000.00000"></scales>
<clustering>
<clus scale="   79.277">  5  6 -1 -1</clus>
<clus scale="   89.317">  1  5  2 -1</clus>
<clus scale="   92.087">  7  8 -1 -1</clus>
<clus scale="  218.626">  7  9 -1 -1</clus>
<clus scale="  460.021">  2  5  1 -1</clus>
</clustering>
</event>
<event>
 9    2  0.4178938E-005  0.2186791E+03  0.7546771E-02  0.1168146E+00
          2   -1    0    0  502    0 -0.00000000000E+00  0.00000000000E+00  0.61951101555E+03  0.61951101555E+03  0.00000000000E+00 0. -1.
         21   -1    0    0  501  502  0.00000000000E+00 -0.00000000000E+00 -0.61140541516E+02  0.61140541516E+02  0.00000000000E+00 0. -1.
         24    2    1    2    0    0  0.35229720612E+02  0.44909827702E+02  0.39586667964E+03  0.40820335001E+03  0.81618141835E+02 0.  0.
         23    2    1    2    0    0  0.64938390007E+02 -0.37426494034E+02  0.87312297251E+02  0.14697545339E+03  0.91436369659E+02 0.  0.
        -11    1    3    3    0    0 -0.79768379021E+01  0.35500208551E+02  0.65818941283E+02  0.75206567410E+02  0.00000000000E+00 0.  1.
         12    1    3    3    0    0  0.43206558514E+02  0.94096191510E+01  0.33004773835E+03  0.33299678260E+03  0.00000000000E+00 0. -1.
        -13    1    4    4    0    0  0.17572580797E+02  0.27010846883E+02  0.48125647890E+02  0.57917695310E+02  0.00000000000E+00 0.  1.
         13    1    4    4    0    0  0.47365809210E+02 -0.64437340917E+02  0.39186649361E+02  0.89057758082E+02  0.00000000000E+00 0. -1.
          1    1    1    2  501    0 -0.10016811062E+03 -0.74833336681E+01  0.75191497146E+02  0.12547275366E+03  0.00000000000E+00 0. -1.
<scales pt_clust_5="13000.00000" pt_clust_6="13000.00000" pt_clust_7="13000.00000" pt_clust_8="13000.00000" pt_clust_9="13000.00000"></scales>
<clustering>
<clus scale="   81.618">  5  6 -1 -1</clus>
<clus scale="   91.436">  7  8 -1 -1</clus>
<clus scale="   99.597">  1  5  2 -1</clus>
<clus scale="   84.952">  7  9 -1 -1</clus>
<clus scale="  218.679">  2  5  1 -1</clus>
</clustering>
</event>
<event>
 9    2  0.4178938E-005  0.2154735E+03  0.7546771E-02  0.1163980E+00
         21   -1    0    0  501  502  0.00000000000E+00  0.00000000000E+00  0.11552548807E+03  0.11552548807E+03  0.00000000000E+00 0.  1.
         -1   -1    0    0    0  501 -0.00000000000E+00 -0.00000000000E+00 -0.23701863485E+03  0.23701863485E+03  0.00000000000E+00 0.  1.
         24    2    1    2    0    0  0.54756951328E+02  0.60800590473E+02 -0.30032991832E+02  0.11846335715E+03  0.80228117685E+02 0.  0.
         23    2    1    2    0    0  0.26425887503E+01 -0.68380044843E+02 -0.12261051296E+03  0.16833504246E+03  0.92846835293E+02 0.  0.
        -11    1    3    3    0    0  0.52922106249E+02  0.75407282027E+02 -0.40260206643E+02  0.10053801148E+03  0.00000000000E+00 0.  1.
         12    1    3    3    0    0  0.18348450787E+01 -0.14606691554E+02  0.10227214811E+02  0.17925345670E+02  0.00000000000E+00 0. -1.
        -11    1    4    4    0    0  0.63571225163E+01  0.22874048640E+02 -0.30124087860E+02  0.38354866409E+02  0.00000000000E+00 0. -1.
         11    1    4    4    0    0 -0.37145337660E+01 -0.91254093483E+02 -0.92486425104E+02  0.12998017605E+03  0.00000000000E+00 0.  1.
         -2    1    1    2    0  502 -0.57399540078E+02  0.75794543696E+01  0.31150358018E+02  0.65745723316E+02  0.00000000000E+00 0.  1.
<scales pt_clust_5="13000.00000" pt_clust_6="13000.00000" pt_clust_7="13000.00000" pt_clust_8="13000.00000" pt_clust_9="13000.00000"></scales>
<clustering>
<clus scale="   80.228">  5  6 -1 -1</clus>
<clus scale="   92.847">  7  8 -1 -1</clus>
<clus scale="   57.898">  7  9 -1 -1</clus>
<clus scale="  114.593">  2  5  1 -1</clus>
<clus scale="  215.474">  1  5  2 -1</clus>
</clustering>
</event>
<event>
 9    2  0.4178938E-005  0.5660738E+03  0.7546771E-02  0.1040476E+00
         21   -1    0    0  501  502  0.00000000000E+00  0.00000000000E+00  0.37749241280E+03  0.37749241280E+03  0.00000000000E+00 0.  1.
         -1   -1    0    0    0  501 -0.00000000000E+00 -0.00000000000E+00 -0.34492255288E+03  0.34492255288E+03  0.00000000000E+00 0.  1.
         24    2    1    2    0    0 -0.74405206880E+02 -0.11378763433E+03  0.15604487507E+02  0.15608704112E+03  0.75072657062E+02 0.  0.
         23    2    1    2    0    0  0.11661576164E+03 -0.46813659662E+02 -0.22485269563E+03  0.27298429569E+03  0.90393231871E+02 0.  0.
        -11    1    3    3    0    0 -0.33925346040E+02 -0.10173254092E+03 -0.82896109275E+01  0.10756001411E+03  0.00000000000E+00 0.  1.
         12    1    3    3    0    0 -0.40479860840E+02 -0.12055093412E+02  0.23894098435E+02  0.48527027014E+02  0.00000000000E+00 0. -1.
        -11    1    4    4    0    0  0.60144507611E+02 -0.58397301124E+02 -0.75217923427E+02  0.11262922613E+03  0.00000000000E+00 0.  1.
         11    1    4    4    0    0  0.56471254027E+02  0.11583641462E+02 -0.14963477221E+03  0.16035506956E+03  0.00000000000E+00 0. -1.
         -2    1    1    2    0  502 -0.42210554758E+02  0.16060129399E+03  0.24181806805E+03  0.29334362887E+03  0.00000000000E+00 0.  1.
<scales pt_clust_5="13000.00000" pt_clust_6="13000.00000" pt_clust_7="13000.00000" pt_clust_8="13000.00000" pt_clust_9="13000.00000"></scales>
<clustering>
<clus scale="   75.073">  5  6 -1 -1</clus>
<clus scale="   90.393">  7  8 -1 -1</clus>
<clus scale="  155.305">  2  5  1 -1</clus>
<clus scale="  157.792">  7  9 -1 -1</clus>
<clus scale="  566.074">  1  5  2 -1</clus>
</clustering>
</event>
<event>
 9    2  0.4178938E-005  0.1791985E+03  0.7546771E-02  0.1181043E+00
          2   -1    0    0  502    0 -0.00000000000E+00  0.00000000000E+00  0.14458532429E+03  0.14458532429E+03  0.00000000000E+00 0. -1.
         21   -1    0    0  501  502  0.00000000000E+00 -0.00000000000E+00 -0.41448965296E+03  0.41448965296E+03  0.00000000000E+00 0. -1.
         24    2    1    2    0    0 -0.19413525108E+00  0.11058656193E+03 -0.34062265586E+03  0.36642719317E+03  0.77560742900E+02 0.  0.
         23    2    1    2    0    0 -0.16165036200E+02 -0.97642482505E+02  0.20741368102E+02  0.13849182298E+03  0.94627786066E+02 0.  0.
        -11    1    3    3    0    0  0.19382773944E+02  0.24611190596E+02 -0.18436264127E+03  0.18700531042E+03  0.00000000000E+00 0.  1.
         12    1    3    3    0    0 -0.19576909195E+02  0.85975371334E+02 -0.15626001459E+03  0.17942188275E+03  0.00000000000E+00 0. -1.
        -13    1    4    4    0    0  0.33416860895E+02 -0.18249039652E+02  0.23686663430E+02  0.44841633164E+02  0.00000000000E+00 0.  1.
         13    1    4    4    0    0 -0.49581897095E+02 -0.79393442853E+02 -0.29452953284E+01  0.93650189814E+02  0.00000000000E+00 0. -1.
          1    1    1    2  501    0  0.16359171451E+02 -0.12944079424E+02  0.49976959088E+02  0.54155961098E+02  0.00000000000E+00 0. -1.
<scales pt_clust_5="13000.00000" pt_clust_6="13000.00000" pt_clust_7="13000.00000" pt_clust_8="13000.00000" pt_clust_9="13000.00000"></scales>
<clustering>
<clus scale="   77.561">  5  6 -1 -1</clus>
<clus scale="   94.628">  7  8 -1 -1</clus>
<clus scale="   20.861">  7  9 -1 -1</clus>
<clus scale="  135.074">  1  5  2 -1</clus>
<clus scale="  179.198">  2  5  1 -1</clus>
</clustering>
</event>
<event>
 9    2  0.4178938E-005  0.1843217E+03  0.7546771E-02  0.1201292E+00
         21   -1    0    0  501  502  0.00000000000E+00  0.00000000000E+00  0.11172201242E+03  0.11172201242E+03  0.00000000000E+00 0.  1.
         -1   -1    0    0    0  501 -0.00000000000E+00 -0.00000000000E+00 -0.15810425622E+03  0.15810425622E+03  0.00000000000E+00 0.  1.
         24    2    1    2    0    0  0.66423044769E+01  0.35757219744E+01  0.13298312417E+01  0.79429503151E+02  0.79059291189E+02 0.  0.
         23    2    1    2    0    0 -0.25674766691E+01  0.54923859375E+02  0.10029664135E+02  0.10809905177E+03  0.92528852618E+02 0.  0.
        -13    1    3    3    0    0  0.21748823367E+02 -0.26311691109E+02 -0.20154168126E+02  0.39642236311E+02  0.00000000000E+00 0.  1.
         14    1    3    3    0    0 -0.15106518890E+02  0.29887413083E+02  0.21483999367E+02  0.39787266840E+02  0.00000000000E+00 0. -1.
        -11    1    4    4    0    0  0.21099294720E+02  0.47849759022E+02 -0.30570497354E+02  0.60575035986E+02  0.00000000000E+00 0. -1.
         11    1    4    4    0    0 -0.23666771389E+02  0.70741003530E+01  0.40600161489E+02  0.47524015789E+02  0.00000000000E+00 0.  1.
         -2    1    1    2    0  502 -0.40748278079E+01 -0.58499581350E+02 -0.57741739179E+02  0.82297713718E+02  0.00000000000E+00 0.  1.
<scales pt_clust_5="13000.00000" pt_clust_6="13000.00000" pt_clust_7="13000.00000" pt_clust_8="13000.00000" pt_clust_9="13000.00000"></scales>
<clustering>
<clus scale="   79.059">  5  6 -1 -1</clus>
<clus scale="   79.418">  2  5  1 -1</clus>
<clus scale="   92.529">  7  8 -1 -1</clus>
<clus scale="   56.397">  7  9 -1 -1</clus>
<clus scale="  184.322">  1  5  2 -1</clus>
</clustering>
</event>
<event>
 9    2  0.4178938E-005  0.2007678E+03  0.7546771E-02  0.1188918E+00
          2   -1    0    0  502    0 -0.00000000000E+00  0.00000000000E+00  0.56276208719E+03  0.56276208719E+03  0.00000000000E+00 0. -1.
         21   -1    0    0  501  502  0.00000000000E+00 -0.00000000000E+00 -0.41482874402E+02  0.41482874402E+02  0.00000000000E+00 0. -1.
         24    2    1    2    0    0  0.34546242538E+01 -0.85224883781E+01  0.57867459488E+02  0.99212129297E+02  0.80061454491E+02 0.  0.
         23    2    1    2    0    0  0.41969496989E+01 -0.49085047718E+02  0.88942769758E+02  0.12608139156E+03  0.74556989675E+02 0.  0.
        -11    1    3    3    0    0  0.19354027170E+02 -0.38701208362E+02  0.45855110095E+02  0.63048021525E+02  0.00000000000E+00 0.  1.
         12    1    3    3    0    0 -0.15899402917E+02  0.30178719984E+02  0.12012349393E+02  0.36164107772E+02  0.00000000000E+00 0. -1.
        -13    1    4    4    0    0  0.28119183925E+02  0.13501919181E+01  0.52035522316E+02  0.59162548166E+02  0.00000000000E+00 0.  1.
         13    1    4    4    0    0 -0.23922234226E+02 -0.50435239636E+02  0.36907247442E+02  0.66918843394E+02  0.00000000000E+00 0. -1.
          1    1    1    2  501    0 -0.76515739527E+01  0.57607536096E+02  0.37446898354E+03  0.37895144073E+03  0.00000000000E+00 0. -1.
<scales pt_clust_5="13000.00000" pt_clust_6="13000.00000" pt_clust_7="13000.00000" pt_clust_8="13000.00000" pt_clust_9="13000.00000"></scales>
<clustering>
<clus scale="   74.557">  7  8 -1 -1</clus>
<clus scale="   58.113">  7  9 -1 -1</clus>
<clus scale="   80.061">  5  6 -1 -1</clus>
<clus scale="   80.588">  1  5  2 -1</clus>
<clus scale="  200.768">  2  5  1 -1</clus>
</clustering>
</event>
<event>
 9    2  0.4178938E-005  0.3740526E+03  0.7546771E-02  0.1099914E+00
          4   -1    0    0  502    0 -0.00000000000E+00  0.00000000000E+00  0.31634667568E+03  0.31634667568E+03  0.00000000000E+00 0. -1.
         21   -1    0    0  501  502  0.00000000000E+00 -0.00000000000E+00 -0.31857925625E+03  0.31857925625E+03  0.00000000000E+00 0. -1.
         24    2    1    2    0    0  0.40745993930E+02 -0.52000231152E+02 -0.18940180207E+03  0.21665847193E+03  0.81875458911E+02 0.  0.
         23    2    1    2    0    0  0.29633157535E+02  0.84124631193E+01 -0.87766995116E+02  0.13113849647E+03  0.92441150277E+02 0.  0.
        -13    1    3    3    0    0 -0.13605888009E+01 -0.59775290819E+02 -0.86004574327E+02  0.10474599467E+03  0.00000000000E+00 0.  1.
         14    1    3    3    0    0  0.42106582731E+02  0.77750596669E+01 -0.10339722774E+03  0.11191247726E+03  0.00000000000E+00 0. -1.
        -13    1    4    4    0    0  0.30181824607E-01  0.47600466419E+02 -0.51193379498E+02  0.69903987144E+02  0.00000000000E+00 0. -1.
         13    1    4    4    0    0  0.29602975710E+02 -0.39188003300E+02 -0.36573615619E+02  0.61234509330E+02  0.00000000000E+00 0.  1.
          3    1    1    2  501    0 -0.70379151464E+02  0.43587768033E+02  0.27493621662E+03  0.28712896352E+03  0.00000000000E+00 0. -1.
<scales pt_clust_5="13000.00000" pt_clust_6="13000.00000" pt_clust_7="13000.00000" pt_clust_8="13000.00000" pt_clust_9="13000.00000"></scales>
<clustering>
<clus scale="   81.875">  5  6 -1 -1</clus>
<clus scale="   92.441">  7  8 -1 -1</clus>
<clus scale="   82.784">  7  9 -1 -1</clus>
<clus scale="  105.204">  1  5  2 -1</clus>
<clus scale="  374.053">  2  5  1 -1</clus>
</clustering>
</event>
<event>
 9    2  0.4178938E-005  0.3492321E+03  0.7546771E-02  0.1105337E+00
         21   -1    0    0  501  502  0.00000000000E+00  0.00000000000E+00  0.58600760123E+03  0.58600760123E+03  0.00000000000E+00 0. -1.
          4   -1    0    0  502    0 -0.00000000000E+00 -0.00000000000E+00 -0.91202027780E+02  0.91202027780E+02  0.00000000000E+00 0. -1.
         24    2    1    2    0    0  0.45564149142E+02  0.62421895159E+02  0.13748513440E+03  0.17756882834E+03  0.81583956352E+02 0.  0.
         23    2    1    2    0    0 -0.43564388362E+02 -0.19187393123E+03  0.25357030123E+03  0.33373142847E+03  0.91462053687E+02 0.  0.
        -13    1    3    3    0    0  0.29059526523E+02  0.76048787237E+02  0.13262790639E+03  0.15562144992E+03  0.00000000000E+00 0.  1.
         14    1    3    3    0    0  0.16504622619E+02 -0.13626892078E+02  0.48572280117E+01  0.21947378419E+02  0.00000000000E+00 0. -1.
        -11    1    4    4    0    0 -0.63156834523E+02 -0.10134104510E+03  0.17720304583E+03  0.21368133428E+03  0.00000000000E+00 0.  1.
         11    1    4    4    0    0  0.19592446161E+02 -0.90532886135E+02  0.76367255408E+02  0.12005009420E+03  0.00000000000E+00 0. -1.
          3    1    1    2  501    0 -0.19997607800E+01  0.12945203607E+03  0.10375013782E+03  0.16590937220E+03  0.00000000000E+00 0. -1.
<scales pt_clust_5="13000.00000" pt_clust_6="13000.00000" pt_clust_7="13000.00000" pt_clust_8="13000.00000" pt_clust_9="13000.00000"></scales>
<clustering>
<clus scale="   81.584">  5  6 -1 -1</clus>
<clus scale="   91.462">  7  8 -1 -1</clus>
<clus scale="  112.377">  2  5  1 -1</clus>
<clus scale="  157.734">  7  9 -1 -1</clus>
<clus scale="  349.232">  1  5  2 -1</clus>
</clustering>
</event>
<event>
 9    2  0.4178938E-005  0.2230799E+03  0.7546771E-02  0.1163380E+00
          2   -1    0    0  502    0 -0.00000000000E+00  0.00000000000E+00  0.14843286465E+03  0.14843286465E+03  0.00000000000E+00 0. -1.
         21   -1    0    0  501  502  0.00000000000E+00 -0.00000000000E+00 -0.21412260131E+03  0.21412260131E+03  0.00000000000E+00 0.  1.
         24    2    1    2    0    0  0.13628702025E+01 -0.56611956330E+02  0.44466421573E+02  0.11376033009E+03  0.88075984470E+02 0.  0.
         23    2    1    2    0    0 -0.16316110736E+02  0.11900308037E+03 -0.45404431373E+02  0.15764121169E+03  0.91439819710E+02 0.  0.
        -11    1    3    3    0    0  0.23131133245E+02  0.15428163986E+02  0.21277620644E+02  0.35011636772E+02  0.00000000000E+00 0.  1.
         12    1    3    3    0    0 -0.21768263042E+02 -0.72040120317E+02  0.23188800929E+02  0.78748693320E+02  0.00000000000E+00 0. -1.
        -11    1    4    4    0    0  0.81652314507E+01  0.94239941461E+02 -0.67673258268E+02  0.11630781339E+03  0.00000000000E+00 0.  1.
         11    1    4    4    0    0 -0.24481342187E+02  0.24763138906E+02  0.22268826895E+02  0.41333398300E+02  0.00000000000E+00 0. -1.
          1    1    1    2  501    0  0.14953240533E+02 -0.62391124037E+02 -0.64751726866E+02  0.91153924179E+02  0.00000000000E+00 0. -1.
<scales pt_clust_5="13000.00000" pt_clust_6="13000.00000" pt_clust_7="13000.00000" pt_clust_8="13000.00000" pt_clust_9="13000.00000"></scales>
<clustering>
<clus scale="   88.076">  5  6 -1 -1</clus>
<clus scale="   91.440">  7  8 -1 -1</clus>
<clus scale="   64.158">  7  9 -1 -1</clus>
<clus scale="  104.710">  1  5  2 -1</clus>
<clus scale="  223.080">  2  5  1 -1</clus>
</clustering>
</event>
<event>
 9    2  0.4178938E-005  0.1405775E+03  0.7546771E-02  0.1234515E+00
         21   -1    0    0  501  502  0.00000000000E+00  0.00000000000E+00  0.25992273542E+02  0.25992273542E+02  0.00000000000E+00 0.  1.
          2   -1    0    0  502    0 -0.00000000000E+00 -0.00000000000E+00 -0.96346186862E+03  0.96346186862E+03  0.00000000000E+00 0. -1.
         24    2    1    2    0    0  0.66794446806E+01 -0.10871239626E+02 -0.74939475067E+03  0.75464746322E+03  0.87963075071E+02 0.  0.
         23    2    1    2    0    0 -0.39167006819E+02  0.16237401034E+02 -0.16937578904E+03  0.19693991180E+03  0.91101390405E+02 0.  0.
        -11    1    3    3    0    0  0.14111719920E+02  0.20763392822E+02 -0.68131725964E+02  0.72609856103E+02  0.00000000000E+00 0.  1.
         12    1    3    3    0    0 -0.74322752391E+01 -0.31634632448E+02 -0.68126302471E+03  0.68203760711E+03  0.00000000000E+00 0. -1.
        -11    1    4    4    0    0  0.24814260247E+02  0.13268150898E+02 -0.93511410516E+02  0.97653342168E+02  0.00000000000E+00 0. -1.
         11    1    4    4    0    0 -0.63981267066E+02  0.29692501353E+01 -0.75864378523E+02  0.99286569637E+02  0.00000000000E+00 0.  1.
          1    1    1    2  501    0  0.32487562138E+02 -0.53661614071E+01 -0.18699055369E+02  0.37866767140E+02  0.00000000000E+00 0. -1.
<scales pt_clust_5="13000.00000" pt_clust_6="13000.00000" pt_clust_7="13000.00000" pt_clust_8="13000.00000" pt_clust_9="13000.00000"></scales>
<clustering>
<clus scale="   87.963">  5  6 -1 -1</clus>
<clus scale="   88.884">  2  5  1 -1</clus>
<clus scale="   91.101">  7  8 -1 -1</clus>
<clus scale="   34.071">  7  9 -1 -1</clus>
<clus scale="  140.577">  1  5  2 -1</clus>
</clustering>
</event>
<event>
 9    2  0.4178938E-005  0.1638338E+03  0.7546771E-02  0.1216062E+00
          2   -1    0    0  502    0 -0.00000000000E+00  0.00000000000E+00  0.15520844365E+03  0.15520844365E+03  0.00000000000E+00 0. -1.
         21   -1    0    0  501  502  0.00000000000E+00 -0.00000000000E+00 -0.25991413071E+03  0.25991413071E+03  0.00000000000E+00 0. -1.
         24    2    1    2    0    0 -0.22397275502E-01  0.15073947037E+02  0.11472584309E+03  0.14127645848E+03  0.81054267426E+02 0.  0.
         23    2    1    2    0    0  0.31642762030E+02  0.29940813687E+02 -0.10205271653E+03  0.14421601893E+03  0.92118328535E+02 0.  0.
        -13    1    3    3    0    0 -0.16110181044E+02 -0.29628288641E+02  0.36024688129E+02  0.49347254998E+02  0.00000000000E+00 0.  1.
         14    1    3    3    0    0  0.16087783769E+02  0.44702235679E+02  0.78701154957E+02  0.91929203482E+02  0.00000000000E+00 0. -1.
        -13    1    4    4    0    0  0.11676405730E+02 -0.28398141315E+02 -0.79612161018E+01  0.31720243422E+02  0.00000000000E+00 0.  1.
         13    1    4    4    0    0  0.19966356300E+02  0.58338955002E+02 -0.94091500428E+02  0.11249577551E+03  0.00000000000E+00 0. -1.
          1    1    1    2  501    0 -0.31620364755E+02 -0.45014760725E+02 -0.11737881362E+03  0.12963009695E+03  0.00000000000E+00 0. -1.
<scales pt_clust_5="13000.00000" pt_clust_6="13000.00000" pt_clust_7="13000.00000" pt_clust_8="13000.00000" pt_clust_9="13000.00000"></scales>
<clustering>
<clus scale="   81.054">  5  6 -1 -1</clus>
<clus scale="   82.444">  1  5  2 -1</clus>
<clus scale="   92.118">  7  8 -1 -1</clus>
<clus scale="   52.273">  7  9 -1 -1</clus>
<clus scale="  163.834">  2  5  1 -1</clus>
</clustering>
</event>
<event>
 9    2  0.4178938E-005  0.6799184E+03  0.7546771E-02  0.9853186E-01
          4   -1    0    0  502    0 -0.00000000000E+00  0.00000000000E+00  0.44821540410E+03  0.44821540410E+03  0.00000000000E+00 0. -1.
         21   -1    0    0  501  502  0.00000000000E+00 -0.00000000000E+00 -0.93462894210E+03  0.93462894210E+03  0.00000000000E+00 0. -1.
         24    2    1    2    0    0 -0.47263751985E+03 -0.90482262459E+02  0.84088771833E+02  0.49528480198E+03  0.81626273556E+02 0.  0.
         23    2    1    2    0    0  0.11037712868E+03 -0.16412750104E+03 -0.29413280012E+03  0.36560281365E+03  0.89612310027E+02 0.  0.
        -13    1    3    3    0    0 -0.94424553184E+02 -0.11242288973E+02 -0.15223678183E+02  0.96302365925E+02  0.00000000000E+00 0.  1.
         14    1    3    3    0    0 -0.37821296667E+03 -0.79239973487E+02  0.99312450016E+02  0.39898243606E+03  0.00000000000E+00 0. -1.
        -11    1    4    4    0    0  0.46792337195E+02 -0.27481211365E+02 -0.13944466821E+03  0.14963139807E+03  0.00000000000E+00 0.  1.
         11    1    4    4    0    0  0.63584791489E+02 -0.13664628968E+03 -0.15468813191E+03  0.21597141558E+03  0.00000000000E+00 0. -1.
          3    1    1    2  501    0  0.36226039117E+03  0.25460976350E+03 -0.27636950972E+03  0.52195673057E+03  0.00000000000E+00 0. -1.
<scales pt_clust_5="13000.00000" pt_clust_6="13000.00000" pt_clust_7="13000.00000" pt_clust_8="13000.00000" pt_clust_9="13000.00000"></scales>
<clustering>
<clus scale="   81.626">  5  6 -1 -1</clus>
<clus scale="   89.612">  7  8 -1 -1</clus>
<clus scale="  442.785">  7  9 -1 -1</clus>
<clus scale="  488.094">  1  5  2 -1</clus>
<clus scale="  679.918">  2  5  1 -1</clus>
</clustering>
</event>
<event>
 9    2  0.4178938E-005  0.6697624E+03  0.7546771E-02  0.1022215E+00
         21   -1    0    0  501  502  0.00000000000E+00  0.00000000000E+00  0.56863124455E+03  0.56863124455E+03  0.00000000000E+00 0. -1.
          2   -1    0    0  502    0 -0.00000000000E+00 -0.00000000000E+00 -0.30956230971E+03  0.30956230971E+03  0.00000000000E+00 0. -1.
         24    2    1    2    0    0  0.78200916933E+02 -0.11473094726E+03  0.10096989137E+03  0.19002422110E+03  0.81459879525E+02 0.  0.
         23    2    1    2    0    0 -0.11600176703E+03 -0.20049527209E+03  0.25490370819E+03  0.35625425857E+03  0.91029842438E+02 0.  0.
        -11    1    3    3    0    0  0.72329809026E+02 -0.34875599161E+02  0.58815515270E+02  0.99534785513E+02  0.00000000000E+00 0.  1.
         12    1    3    3    0    0  0.58711079063E+01 -0.79855348101E+02  0.42154376102E+02  0.90489435587E+02  0.00000000000E+00 0. -1.
        -11    1    4    4    0    0 -0.72696273723E+02 -0.19093873617E+03  0.20351950958E+03  0.28837916007E+03  0.00000000000E+00 0. -1.
         11    1    4    4    0    0 -0.43305493303E+02 -0.95565359194E+01  0.51384198617E+02  0.67875098501E+02  0.00000000000E+00 0.  1.
          1    1    1    2  501    0  0.37800850094E+02  0.31522621935E+03 -0.96804664727E+02  0.33191507460E+03  0.00000000000E+00 0. -1.
<scales pt_clust_5="13000.00000" pt_clust_6="13000.00000" pt_clust_7="13000.00000" pt_clust_8="13000.00000" pt_clust_9="13000.00000"></scales>
<clustering>
<clus scale="   81.460">  5  6 -1 -1</clus>
<clus scale="   91.030">  7  8 -1 -1</clus>
<clus scale="  160.979">  2  5  1 -1</clus>
<clus scale="  244.309">  7  9 -1 -1</clus>
<clus scale="  669.762">  1  5  2 -1</clus>
</clustering>
</event>
<event>
 9    2  0.4178938E-005  0.2385288E+03  0.7546771E-02  0.1146864E+00
         -1   -1    0    0    0  501 -0.00000000000E+00  0.00000000000E+00  0.61238872346E+02  0.61238872346E+02  0.00000000000E+00 0.  1.
         21   -1    0    0  501  502  0.00000000000E+00 -0.00000000000E+00 -0.58684598812E+03  0.58684598812E+03  0.00000000000E+00 0.  1.
         24    2    1    2    0    0  0.93975720438E+02 -0.25120374308E+02 -0.27235923281E+03  0.30019051416E+03  0.80450754225E+02 0.  0.
         23    2    1    2    0    0  0.21918150482E+02  0.64345500288E+02 -0.14614287723E+03  0.18528597605E+03  0.91391485537E+02 0.  0.
        -11    1    3    3    0    0  0.92489902681E+02  0.14764387007E+01 -0.16092252045E+03  0.18561416852E+03  0.00000000000E+00 0.  1.
         12    1    3    3    0    0  0.14858177568E+01 -0.26596813009E+02 -0.11143671236E+03  0.11457634563E+03  0.00000000000E+00 0. -1.
        -11    1    4    4    0    0 -0.19017651478E+02  0.68748437507E+02 -0.10613344686E+03  0.12787621855E+03  0.00000000000E+00 0.  1.
         11    1    4    4    0    0  0.40935801960E+02 -0.44029372192E+01 -0.40009430370E+02  0.57409757505E+02  0.00000000000E+00 0. -1.
         -2    1    1    2    0  502 -0.11589387092E+03 -0.39225125980E+02 -0.10710500574E+03  0.16260837026E+03  0.00000000000E+00 0.  1.
<scales pt_clust_5="13000.00000" pt_clust_6="13000.00000" pt_clust_7="13000.00000" pt_clust_8="13000.00000" pt_clust_9="13000.00000"></scales>
<clustering>
<clus scale="   80.451">  5  6 -1 -1</clus>
<clus scale="   91.391">  7  8 -1 -1</clus>
<clus scale="  122.352">  7  9 -1 -1</clus>
<clus scale="  126.233">  1  5  2 -1</clus>
<clus scale="  238.529">  2  5  1 -1</clus>
</clustering>
</event>
<event>
 9    2  0.4178938E-005  0.1392804E+03  0.7546771E-02  0.1236442E+00
         21   -1    0    0  501  502  0.00000000000E+00  0.00000000000E+00  0.13412857672E+02  0.13412857672E+02  0.00000000000E+00 0. -1.
          2   -1    0    0  502    0 -0.00000000000E+00 -0.00000000000E+00 -0.96161330062E+03  0.96161330062E+03  0.00000000000E+00 0. -1.
         24    2    1    2    0    0  0.20553849039E+02  0.25609311789E+02 -0.36827677490E+03  0.37861145828E+03  0.81489605771E+02 0.  0.
         23    2    1    2    0    0 -0.82445141085E+01 -0.56254151564E+02 -0.34505600745E+03  0.35923661517E+03  0.82187564914E+02 0.  0.
        -13    1    3    3    0    0 -0.24341292811E+02 -0.12398723309E+02 -0.84634133084E+02  0.88933477152E+02  0.00000000000E+00 0.  1.
         14    1    3    3    0    0  0.44895141849E+02  0.38008035098E+02 -0.28364264181E+03  0.28967798113E+03  0.00000000000E+00 0. -1.
        -13    1    4    4    0    0  0.25883651161E+02 -0.13259589024E+02 -0.41011058008E+02  0.50276107421E+02  0.00000000000E+00 0. -1.
         13    1    4    4    0    0 -0.34128165269E+02 -0.42994562541E+02 -0.30404494944E+03  0.30896050775E+03  0.00000000000E+00 0.  1.
          1    1    1    2  501    0 -0.12309334930E+02  0.30644839776E+02 -0.23486766060E+03  0.23717808484E+03  0.00000000000E+00 0. -1.
<scales pt_clust_5="13000.00000" pt_clust_6="13000.00000" pt_clust_7="13000.00000" pt_clust_8="13000.00000" pt_clust_9="13000.00000"></scales>
<clustering>
<clus scale="   81.490">  5  6 -1 -1</clus>
<clus scale="   82.188">  7  8 -1 -1</clus>
<clus scale="   33.025">  7  9 -1 -1</clus>
<clus scale="   87.857">  2  5  1 -1</clus>
<clus scale="  139.280">  1  5  2 -1</clus>
</clustering>
</event>
<event>
 9    2  0.4178938E-005  0.4942680E+03  0.7546771E-02  0.1049084E+00
          4   -1    0    0  502    0 -0.00000000000E+00  0.00000000000E+00  0.13638748739E+03  0.13638748739E+03  0.00000000000E+00 0. -1.
         21   -1    0    0  501  502  0.00000000000E+00 -0.00000000000E+00 -0.85302856855E+03  0.85302856855E+03  0.00000000000E+00 0. -1.
         24    2    1    2    0    0 -0.16221360882E+03 -0.20744586503E+02 -0.25330828708E+03  0.31193679912E+03  0.79974280773E+02 0.  0.
         23    2    1    2    0    0  0.30972828051E+03  0.74624049019E+02 -0.36171562459E+03  0.49042412062E+03  0.90428250970E+02 0.  0.
        -11    1    3    3    0    0 -0.13701930158E+03  0.13843552114E+02 -0.17489806483E+03  0.22261012111E+03  0.00000000000E+00 0.  1.
         12    1    3    3    0    0 -0.25194307244E+02 -0.34588138617E+02 -0.78410222253E+02  0.89326678010E+02  0.00000000000E+00 0. -1.
        -13    1    4    4    0    0  0.20806696238E+03  0.89612956941E+02 -0.22393050211E+03  0.31853918544E+03  0.00000000000E+00 0. -1.
         13    1    4    4    0    0  0.10166131813E+03 -0.14988907922E+02 -0.13778512248E+03  0.17188493518E+03  0.00000000000E+00 0.  1.
          3    1    1    2  501    0 -0.14751467169E+03 -0.53879462515E+02 -0.10161716949E+03  0.18705513621E+03  0.00000000000E+00 0. -1.
<scales pt_clust_5="13000.00000" pt_clust_6="13000.00000" pt_clust_7="13000.00000" pt_clust_8="13000.00000" pt_clust_9="13000.00000"></scales>
<clustering>
<clus scale="   79.974">  5  6 -1 -1</clus>
<clus scale="   90.428">  7  8 -1 -1</clus>
<clus scale="  157.046">  7  9 -1 -1</clus>
<clus scale="  182.043">  1  5  2 -1</clus>
<clus scale="  494.268">  2  5  1 -1</clus>
</clustering>
</event>
<event>
 9    2  0.4178938E-005  0.2778882E+03  0.7546771E-02  0.1133845E+00
         21   -1    0    0  501  502  0.00000000000E+00  0.00000000000E+00  0.15885964638E+03  0.15885964638E+03  0.00000000000E+00 0. -1.
          2   -1    0    0  502    0 -0.00000000000E+00 -0.00000000000E+00 -0.24477785887E+03  0.24477785887E+03  0.00000000000E+00 0. -1.
         24    2    1    2    0    0 -0.72924940962E+02  0.84050297588E+01 -0.59712290730E+02  0.12451634491E+03  0.80932508579E+02 0.  0.
         23    2    1    2    0    0  0.64592114718E+02  0.11208942316E+03 -0.66133895552E+01  0.15676015146E+03  0.88282660214E+02 0.  0.
        -13    1    3    3    0    0 -0.61306126982E+01 -0.30189488688E+02 -0.86224037220E+01  0.31989615271E+02  0.00000000000E+00 0.  1.
         14    1    3    3    0    0 -0.66794328263E+02  0.38594518446E+02 -0.51089887008E+02  0.92526729634E+02  0.00000000000E+00 0. -1.
        -11    1    4    4    0    0  0.35094421432E+02  0.12076346933E+03 -0.76940541158E+01  0.12599457293E+03  0.00000000000E+00 0. -1.
         11    1    4    4    0    0  0.29497693287E+02 -0.86740461639E+01  0.10806645605E+01  0.30765578525E+02  0.00000000000E+00 0.  1.
          1    1    1    2  501    0  0.83328262431E+01 -0.12049445292E+03 -0.19592532202E+02  0.12236100889E+03  0.00000000000E+00 0. -1.
<scales pt_clust_5="13000.00000" pt_clust_6="13000.00000" pt_clust_7="13000.00000" pt_clust_8="13000.00000" pt_clust_9="13000.00000"></scales>
<clustering>
<clus scale="   80.933">  5  6 -1 -1</clus>
<clus scale="   88.283">  7  8 -1 -1</clus>
<clus scale="  109.265">  2  5  1 -1</clus>
<clus scale="  119.358">  7  9 -1 -1</clus>
<clus scale="  277.888">  1  5  2 -1</clus>
</clustering>
</event>
<event>
 9    2  0.4178938E-005  0.1685395E+03  0.7546771E-02  0.1212880E+00
         21   -1    0    0  501  502  0.00000000000E+00  0.00000000000E+00  0.12463082416E+02  0.12463082416E+02  0.00000000000E+00 0. -1.
          2   -1    0    0  502    0 -0.00000000000E+00 -0.00000000000E+00 -0.12956479657E+04  0.12956479657E+04  0.00000000000E+00 0. -1.
         24    2    1    2    0    0 -0.60112527288E-01  0.73531838335E+01 -0.54088598094E+03  0.54691906956E+03  0.80676832767E+02 0.  0.
         23    2    1    2    0    0  0.54783481598E+02 -0.13227334808E+02 -0.58479109242E+03  0.59434515372E+03  0.89940801261E+02 0.  0.
        -11    1    3    3    0    0 -0.32215657895E+02  0.28989069997E+01 -0.10605291738E+03  0.11087593769E+03  0.00000000000E+00 0.  1.
         12    1    3    3    0    0  0.32155545368E+02  0.44542768339E+01 -0.43483306356E+03  0.43604313186E+03  0.00000000000E+00 0. -1.
        -11    1    4    4    0    0 -0.39426549525E+01  0.31790059127E+02 -0.16448273411E+03  0.16757303544E+03  0.00000000000E+00 0.  1.
         11    1    4    4    0    0  0.58726136550E+02 -0.45017393936E+02 -0.42030835831E+03  0.42677211827E+03  0.00000000000E+00 0. -1.
          1    1    1    2  501    0 -0.54723369071E+02  0.58741509747E+01 -0.15750780996E+03  0.16684682487E+03  0.00000000000E+00 0. -1.
<scales pt_clust_5="13000.00000" pt_clust_6="13000.00000" pt_clust_7="13000.00000" pt_clust_8="13000.00000" pt_clust_9="13000.00000"></scales>
<clustering>
<clus scale="   80.677">  5  6 -1 -1</clus>
<clus scale="   81.011">  2  5  1 -1</clus>
<clus scale="   89.941">  7  8 -1 -1</clus>
<clus scale="   55.242">  7  9 -1 -1</clus>
<clus scale="  168.540">  1  5  2 -1</clus>
</clustering>
</event>
<event>
 9    2  0.4178938E-005  0.5583614E+03  0.7546771E-02  0.1039997E+00
          2   -1    0    0  502    0 -0.00000000000E+00  0.00000000000E+00  0.21540710209E+03  0.21540710209E+03  0.00000000000E+00 0. -1.
         21   -1    0    0  501  502  0.00000000000E+00 -0.00000000000E+00 -0.79676891075E+03  0.79676891075E+03  0.00000000000E+00 0. -1.
         24    2    1    2    0    0  0.64615127531E+02 -0.12236799396E+03  0.47856091204E+02  0.17093725116E+03  0.88205995933E+02 0.  0.
         23    2    1    2    0    0  0.20629289243E+03 -0.26596789014E+02 -0.38611241639E+03  0.44794251465E+03  0.91134799531E+02 0.  0.
        -13    1    3    3    0    0  0.30906165951E+02 -0.80285370043E+02 -0.15849836100E+02  0.87476562811E+02  0.00000000000E+00 0.  1.
         14    1    3    3    0    0  0.33708961580E+02 -0.42082623912E+02  0.63705927304E+02  0.83460688350E+02  0.00000000000E+00 0. -1.
        -13    1    4    4    0    0  0.16883171769E+03 -0.15908046458E+02 -0.36756190956E+03  0.40479497551E+03  0.00000000000E+00 0. -1.
         13    1    4    4    0    0  0.37461174732E+02 -0.10688742556E+02 -0.18550506835E+02  0.43147539137E+02  0.00000000000E+00 0.  1.
          1    1    1    2  501    0 -0.27090801996E+03  0.14896478297E+03 -0.24310548347E+03  0.39329624704E+03  0.00000000000E+00 0. -1.
<scales pt_clust_5="13000.00000" pt_clust_6="13000.00000" pt_clust_7="13000.00000" pt_clust_8="13000.00000" pt_clust_9="13000.00000"></scales>
<clustering>
<clus scale="   88.206">  5  6 -1 -1</clus>
<clus scale="   91.135">  7  8 -1 -1</clus>
<clus scale="  164.102">  1  5  2 -1</clus>
<clus scale="  233.592">  7  9 -1 -1</clus>
<clus scale="  558.361">  2  5  1 -1</clus>
</clustering>
</event>
<event>
 9    2  0.4178938E-005  0.1891413E+03  0.7546771E-02  0.1179042E+00
         21   -1    0    0  501  502  0.00000000000E+00  0.00000000000E+00  0.57274268094E+02  0.57274268094E+02  0.00000000000E+00 0. -1.
          2   -1    0    0  502    0 -0.00000000000E+00 -0.00000000000E+00 -0.85202934766E+03  0.85202934766E+03  0.00000000000E+00 0. -1.
         24    2    1    2    0    0  0.77662050664E+02  0.43776228454E+02 -0.67461448436E+03  0.68523176760E+03  0.80561284244E+02 0.  0.
         23    2    1    2    0    0 -0.24522952681E+02 -0.85492823588E+01 -0.57744335497E+01  0.93135526241E+02  0.89254785465E+02 0.  0.
        -11    1    3    3    0    0  0.27891251496E+02  0.49318472267E+02 -0.19660891847E+03  0.20461011812E+03  0.00000000000E+00 0.  1.
         12    1    3    3    0    0  0.49770799168E+02 -0.55422438132E+01 -0.47800556589E+03  0.48062164947E+03  0.00000000000E+00 0. -1.
        -13    1    4    4    0    0  0.15092643103E+02 -0.29158699397E+02  0.22932116374E+02  0.40048715182E+02  0.00000000000E+00 0. -1.
         13    1    4    4    0    0 -0.39615595784E+02  0.20609417038E+02 -0.28706549924E+02  0.53086811059E+02  0.00000000000E+00 0.  1.
          1    1    1    2  501    0 -0.53139097983E+02 -0.35226946095E+02 -0.11436616165E+03  0.13093632191E+03  0.00000000000E+00 0. -1.
<scales pt_clust_5="13000.00000" pt_clust_6="13000.00000" pt_clust_7="13000.00000" pt_clust_8="13000.00000" pt_clust_9="13000.00000"></scales>
<clustering>
<clus scale="   80.561">  5  6 -1 -1</clus>
<clus scale="   89.255">  7  8 -1 -1</clus>
<clus scale="   63.755">  7  9 -1 -1</clus>
<clus scale="  120.158">  2  5  1 -1</clus>
<clus scale="  189.141">  1  5  2 -1</clus>
</clustering>
</event>
<event>
 9    2  0.4178938E-005  0.6313280E+03  0.7546771E-02  0.1010159E+00
         21   -1    0    0  501  502  0.00000000000E+00  0.00000000000E+00  0.24418220162E+03  0.24418220162E+03  0.00000000000E+00 0. -1.
          2   -1    0    0  502    0 -0.00000000000E+00 -0.00000000000E+00 -0.10505636964E+04  0.10505636964E+04  0.00000000000E+00 0. -1.
         24    2    1    2    0    0  0.12161561339E+03 -0.23623976473E+03 -0.91187947522E+01  0.27778827480E+03  0.80520738565E+02 0.  0.
         23    2    1    2    0    0 -0.75498844037E+02 -0.10651799206E+03 -0.59548192659E+03  0.61655143346E+03  0.92145467145E+02 0.  0.
        -13    1    3    3    0    0  0.42348121765E+02 -0.19308660499E+02  0.17220362993E+01  0.46574168767E+02  0.00000000000E+00 0.  1.
         14    1    3    3    0    0  0.79267491629E+02 -0.21693110423E+03 -0.10840831052E+02  0.23121410604E+03  0.00000000000E+00 0. -1.
        -11    1    4    4    0    0 -0.90638453640E+02 -0.58560115960E+02 -0.36341008624E+03  0.37909300605E+03  0.00000000000E+00 0. -1.
         11    1    4    4    0    0  0.15139609603E+02 -0.47957876102E+02 -0.23207184035E+03  0.23745842740E+03  0.00000000000E+00 0.  1.
          1    1    1    2  501    0 -0.46116769358E+02  0.34275775679E+03 -0.20178077339E+03  0.40040618972E+03  0.00000000000E+00 0. -1.
<scales pt_clust_5="13000.00000" pt_clust_6="13000.00000" pt_clust_7="13000.00000" pt_clust_8="13000.00000" pt_clust_9="13000.00000"></scales>
<clustering>
<clus scale="   80.521">  5  6 -1 -1</clus>
<clus scale="   92.145">  7  8 -1 -1</clus>
<clus scale="  277.639">  2  5  1 -1</clus>
<clus scale="  264.406">  7  9 -1 -1</clus>
<clus scale="  631.328">  1  5  2 -1</clus>
</clustering>
</event>
<event>
 9    2  0.4178938E-005  0.1457161E+03  0.7546771E-02  0.1221069E+00
          2   -1    0    0  502    0 -0.00000000000E+00  0.00000000000E+00  0.13877697114E+03  0.13877697114E+03  0.00000000000E+00 0. -1.
         21   -1    0    0  501  502  0.00000000000E+00 -0.00000000000E+00 -0.11716954349E+03  0.11716954349E+03  0.00000000000E+00 0.  1.
         24    2    1    2    0    0  0.61914062674E+02  0.29426163118E+02 -0.12780025944E+02  0.10622785096E+03  0.80135990809E+02 0.  0.
         23    2    1    2    0    0 -0.21021778910E+02 -0.77062809989E+01  0.65094744022E+01  0.95671333720E+02  0.92786469290E+02 0.  0.
        -11    1    3    3    0    0  0.43267788220E+02  0.37707085682E+02 -0.41623877357E+02  0.70897623192E+02  0.00000000000E+00 0.  1.
         12    1    3    3    0    0  0.18646274454E+02 -0.82809225644E+01  0.28843851413E+02  0.35330227764E+02  0.00000000000E+00 0. -1.
        -11    1    4    4    0    0  0.29881168633E+02 -0.32143690634E+01  0.27205812377E+02  0.40538532712E+02  0.00000000000E+00 0.  1.
         11    1    4    4    0    0 -0.50902947543E+02 -0.44919119356E+01 -0.20696337975E+02  0.55132801008E+02  0.00000000000E+00 0. -1.
          1    1    1    2  501    0 -0.40892283764E+02 -0.21719882119E+02  0.27877979198E+02  0.54047329951E+02  0.00000000000E+00 0. -1.
<scales pt_clust_5="13000.00000" pt_clust_6="13000.00000" pt_clust_7="13000.00000" pt_clust_8="13000.00000" pt_clust_9="13000.00000"></scales>
<clustering>
<clus scale="   80.136">  5  6 -1 -1</clus>
<clus scale="   92.786">  7  8 -1 -1</clus>
<clus scale="   46.303">  7  9 -1 -1</clus>
<clus scale="  105.456">  1  5  2 -1</clus>
<clus scale="  145.716">  2  5  1 -1</clus>
</clustering>
</event>
<event>
 9    2  0.4178938E-005  0.1657132E+03  0.7546771E-02  0.1213475E+00
          2   -1    0    0  502    0 -0.00000000000E+00  0.00000000000E+00  0.24533918231E+03  0.24533918231E+03  0.00000000000E+00 0. -1.
         21   -1    0    0  501  502  0.00000000000E+00 -0.00000000000E+00 -0.64816686464E+02  0.64816686464E+02  0.00000000000E+00 0. -1.
         24    2    1    2    0    0  0.56185625810E+01 -0.25979001964E+02  0.41417122241E+02  0.93797015877E+02  0.79850018060E+02 0.  0.
         23    2    1    2    0    0  0.31845237214E+02  0.60743169457E+01  0.49851716366E+02  0.11753604120E+03  0.10138299116E+03 0.  0.
        -13    1    3    3    0    0 -0.35857732191E+01 -0.45792214817E+02  0.52118264430E+02  0.69470124476E+02  0.00000000000E+00 0.  1.
         14    1    3    3    0    0  0.92043358001E+01  0.19813212853E+02 -0.10701142189E+02  0.24326891401E+02  0.00000000000E+00 0. -1.
        -13    1    4    4    0    0 -0.33868936267E+02  0.19345674635E+02  0.13506731873E+02  0.41277012693E+02  0.00000000000E+00 0.  1.
         13    1    4    4    0    0  0.65714173482E+02 -0.13271357690E+02  0.36344984493E+02  0.76259028509E+02  0.00000000000E+00 0. -1.
          1    1    1    2  501    0 -0.37463799795E+02  0.19904685018E+02  0.89253657236E+02  0.98822811693E+02  0.00000000000E+00 0. -1.
<scales pt_clust_5="13000.00000" pt_clust_6="13000.00000" pt_clust_7="13000.00000" pt_clust_8="13000.00000" pt_clust_9="13000.00000"></scales>
<clustering>
<clus scale="   79.850">  5  6 -1 -1</clus>
<clus scale="   84.158">  1  5  2 -1</clus>
<clus scale="  101.383">  7  8 -1 -1</clus>
<clus scale="   35.037">  7  9 -1 -1</clus>
<clus scale="  165.713">  2  5  1 -1</clus>
</clustering>
</event>
<event>
 9    2  0.4178938E-005  0.2194145E+03  0.7546771E-02  0.1165545E+00
         -1   -1    0    0    0  501 -0.00000000000E+00  0.00000000000E+00  0.25420226637E+03  0.25420226637E+03  0.00000000000E+00 0.  1.
         21   -1    0    0  501  502  0.00000000000E+00 -0.00000000000E+00 -0.11505978001E+03  0.11505978001E+03  0.00000000000E+00 0. -1.
         24    2    1    2    0    0 -0.70460639263E+02  0.11944708847E+02  0.10306600325E+03  0.14690144802E+03  0.76485663031E+02 0.  0.
         23    2    1    2    0    0  0.60026068446E+02  0.22600085495E+02 -0.55137352904E+02  0.12426785161E+03  0.91041081388E+02 0.  0.
        -11    1    3    3    0    0 -0.20614860322E+02 -0.31482386181E+02  0.47072358425E+02  0.60265413244E+02  0.00000000000E+00 0.  1.
         12    1    3    3    0    0 -0.49845778941E+02  0.43427095027E+02  0.55993644828E+02  0.86636034777E+02  0.00000000000E+00 0. -1.
        -11    1    4    4    0    0  0.26583528193E+02 -0.19281442794E+02  0.14912089969E+02  0.36066999246E+02  0.00000000000E+00 0.  1.
         11    1    4    4    0    0  0.33442540254E+02  0.41881528289E+02 -0.70049442873E+02  0.88200852361E+02  0.00000000000E+00 0. -1.
         -2    1    1    2    0  502  0.10434570817E+02 -0.34544794342E+02  0.91213836015E+02  0.98092746750E+02  0.00000000000E+00 0.  1.
<scales pt_clust_5="13000.00000" pt_clust_6="13000.00000" pt_clust_7="13000.00000" pt_clust_8="13000.00000" pt_clust_9="13000.00000"></scales>
<clustering>
<clus scale="   76.486">  5  6 -1 -1</clus>
<clus scale="   91.041">  7  8 -1 -1</clus>
<clus scale="   36.086">  7  9 -1 -1</clus>
<clus scale="  104.678">  1  5  2 -1</clus>
<clus scale="  219.415">  2  5  1 -1</clus>
</clustering>
</event>
<event>
 9    2  0.4178938E-005  0.2299398E+03  0.7546771E-02  0.1142876E+00
         21   -1    0    0  501  502  0.00000000000E+00  0.00000000000E+00  0.42221451751E+02  0.42221451751E+02  0.00000000000E+00 0. -1.
          2   -1    0    0  502    0 -0.00000000000E+00 -0.00000000000E+00 -0.97423308304E+03  0.97423308304E+03  0.00000000000E+00 0. -1.
         24    2    1    2    0    0  0.28700928497E+02 -0.12809701592E+03 -0.54174233501E+03  0.56348384180E+03  0.82442062362E+02 0.  0.
         23    2    1    2    0    0  0.67273013023E+01  0.13490435192E+01 -0.21954518910E+03  0.23740880223E+03  0.90087584148E+02 0.  0.
        -11    1    3    3    0    0  0.18757099444E+01 -0.50201973571E+02 -0.80117436975E+02  0.94565110615E+02  0.00000000000E+00 0.  1.
         12    1    3    3    0    0  0.26825218553E+02 -0.77895042353E+02 -0.46162489803E+03  0.46891873119E+03  0.00000000000E+00 0. -1.
        -11    1    4    4    0    0  0.47554544570E+02  0.37598412097E+00 -0.93273735915E+02  0.10469749703E+03  0.00000000000E+00 0.  1.
         11    1    4    4    0    0 -0.40827243268E+02  0.97305939827E+00 -0.12627145319E+03  0.13271130520E+03  0.00000000000E+00 0. -1.
          1    1    1    2  501    0 -0.35428229799E+02  0.12674797240E+03 -0.17072410718E+03  0.21556189076E+03  0.00000000000E+00 0. -1.
<scales pt_clust_5="13000.00000" pt_clust_6="13000.00000" pt_clust_7="13000.00000" pt_clust_8="13000.00000" pt_clust_9="13000.00000"></scales>
<clustering>
<clus scale="   82.442">  5  6 -1 -1</clus>
<clus scale="   90.088">  7  8 -1 -1</clus>
<clus scale="  131.606">  7  9 -1 -1</clus>
<clus scale="  155.014">  2  5  1 -1</clus>
<clus scale="  229.940">  1  5  2 -1</clus>
</clustering>
</event>
<event>
 9    2  0.4178938E-005  0.2117049E+03  0.7546771E-02  0.1176531E+00
         21   -1    0    0  501  502  0.00000000000E+00  0.00000000000E+00  0.77909414454E+02  0.77909414454E+02  0.00000000000E+00 0. -1.
          2   -1    0    0  502    0 -0.00000000000E+00 -0.00000000000E+00 -0.30050331165E+03  0.30050331165E+03  0.00000000000E+00 0. -1.
         24    2    1    2    0    0  0.30107514971E+02  0.29599963590E+02 -0.41105758935E+02  0.99563453078E+02  0.80253208465E+02 0.  0.
         23    2    1    2    0    0 -0.30935263630E+02 -0.10129516262E+03 -0.12086682971E+03  0.18495662272E+03  0.91555782213E+02 0.  0.
        -13    1    3    3    0    0 -0.21830523647E+02  0.23073399917E+02 -0.34345686710E+02  0.46782258838E+02  0.00000000000E+00 0.  1.
         14    1    3    3    0    0  0.51938038618E+02  0.65265636724E+01 -0.67600722247E+01  0.52781194239E+02  0.00000000000E+00 0. -1.
        -13    1    4    4    0    0  0.59854303025E+01 -0.36254374757E+02 -0.10114191955E+03  0.10760991104E+03  0.00000000000E+00 0.  1.
         13    1    4    4    0    0 -0.36920693932E+02 -0.65040787862E+02 -0.19724910167E+02  0.77346711677E+02  0.00000000000E+00 0. -1.
          1    1    1    2  501    0  0.82774865868E+00  0.71695199030E+02 -0.60621308554E+02  0.93892650312E+02  0.00000000000E+00 0. -1.
<scales pt_clust_5="13000.00000" pt_clust_6="13000.00000" pt_clust_7="13000.00000" pt_clust_8="13000.00000" pt_clust_9="13000.00000"></scales>
<clustering>
<clus scale="   80.253">  5  6 -1 -1</clus>
<clus scale="   90.682">  2  5  1 -1</clus>
<clus scale="   91.556">  7  8 -1 -1</clus>
<clus scale="   82.360">  7  9 -1 -1</clus>
<clus scale="  211.705">  1  5  2 -1</clus>
</clustering>
</event>
<event>
 9    2  0.4178938E-005  0.2529408E+03  0.7546771E-02  0.1152641E+00
         21   -1    0    0  501  502  0.00000000000E+00  0.00000000000E+00  0.23509208529E+03  0.23509208529E+03  0.00000000000E+00 0. -1.
          4   -1    0    0  502    0 -0.00000000000E+00 -0.00000000000E+00 -0.69307855592E+03  0.69307855592E+03  0.00000000000E+00 0. -1.
         24    2    1    2    0    0  0.72158648648E+00 -0.45822132646E+02 -0.62062594528E+03  0.62745379182E+03  0.80134314694E+02 0.  0.
         23    2    1    2    0    0 -0.62775881049E+02 -0.21589031166E+02  0.63734499549E+01  0.11957030387E+03  0.99244844684E+02 0.  0.
        -13    1    3    3    0    0 -0.18374338154E+02 -0.22997951707E+02 -0.68887130598E+02  0.74913008532E+02  0.00000000000E+00 0.  1.
         14    1    3    3    0    0  0.19095924640E+02 -0.22824180939E+02 -0.55173881468E+03  0.55254078329E+03  0.00000000000E+00 0. -1.
        -13    1    4    4    0    0 -0.30801935512E+02  0.19486309275E+02  0.42665667335E+02  0.56114478075E+02  0.00000000000E+00 0.  1.
         13    1    4    4    0    0 -0.31973945537E+02 -0.41075340441E+02 -0.36292217380E+02  0.63455825800E+02  0.00000000000E+00 0. -1.
          3    1    1    2  501    0  0.62054294562E+02  0.67411163812E+02  0.15626602469E+03  0.18114654552E+03  0.00000000000E+00 0. -1.
<scales pt_clust_5="13000.00000" pt_clust_6="13000.00000" pt_clust_7="13000.00000" pt_clust_8="13000.00000" pt_clust_9="13000.00000"></scales>
<clustering>
<clus scale="   80.134">  5  6 -1 -1</clus>
<clus scale="   92.313">  2  5  1 -1</clus>
<clus scale="   99.245">  7  8 -1 -1</clus>
<clus scale="   85.826">  7  9 -1 -1</clus>
<clus scale="  252.941">  1  5  2 -1</clus>
</clustering>
</event>
<event>
 9    2  0.4178938E-005  0.3537728E+03  0.7546771E-02  0.1088515E+00
         21   -1    0    0  501  502  0.00000000000E+00  0.00000000000E+00  0.19602128592E+03  0.19602128592E+03  0.00000000000E+00 0. -1.
         -1   -1    0    0    0  501 -0.00000000000E+00 -0.00000000000E+00 -0.40899183439E+03  0.40899183439E+03  0.00000000000E+00 0.  1.
         24    2    1    2    0    0  0.14623525321E+03 -0.59047153523E+01 -0.18567619877E+03  0.25018893809E+03  0.81848879076E+02 0.  0.
         23    2    1    2    0    0  0.82798731629E+02 -0.18920517839E+01  0.56944759341E+01  0.12329531057E+03  0.91159731972E+02 0.  0.
        -13    1    3    3    0    0  0.10391999606E+03  0.31877089667E+02 -0.10176403126E+03  0.14890074709E+03  0.00000000000E+00 0.  1.
         14    1    3    3    0    0  0.42315257153E+02 -0.37781805019E+02 -0.83912167517E+02  0.10128819100E+03  0.00000000000E+00 0. -1.
        -11    1    4    4    0    0  0.84050864589E+02  0.28550422349E+02  0.17757019605E+02  0.90526163067E+02  0.00000000000E+00 0. -1.
         11    1    4    4    0    0 -0.12521329595E+01 -0.30442474133E+02 -0.12062543671E+02  0.32769147504E+02  0.00000000000E+00 0.  1.
         -2    1    1    2    0  502 -0.22903398484E+03  0.77967671362E+01 -0.32988825636E+02  0.23152887165E+03  0.00000000000E+00 0.  1.
<scales pt_clust_5="13000.00000" pt_clust_6="13000.00000" pt_clust_7="13000.00000" pt_clust_8="13000.00000" pt_clust_9="13000.00000"></scales>
<clustering>
<clus scale="   81.849">  5  6 -1 -1</clus>
<clus scale="   91.160">  7  8 -1 -1</clus>
<clus scale="  167.687">  2  5  1 -1</clus>
<clus scale="  127.858">  7  9 -1 -1</clus>
<clus scale="  353.773">  1  5  2 -1</clus>
</clustering>
</event>
<event>
 9    2  0.4178938E-005  0.2053640E+03  0.7546771E-02  0.1182245E+00
         21   -1    0    0  501  502  0.00000000000E+00  0.00000000000E+00  0.25551785226E+02  0.25551785226E+02  0.00000000000E+00 0. -1.
          2   -1    0    0  502    0 -0.00000000000E+00 -0.00000000000E+00 -0.86678967802E+03  0.86678967802E+03  0.00000000000E+00 0. -1.
         24    2    1    2    0    0 -0.33176237699E+02 -0.60370133779E+01 -0.33080690674E+03  0.34214679421E+03  0.80586046973E+02 0.  0.
         23    2    1    2    0    0 -0.52996610985E+02 -0.28834636268E+02 -0.24308446616E+03  0.26714705202E+03  0.92937681740E+02 0.  0.
        -11    1    3    3    0    0 -0.40353660687E+02 -0.35297025347E+02 -0.16110649003E+03  0.16979281215E+03  0.00000000000E+00 0.  1.
         12    1    3    3    0    0  0.71774229881E+01  0.29260011969E+02 -0.16970041670E+03  0.17235398206E+03  0.00000000000E+00 0. -1.
        -13    1    4    4    0    0  0.13778511836E+02 -0.25326375022E+02 -0.14874378023E+03  0.15151232563E+03  0.00000000000E+00 0.  1.
         13    1    4    4    0    0 -0.66775122820E+02 -0.35082612454E+01 -0.94340685929E+02  0.11563472639E+03  0.00000000000E+00 0. -1.
          1    1    1    2  501    0  0.86172848683E+02  0.34871649646E+02 -0.26734651989E+03  0.28304761702E+03  0.00000000000E+00 0. -1.
<scales pt_clust_5="13000.00000" pt_clust_6="13000.00000" pt_clust_7="13000.00000" pt_clust_8="13000.00000" pt_clust_9="13000.00000"></scales>
<clustering>
<clus scale="   80.586">  5  6 -1 -1</clus>
<clus scale="   87.357">  2  5  1 -1</clus>
<clus scale="   92.938">  7  8 -1 -1</clus>
<clus scale="   75.910">  7  9 -1 -1</clus>
<clus scale="  205.364">  1  5  2 -1</clus>
</clustering>
</event>
<event>
 9    2  0.4178938E-005  0.2885442E+03  0.7546771E-02  0.1106920E+00
         21   -1    0    0  501  502  0.00000000000E+00  0.00000000000E+00  0.17946765041E+03  0.17946765041E+03  0.00000000000E+00 0. -1.
          2   -1    0    0  502    0 -0.00000000000E+00 -0.00000000000E+00 -0.74720959113E+03  0.74720959113E+03  0.00000000000E+00 0. -1.
         24    2    1    2    0    0  0.21879100050E+02  0.17080710687E+03 -0.60611640414E+03  0.63559249344E+03  0.83348422780E+02 0.  0.
         23    2    1    2    0    0 -0.94242253692E+02 -0.96396924914E+02 -0.30800346551E+02  0.16635121003E+03  0.92466719502E+02 0.  0.
        -13    1    3    3    0    0 -0.29411267674E+02  0.43600115246E+02 -0.20655052745E+03  0.21314106387E+03  0.00000000000E+00 0.  1.
         14    1    3    3    0    0  0.51290367723E+02  0.12720699162E+03 -0.39956587669E+03  0.42245142958E+03  0.00000000000E+00 0. -1.
        -11    1    4    4    0    0 -0.10331617470E+03 -0.55234176616E+02 -0.56995735901E+01  0.11729250343E+03  0.00000000000E+00 0. -1.
         11    1    4    4    0    0  0.90739210073E+01 -0.41162748298E+02 -0.25100772961E+02  0.49058706599E+02  0.00000000000E+00 0.  1.
          1    1    1    2  501    0  0.72363153643E+02 -0.74410181956E+02  0.69174809969E+02  0.12473353806E+03  0.00000000000E+00 0. -1.
<scales pt_clust_5="13000.00000" pt_clust_6="13000.00000" pt_clust_7="13000.00000" pt_clust_8="13000.00000" pt_clust_9="13000.00000"></scales>
<clustering>
<clus scale="   83.348">  5  6 -1 -1</clus>
<clus scale="   92.467">  7  8 -1 -1</clus>
<clus scale="  103.795">  7  9 -1 -1</clus>
<clus scale="  191.313">  2  5  1 -1</clus>
<clus scale="  288.544">  1  5  2 -1</clus>
</clustering>
</event>
<event>
 9    2  0.4178938E-005  0.3549597E+03  0.7546771E-02  0.1102114E+00
          2   -1    0    0  502    0 -0.00000000000E+00  0.00000000000E+00  0.17171531018E+03  0.17171531018E+03  0.00000000000E+00 0. -1.
         21   -1    0    0  501  502  0.00000000000E+00 -0.00000000000E+00 -0.32352341688E+03  0.32352341688E+03  0.00000000000E+00 0. -1.
         24    2    1    2    0    0  0.79761120414E+02  0.25367278778E+02 -0.42844151166E+02  0.12393082840E+03  0.80733473706E+02 0.  0.
         23    2    1    2    0    0  0.10044234261E+03  0.60227663759E+02 -0.82798134328E+02  0.17010046224E+03  0.91447255493E+02 0.  0.
        -13    1    3    3    0    0  0.42198106049E+02  0.31895583649E+02  0.14701420241E+02  0.54901185484E+02  0.00000000000E+00 0.  1.
         14    1    3    3    0    0  0.37563014365E+02 -0.65283048705E+01 -0.57545571407E+02  0.69029642917E+02  0.00000000000E+00 0. -1.
        -13    1    4    4    0    0  0.77804663069E+02  0.58604596132E+02 -0.10151026172E+03  0.14068545596E+03  0.00000000000E+00 0.  1.
         13    1    4    4    0    0  0.22637679538E+02  0.16230676276E+01  0.18712127392E+02  0.29415006288E+02  0.00000000000E+00 0. -1.
          1    1    1    2  501    0 -0.18020346302E+03 -0.85594942537E+02 -0.26165821207E+02  0.20120743642E+03  0.00000000000E+00 0. -1.
<scales pt_clust_5="13000.00000" pt_clust_6="13000.00000" pt_clust_7="13000.00000" pt_clust_8="13000.00000" pt_clust_9="13000.00000"></scales>
<clustering>
<clus scale="   80.733">  5  6 -1 -1</clus>
<clus scale="   91.447">  7  8 -1 -1</clus>
<clus scale="  116.289">  1  5  2 -1</clus>
<clus scale="  144.363">  7  9 -1 -1</clus>
<clus scale="  354.960">  2  5  1 -1</clus>
</clustering>
</event>
<event>
 9    2  0.4178938E-005  0.2411646E+03  0.7546771E-02  0.1126629E+00
         21   -1    0    0  501  502  0.00000000000E+00  0.00000000000E+00  0.81644779203E+02  0.81644779203E+02  0.00000000000E+00 0. -1.
          2   -1    0    0  502    0 -0.00000000000E+00 -0.00000000000E+00 -0.59826819176E+03  0.59826819176E+03  0.00000000000E+00 0. -1.
         24    2    1    2    0    0  0.18447503175E+03 -0.92791815440E+01 -0.25989937331E+03  0.32768066842E+03  0.75563189835E+02 0.  0.
         23    2    1    2    0    0 -0.81190064065E+02  0.42202739434E+02 -0.11260128964E+03  0.17189064854E+03  0.92165323787E+02 0.  0.
        -11    1    3    3    0    0  0.11647610213E+03 -0.18621693364E+02 -0.21628316722E+03  0.24635717618E+03  0.00000000000E+00 0.  1.
         12    1    3    3    0    0  0.67998929618E+02  0.93425118204E+01 -0.43616206089E+02  0.81323492239E+02  0.00000000000E+00 0. -1.
        -11    1    4    4    0    0 -0.41343665018E+02  0.61229649480E+02 -0.10290927583E+03  0.12668341511E+03  0.00000000000E+00 0. -1.
         11    1    4    4    0    0 -0.39846399047E+02 -0.19026910045E+02 -0.96920138142E+01  0.45207233433E+02  0.00000000000E+00 0.  1.
          1    1    1    2  501    0 -0.10328496769E+03 -0.32923557890E+02 -0.14412274961E+03  0.18034165400E+03  0.00000000000E+00 0. -1.
<scales pt_clust_5="13000.00000" pt_clust_6="13000.00000" pt_clust_7="13000.00000" pt_clust_8="13000.00000" pt_clust_9="13000.00000"></scales>
<clustering>
<clus scale="   75.563">  5  6 -1 -1</clus>
<clus scale="   92.165">  7  8 -1 -1</clus>
<clus scale="  108.406">  7  9 -1 -1</clus>
<clus scale="  199.567">  2  5  1 -1</clus>
<clus scale="  241.165">  1  5  2 -1</clus>
</clustering>
</event>
<event>
 9    2  0.4178938E-005  0.1623539E+03  0.7546771E-02  0.1218072E+00
         21   -1    0    0  501  502  0.00000000000E+00  0.00000000000E+00  0.55286665802E+02  0.55286665802E+02  0.00000000000E+00 0. -1.
          2   -1    0    0  502    0 -0.00000000000E+00 -0.00000000000E+00 -0.27096030787E+03  0.27096030787E+03  0.00000000000E+00 0. -1.
         24    2    1    2    0    0  0.12675721377E+02  0.11847845156E+02 -0.56820686070E+02  0.99105922479E+02  0.79324322611E+02 0.  0.
         23    2    1    2    0    0 -0.51435063083E+02  0.10203230016E+02 -0.14878201623E+03  0.18142496744E+03  0.89606131706E+02 0.  0.
        -11    1    3    3    0    0 -0.33629814383E+02  0.57703104092E+01 -0.28732996061E+02  0.44607689474E+02  0.00000000000E+00 0.  1.
         12    1    3    3    0    0  0.46305535760E+02  0.60775347468E+01 -0.28087690010E+02  0.54498233005E+02  0.00000000000E+00 0. -1.
        -11    1    4    4    0    0 -0.71110083997E+00 -0.33748450783E+02 -0.30838030668E+02  0.45721414350E+02  0.00000000000E+00 0.  1.
         11    1    4    4    0    0 -0.50723962243E+02  0.43951680799E+02 -0.11794398556E+03  0.13570355309E+03  0.00000000000E+00 0. -1.
          1    1    1    2  501    0  0.38759341706E+02 -0.22051075172E+02 -0.10070939762E+02  0.45716083750E+02  0.00000000000E+00 0. -1.
<scales pt_clust_5="13000.00000" pt_clust_6="13000.00000" pt_clust_7="13000.00000" pt_clust_8="13000.00000" pt_clust_9="13000.00000"></scales>
<clustering>
<clus scale="   79.324">  5  6 -1 -1</clus>
<clus scale="   81.200">  2  5  1 -1</clus>
<clus scale="   89.606">  7  8 -1 -1</clus>
<clus scale="   45.402">  7  9 -1 -1</clus>
<clus scale="  162.354">  1  5  2 -1</clus>
</clustering>
</event>
<event>
 9    2  0.4178938E-005  0.1740801E+04  0.7546771E-02  0.9515118E-01
         21   -1    0    0  501  502  0.00000000000E+00  0.00000000000E+00  0.74592746585E+03  0.74592746585E+03  0.00000000000E+00 0. -1.
          2   -1    0    0  502    0 -0.00000000000E+00 -0.00000000000E+00 -0.11957200388E+04  0.11957200388E+04  0.00000000000E+00 0. -1.
         24    2    1    2    0    0 -0.41367708307E+02  0.13889884625E+00 -0.14987024639E+03  0.17519895306E+03  0.80760608062E+02 0.  0.
         23    2    1    2    0    0  0.11260882257E+03  0.46052124730E+03 -0.89088322206E+03  0.10137747533E+04  0.96466413220E+02 0.  0.
        -11    1    3    3    0    0 -0.21387055233E+02  0.40297455057E+02 -0.68897922987E+02  0.82633012819E+02  0.00000000000E+00 0.  1.
         12    1    3    3    0    0 -0.19980653074E+02 -0.40158556211E+02 -0.80972323406E+02  0.92565940237E+02  0.00000000000E+00 0. -1.
        -13    1    4    4    0    0 -0.25144432754E+01  0.27407107880E+02 -0.11038545034E+03  0.11376475568E+03  0.00000000000E+00 0.  1.
         13    1    4    4    0    0  0.11512326585E+03  0.43311413942E+03 -0.78049777172E+03  0.90000999759E+03  0.00000000000E+00 0. -1.
          1    1    1    2  501    0 -0.71241114268E+02 -0.46066014614E+03  0.59096089553E+03  0.75267379831E+03  0.00000000000E+00 0. -1.
<scales pt_clust_5="13000.00000" pt_clust_6="13000.00000" pt_clust_7="13000.00000" pt_clust_8="13000.00000" pt_clust_9="13000.00000"></scales>
<clustering>
<clus scale="   80.761">  5  6 -1 -1</clus>
<clus scale="   90.739">  2  5  1 -1</clus>
<clus scale="   96.466">  7  8 -1 -1</clus>
<clus scale="  466.632">  7  9 -1 -1</clus>
<clus scale=" 1740.801">  1  5  2 -1</clus>
</clustering>
</event>
<event>
 9    2  0.4178938E-005  0.3870190E+03  0.7546771E-02  0.1089115E+00
          2   -1    0    0  502    0 -0.00000000000E+00  0.00000000000E+00  0.94265836820E+02  0.94265836820E+02  0.00000000000E+00 0. -1.
         21   -1    0    0  501  502  0.00000000000E+00 -0.00000000000E+00 -0.10403220253E+04  0.10403220253E+04  0.00000000000E+00 0. -1.
         24    2    1    2    0    0 -0.92130619547E+02  0.32573690449E+02 -0.15809814487E+02  0.12704529421E+03  0.79633285628E+02 0.  0.
         23    2    1    2    0    0  0.46272444153E+01  0.78678203354E+02 -0.76127575985E+02  0.14177542505E+03  0.89962171216E+02 0.  0.
        -11    1    3    3    0    0 -0.21747228537E+02  0.48149566500E+02  0.17097494638E+01  0.52860627563E+02  0.00000000000E+00 0.  1.
         12    1    3    3    0    0 -0.70383391010E+02 -0.15575876051E+02 -0.17519563951E+02  0.74184666649E+02  0.00000000000E+00 0. -1.
        -11    1    4    4    0    0  0.29581539971E+02 -0.69687467648E+01 -0.19808728054E+02  0.36276943720E+02  0.00000000000E+00 0.  1.
         11    1    4    4    0    0 -0.24954295556E+02  0.85646950119E+02 -0.56318847931E+02  0.10549848133E+03  0.00000000000E+00 0. -1.
          1    1    1    2  501    0  0.87503375132E+02 -0.11125189380E+03 -0.85411879799E+03  0.86576714284E+03  0.00000000000E+00 0. -1.
<scales pt_clust_5="13000.00000" pt_clust_6="13000.00000" pt_clust_7="13000.00000" pt_clust_8="13000.00000" pt_clust_9="13000.00000"></scales>
<clustering>
<clus scale="   79.633">  5  6 -1 -1</clus>
<clus scale="   89.962">  7  8 -1 -1</clus>
<clus scale="  126.058">  1  5  2 -1</clus>
<clus scale="  129.340">  7  9 -1 -1</clus>
<clus scale="  387.019">  2  5  1 -1</clus>
</clustering>
</event>
<event>
 9    2  0.4178938E-005  0.3502697E+03  0.7546771E-02  0.1114044E+00
          2   -1    0    0  502    0 -0.00000000000E+00  0.00000000000E+00  0.54752036960E+03  0.54752036960E+03  0.00000000000E+00 0. -1.
         21   -1    0    0  501  502  0.00000000000E+00 -0.00000000000E+00 -0.10229776666E+03  0.10229776666E+03  0.00000000000E+00 0. -1.
         24    2    1    2    0    0  0.41879707344E+00 -0.35952929531E+02  0.20925702582E+03  0.22748102023E+03  0.81647554627E+02 0.  0.
         23    2    1    2    0    0 -0.90584625911E+02 -0.88324513753E+02  0.19671681545E+02  0.15708665164E+03  0.91007949586E+02 0.  0.
        -13    1    3    3    0    0  0.30745697254E+02  0.11264264234E+02  0.87067078057E+02  0.93020737633E+02  0.00000000000E+00 0.  1.
         14    1    3    3    0    0 -0.30326900181E+02 -0.47217193764E+02  0.12218994777E+03  0.13446028260E+03  0.00000000000E+00 0. -1.
        -13    1    4    4    0    0  0.56345744048E+01 -0.36218395051E+02  0.29741122970E+02  0.47202277109E+02  0.00000000000E+00 0.  1.
         13    1    4    4    0    0 -0.96219200316E+02 -0.52106118702E+02 -0.10069441425E+02  0.10988437453E+03  0.00000000000E+00 0. -1.
          1    1    1    2  501    0  0.90165828838E+02  0.12427744328E+03  0.21629389556E+03  0.26525046439E+03  0.00000000000E+00 0. -1.
<scales pt_clust_5="13000.00000" pt_clust_6="13000.00000" pt_clust_7="13000.00000" pt_clust_8="13000.00000" pt_clust_9="13000.00000"></scales>
<clustering>
<clus scale="   81.648">  5  6 -1 -1</clus>
<clus scale="   89.214">  1  5  2 -1</clus>
<clus scale="   91.008">  7  8 -1 -1</clus>
<clus scale="  133.360">  7  9 -1 -1</clus>
<clus scale="  350.270">  2  5  1 -1</clus>
</clustering>
</event>
<event>
 9    2  0.4178938E-005  0.3297576E+03  0.7546771E-02  0.1094559E+00
          2   -1    0    0  502    0 -0.00000000000E+00  0.00000000000E+00  0.38719372244E+03  0.38719372244E+03  0.00000000000E+00 0. -1.
         21   -1    0    0  501  502  0.00000000000E+00 -0.00000000000E+00 -0.16907496354E+03  0.16907496354E+03  0.00000000000E+00 0.  1.
         24    2    1    2    0    0  0.10161525690E+03  0.11972115432E+03  0.11520800817E+03  0.21082593674E+03  0.80720971421E+02 0.  0.
         23    2    1    2    0    0  0.42838585169E+02 -0.10569503643E+03  0.13288548356E+03  0.19724649734E+03  0.90780195349E+02 0.  0.
        -11    1    3    3    0    0  0.11135445973E+03  0.11361446995E+03  0.11905800833E+03  0.19870297640E+03  0.00000000000E+00 0.  1.
         12    1    3    3    0    0 -0.97392028352E+01  0.61066843768E+01 -0.38500001632E+01  0.12122960332E+02  0.00000000000E+00 0. -1.
        -11    1    4    4    0    0 -0.45346526043E+01 -0.53302876167E+02  0.11113421179E+03  0.12333925860E+03  0.00000000000E+00 0. -1.
         11    1    4    4    0    0  0.47373237773E+02 -0.52392160265E+02  0.21751271761E+02  0.73907238736E+02  0.00000000000E+00 0.  1.
          1    1    1    2  501    0 -0.14445384207E+03 -0.14026117893E+02 -0.29974732833E+02  0.14819625191E+03  0.00000000000E+00 0. -1.
<scales pt_clust_5="13000.00000" pt_clust_6="13000.00000" pt_clust_7="13000.00000" pt_clust_8="13000.00000" pt_clust_9="13000.00000"></scales>
<clustering>
<clus scale="   80.721">  5  6 -1 -1</clus>
<clus scale="   90.780">  7  8 -1 -1</clus>
<clus scale="  145.133">  7  9 -1 -1</clus>
<clus scale="  176.564">  1  5  2 -1</clus>
<clus scale="  329.758">  2  5  1 -1</clus>
</clustering>
</event>
<event>
 9    2  0.4178938E-005  0.2574501E+03  0.7546771E-02  0.1129539E+00
          2   -1    0    0  502    0 -0.00000000000E+00  0.00000000000E+00  0.48749517460E+03  0.48749517460E+03  0.00000000000E+00 0. -1.
         21   -1    0    0  501  502  0.00000000000E+00 -0.00000000000E+00 -0.92712677074E+02  0.92712677074E+02  0.00000000000E+00 0. -1.
         24    2    1    2    0    0 -0.10399674105E+02 -0.12912401030E+03  0.22462939194E+03  0.27161001394E+03  0.80823713667E+02 0.  0.
         23    2    1    2    0    0 -0.18614660742E+02 -0.18020513865E+02  0.21047594531E+02  0.97113095864E+02  0.91195984770E+02 0.  0.
        -13    1    3    3    0    0 -0.41511885626E+02 -0.37627435917E+02  0.84516388625E+02  0.10140059432E+03  0.00000000000E+00 0.  1.
         14    1    3    3    0    0  0.31112211521E+02 -0.91496574381E+02  0.14011300332E+03  0.17020941962E+03  0.00000000000E+00 0. -1.
        -11    1    4    4    0    0  0.13705404896E+02 -0.38853194833E+02  0.37102396911E+02  0.55443635601E+02  0.00000000000E+00 0.  1.
         11    1    4    4    0    0 -0.32320065638E+02  0.20832680968E+02 -0.16054802380E+02  0.41669460263E+02  0.00000000000E+00 0. -1.
          1    1    1    2  501    0  0.29014334847E+02  0.14714452416E+03  0.14910551105E+03  0.21148474187E+03  0.00000000000E+00 0. -1.
<scales pt_clust_5="13000.00000" pt_clust_6="13000.00000" pt_clust_7="13000.00000" pt_clust_8="13000.00000" pt_clust_9="13000.00000"></scales>
<clustering>
<clus scale="   80.824">  5  6 -1 -1</clus>
<clus scale="   91.196">  7  8 -1 -1</clus>
<clus scale="  149.978">  7  9 -1 -1</clus>
<clus scale="  152.688">  1  5  2 -1</clus>
<clus scale="  257.450">  2  5  1 -1</clus>
</clustering>
</event>
<event>
 9    2  0.4178938E-005  0.2801794E+03  0.7546771E-02  0.1142982E+00
          2   -1    0    0  502    0 -0.00000000000E+00  0.00000000000E+00  0.97809579756E+03  0.97809579756E+03  0.00000000000E+00 0. -1.
         21   -1    0    0  501  502  0.00000000000E+00 -0.00000000000E+00 -0.34415784408E+02  0.34415784408E+02  0.00000000000E+00 0.  1.
         24    2    1    2    0    0 -0.60756633803E+01 -0.29959497609E+02  0.25841124998E+03  0.27217802142E+03  0.79812380278E+02 0.  0.
         23    2    1    2    0    0 -0.70095786607E+02 -0.76267104668E+02  0.24624715487E+03  0.28226571254E+03  0.91138250137E+02 0.  0.
        -11    1    3    3    0    0  0.20841664038E+02  0.17829503339E+02  0.54409318549E+02  0.60931437650E+02  0.00000000000E+00 0.  1.
         12    1    3    3    0    0 -0.26917327418E+02 -0.47789000949E+02  0.20400193143E+03  0.21124658377E+03  0.00000000000E+00 0. -1.
        -13    1    4    4    0    0 -0.84623680590E+01 -0.52443115215E+02  0.42374522011E+02  0.67952131109E+02  0.00000000000E+00 0. -1.
         13    1    4    4    0    0 -0.61633418548E+02 -0.23823989453E+02  0.20387263286E+03  0.21431358143E+03  0.00000000000E+00 0.  1.
          1    1    1    2  501    0  0.76171449987E+02  0.10622660228E+03  0.43902160830E+03  0.45806784801E+03  0.00000000000E+00 0. -1.
<scales pt_clust_5="13000.00000" pt_clust_6="13000.00000" pt_clust_7="13000.00000" pt_clust_8="13000.00000" pt_clust_9="13000.00000"></scales>
<clustering>
<clus scale="   79.812">  5  6 -1 -1</clus>
<clus scale="   85.466">  1  5  2 -1</clus>
<clus scale="   91.138">  7  8 -1 -1</clus>
<clus scale="  113.439">  7  9 -1 -1</clus>
<clus scale="  280.179">  2  5  1 -1</clus>
</clustering>
</event>
<event>
 9    2  0.4178938E-005  0.4036673E+03  0.7546771E-02  0.1096510E+00
         21   -1    0    0  501  502  0.00000000000E+00  0.00000000000E+00  0.81328391227E+02  0.81328391227E+02  0.00000000000E+00 0.  1.
          2   -1    0    0  502    0 -0.00000000000E+00 -0.00000000000E+00 -0.75545804693E+03  0.75545804693E+03  0.00000000000E+00 0. -1.
         24    2    1    2    0    0  0.32291495730E+02  0.31253647597E+02 -0.14121071248E+03  0.16824335526E+03  0.79660718586E+02 0.  0.
         23    2    1    2    0    0  0.45202190286E+02  0.16182660880E+03 -0.30922517304E+03  0.36305305098E+03  0.89197650525E+02 0.  0.
        -13    1    3    3    0    0 -0.13318711849E+02 -0.18297424866E+02 -0.23481371432E+02  0.32612246877E+02  0.00000000000E+00 0.  1.
         14    1    3    3    0    0  0.45610207579E+02  0.49551072463E+02 -0.11772934105E+03  0.13563110839E+03  0.00000000000E+00 0. -1.
        -13    1    4    4    0    0  0.23382394677E+02  0.15002593341E+03 -0.20033761248E+03  0.25137556773E+03  0.00000000000E+00 0.  1.
         13    1    4    4    0    0  0.21819795609E+02  0.11800675392E+02 -0.10888756056E+03  0.11167748325E+03  0.00000000000E+00 0. -1.
          1    1    1    2  501    0 -0.77493686016E+02 -0.19308025640E+03 -0.22369377018E+03  0.30549003192E+03  0.00000000000E+00 0. -1.
<scales pt_clust_5="13000.00000" pt_clust_6="13000.00000" pt_clust_7="13000.00000" pt_clust_8="13000.00000" pt_clust_9="13000.00000"></scales>
<clustering>
<clus scale="   79.661">  5  6 -1 -1</clus>
<clus scale="   89.198">  7  8 -1 -1</clus>
<clus scale="   91.462">  2  5  1 -1</clus>
<clus scale="  190.150">  7  9 -1 -1</clus>
<clus scale="  403.667">  1  5  2 -1</clus>
</clustering>
</event>
<event>
 9    2  0.4178938E-005  0.6804437E+03  0.7546771E-02  0.1000158E+00
         -1   -1    0    0    0  501 -0.00000000000E+00  0.00000000000E+00  0.41116998777E+03  0.41116998777E+03  0.00000000000E+00 0.  1.
         21   -1    0    0  501  502  0.00000000000E+00 -0.00000000000E+00 -0.58824952101E+03  0.58824952101E+03  0.00000000000E+00 0.  1.
         24    2    1    2    0    0  0.24491275172E+03  0.15918607519E+03 -0.44318358998E+02  0.30614527242E+03  0.80239319475E+02 0.  0.
         23    2    1    2    0    0  0.96795974636E+02 -0.17950712813E+03  0.13138608537E+03  0.26089526645E+03  0.95977949907E+02 0.  0.
        -11    1    3    3    0    0  0.20724215661E+03  0.14160299921E+03 -0.82943076921E+01  0.25113644977E+03  0.00000000000E+00 0.  1.
         12    1    3    3    0    0  0.37670595110E+02  0.17583075979E+02 -0.36024051306E+02  0.55008822650E+02  0.00000000000E+00 0. -1.
        -11    1    4    4    0    0 -0.42441511554E+01 -0.63006918889E+02  0.71676712788E+02  0.95527146943E+02  0.00000000000E+00 0. -1.
         11    1    4    4    0    0  0.10104012579E+03 -0.11650020924E+03  0.59709372585E+02  0.16536811950E+03  0.00000000000E+00 0.  1.
         -2    1    1    2    0  502 -0.34170872636E+03  0.20321052947E+02 -0.26414725961E+03  0.43237896991E+03  0.00000000000E+00 0.  1.
<scales pt_clust_5="13000.00000" pt_clust_6="13000.00000" pt_clust_7="13000.00000" pt_clust_8="13000.00000" pt_clust_9="13000.00000"></scales>
<clustering>
<clus scale="   80.239">  5  6 -1 -1</clus>
<clus scale="   95.978">  7  8 -1 -1</clus>
<clus scale="  302.920">  1  5  2 -1</clus>
<clus scale="  276.712">  7  9 -1 -1</clus>
<clus scale="  680.444">  2  5  1 -1</clus>
</clustering>
</event>
<event>
 9    2  0.4178938E-005  0.5764074E+03  0.7546771E-02  0.1005391E+00
         21   -1    0    0  501  502  0.00000000000E+00  0.00000000000E+00  0.12899044949E+04  0.12899044949E+04  0.00000000000E+00 0. -1.
         -3   -1    0    0    0  501 -0.00000000000E+00 -0.00000000000E+00 -0.21905488271E+03  0.21905488271E+03  0.00000000000E+00 0.  1.
         24    2    1    2    0    0  0.18286338851E+03  0.37217999245E+03  0.71744109152E+03  0.83283583550E+03  0.83287714895E+02 0.  0.
         23    2    1    2    0    0  0.36954308836E+02  0.33813088973E+02  0.12084402746E+03  0.15917437078E+03  0.90687680592E+02 0.  0.
        -11    1    3    3    0    0 -0.44694776881E+01  0.32248337055E+02  0.35440240433E+02  0.48124236259E+02  0.00000000000E+00 0.  1.
         12    1    3    3    0    0  0.18733286620E+03  0.33993165539E+03  0.68200085109E+03  0.78471159924E+03  0.00000000000E+00 0. -1.
        -13    1    4    4    0    0 -0.17899816659E+02  0.24715450949E+02  0.53355899887E+01  0.30979436285E+02  0.00000000000E+00 0.  1.
         13    1    4    4    0    0  0.54854125495E+02  0.90976380246E+01  0.11550843747E+03  0.12819493449E+03  0.00000000000E+00 0. -1.
         -4    1    1    2    0  502 -0.21981769734E+03 -0.40599308142E+03  0.23256449317E+03  0.51694917130E+03  0.00000000000E+00 0.  1.
<scales pt_clust_5="13000.00000" pt_clust_6="13000.00000" pt_clust_7="13000.00000" pt_clust_8="13000.00000" pt_clust_9="13000.00000"></scales>
<clustering>
<clus scale="   83.288">  5  6 -1 -1</clus>
<clus scale="   90.688">  7  8 -1 -1</clus>
<clus scale="  422.959">  2  5  1 -1</clus>
<clus scale="   97.619">  7  9 -1 -1</clus>
<clus scale="  576.407">  1  5  2 -1</clus>
</clustering>
</event>
<event>
 9    2  0.4178938E-005  0.4775150E+03  0.7546771E-02  0.1050391E+00
         21   -1    0    0  501  502  0.00000000000E+00  0.00000000000E+00  0.33629412860E+03  0.33629412860E+03  0.00000000000E+00 0. -1.
          2   -1    0    0  502    0 -0.00000000000E+00 -0.00000000000E+00 -0.73453019038E+03  0.73453019038E+03  0.00000000000E+00 0. -1.
         24    2    1    2    0    0  0.16898104525E+03 -0.54100185578E+02 -0.53898340047E+03  0.57299869836E+03  0.79642818942E+02 0.  0.
         23    2    1    2    0    0 -0.23102422324E+03  0.19971996157E+03  0.89165597065E+02  0.33134693980E+03  0.92628483977E+02 0.  0.
        -11    1    3    3    0    0  0.82331780717E+02 -0.64127608526E+02 -0.24379345996E+03  0.26519073025E+03  0.00000000000E+00 0.  1.
         12    1    3    3    0    0  0.86649264535E+02  0.10027422947E+02 -0.29518994051E+03  0.30780796811E+03  0.00000000000E+00 0. -1.
        -13    1    4    4    0    0 -0.84211074796E+02  0.55845055016E+02  0.73972541642E+02  0.12522824045E+03  0.00000000000E+00 0. -1.
         13    1    4    4    0    0 -0.14681314845E+03  0.14387490655E+03  0.15193055423E+02  0.20611869936E+03  0.00000000000E+00 0.  1.
          1    1    1    2  501    0  0.62043177989E+02 -0.14561977599E+03  0.51581741621E+02  0.16647868081E+03  0.00000000000E+00 0. -1.
<scales pt_clust_5="13000.00000" pt_clust_6="13000.00000" pt_clust_7="13000.00000" pt_clust_8="13000.00000" pt_clust_9="13000.00000"></scales>
<clustering>
<clus scale="   79.643">  5  6 -1 -1</clus>
<clus scale="   92.628">  7  8 -1 -1</clus>
<clus scale="  158.286">  7  9 -1 -1</clus>
<clus scale="  194.485">  2  5  1 -1</clus>
<clus scale="  477.515">  1  5  2 -1</clus>
</clustering>
</event>
<event>
 9    2  0.4178938E-005  0.5200034E+03  0.7546771E-02  0.1056347E+00
          2   -1    0    0  502    0 -0.00000000000E+00  0.00000000000E+00  0.13565717224E+04  0.13565717224E+04  0.00000000000E+00 0. -1.
         21   -1    0    0  501  502  0.00000000000E+00 -0.00000000000E+00 -0.80072807456E+02  0.80072807456E+02  0.00000000000E+00 0. -1.
         24    2    1    2    0    0 -0.79347080481E+02 -0.57507761765E+02  0.15544367254E+03  0.20085797320E+03  0.81105414243E+02 0.  0.
         23    2    1    2    0    0  0.12267241708E+03  0.25506824044E+03  0.82415108513E+03  0.87653830527E+03  0.94794832640E+02 0.  0.
        -13    1    3    3    0    0 -0.67482732862E+01 -0.54107618718E+02  0.66503332793E+02  0.85999225975E+02  0.00000000000E+00 0.  1.
         14    1    3    3    0    0 -0.72598807195E+02 -0.34001430468E+01  0.88940339747E+02  0.11485874722E+03  0.00000000000E+00 0. -1.
        -13    1    4    4    0    0  0.11181495209E+03  0.13896401849E+03  0.56191192070E+03  0.58954099821E+03  0.00000000000E+00 0. -1.
         13    1    4    4    0    0  0.10857464991E+02  0.11610422195E+03  0.26223916444E+03  0.28699730707E+03  0.00000000000E+00 0.  1.
          1    1    1    2  501    0 -0.43325336595E+02 -0.19756047867E+03  0.29690415731E+03  0.35924825143E+03  0.00000000000E+00 0. -1.
<scales pt_clust_5="13000.00000" pt_clust_6="13000.00000" pt_clust_7="13000.00000" pt_clust_8="13000.00000" pt_clust_9="13000.00000"></scales>
<clustering>
<clus scale="   81.105">  5  6 -1 -1</clus>
<clus scale="   94.795">  7  8 -1 -1</clus>
<clus scale="  127.205">  1  5  2 -1</clus>
<clus scale="  223.365">  7  9 -1 -1</clus>
<clus scale="  520.003">  2  5  1 -1</clus>
</clustering>
</event>
<event>
 9    2  0.4178938E-005  0.1200325E+03  0.7546771E-02  0.1253467E+00
          2   -1    0    0  502    0 -0.00000000000E+00  0.00000000000E+00  0.10552781106E+04  0.10552781106E+04  0.00000000000E+00 0. -1.
         21   -1    0    0  501  502  0.00000000000E+00 -0.00000000000E+00 -0.35616255388E+02  0.35616255388E+02  0.00000000000E+00 0.  1.
         24    2    1    2    0    0 -0.42202024153E+02  0.22719465690E+02  0.94398469361E+03  0.94899710823E+03  0.84801089072E+02 0.  0.
         23    2    1    2    0    0  0.34278779202E+02  0.20177075205E+01  0.66459509119E+02  0.11433513397E+03  0.86467049563E+02 0.  0.
        -11    1    3    3    0    0 -0.14603493049E+02 -0.28911641851E+02  0.18983938225E+03  0.19258280323E+03  0.00000000000E+00 0.  1.
         12    1    3    3    0    0 -0.27598531104E+02  0.51631107540E+02  0.75414531135E+03  0.75641430501E+03  0.00000000000E+00 0. -1.
        -11    1    4    4    0    0  0.49765999852E+02 -0.13998709881E+02  0.74473326944E+02  0.90658121785E+02  0.00000000000E+00 0. -1.
         11    1    4    4    0    0 -0.15487220649E+02  0.16016417401E+02 -0.80138178247E+01  0.23677012184E+02  0.00000000000E+00 0.  1.
          1    1    1    2  501    0  0.79232449507E+01 -0.24737173210E+02  0.92176524533E+01  0.27562123752E+02  0.00000000000E+00 0. -1.
<scales pt_clust_5="13000.00000" pt_clust_6="13000.00000" pt_clust_7="13000.00000" pt_clust_8="13000.00000" pt_clust_9="13000.00000"></scales>
<clustering>
<clus scale="   84.801">  5  6 -1 -1</clus>
<clus scale="   86.467">  7  8 -1 -1</clus>
<clus scale="   25.975">  7  9 -1 -1</clus>
<clus scale="   97.408">  1  5  2 -1</clus>
<clus scale="  120.032">  2  5  1 -1</clus>
</clustering>
</event>
<event>
 9    2  0.4178938E-005  0.4006901E+03  0.7546771E-02  0.1047139E+00
         -1   -1    0    0    0  501 -0.00000000000E+00  0.00000000000E+00  0.13047299750E+03  0.13047299750E+03  0.00000000000E+00 0.  1.
         21   -1    0    0  501  502  0.00000000000E+00 -0.00000000000E+00 -0.11830389279E+04  0.11830389279E+04  0.00000000000E+00 0.  1.
         24    2    1    2    0    0  0.28238181850E+03  0.21061875106E+03 -0.34043939155E+03  0.49639700814E+03  0.80070348176E+02 0.  0.
         23    2    1    2    0    0 -0.22781019864E+03 -0.18419465423E+03 -0.68504453981E+03  0.75070912488E+03  0.91940260002E+02 0.  0.
        -11    1    3    3    0    0  0.22378962833E+03  0.20012758140E+03 -0.30010267628E+03  0.42449318357E+03  0.00000000000E+00 0.  1.
         12    1    3    3    0    0  0.58592190168E+02  0.10491169655E+02 -0.40336715275E+02  0.71903824575E+02  0.00000000000E+00 0. -1.
        -13    1    4    4    0    0 -0.22980552029E+03 -0.15864832883E+03 -0.64858114055E+03  0.70614259556E+03  0.00000000000E+00 0. -1.
         13    1    4    4    0    0  0.19953216422E+01 -0.25546325405E+02 -0.36463399261E+02  0.44566529322E+02  0.00000000000E+00 0.  1.
         -2    1    1    2    0  502 -0.54571619853E+02 -0.26424096823E+02 -0.27081998996E+02  0.66405792337E+02  0.00000000000E+00 0.  1.
<scales pt_clust_5="13000.00000" pt_clust_6="13000.00000" pt_clust_7="13000.00000" pt_clust_8="13000.00000" pt_clust_9="13000.00000"></scales>
<clustering>
<clus scale="   80.070">  5  6 -1 -1</clus>
<clus scale="   91.940">  7  8 -1 -1</clus>
<clus scale="   60.632">  7  9 -1 -1</clus>
<clus scale="  361.263">  1  5  2 -1</clus>
<clus scale="  400.690">  2  5  1 -1</clus>
</clustering>
</event>
<event>
 9    2  0.4178938E-005  0.5310663E+03  0.7546771E-02  0.1017107E+00
         21   -1    0    0  501  502  0.00000000000E+00  0.00000000000E+00  0.14259184401E+03  0.14259184401E+03  0.00000000000E+00 0.  1.
          2   -1    0    0  502    0 -0.00000000000E+00 -0.00000000000E+00 -0.14457985857E+04  0.14457985857E+04  0.00000000000E+00 0. -1.
         24    2    1    2    0    0  0.18334914103E+03 -0.31889512822E+03 -0.53094407685E+03  0.65114924271E+03  0.82357229343E+02 0.  0.
         23    2    1    2    0    0 -0.10265811057E+03 -0.55150213994E+02 -0.17345324957E+03  0.22661211620E+03  0.87674327222E+02 0.  0.
        -11    1    3    3    0    0  0.11179725813E+03 -0.24040542581E+03 -0.32495704758E+03  0.41939298809E+03  0.00000000000E+00 0.  1.
         12    1    3    3    0    0  0.71551882894E+02 -0.78489702409E+02 -0.20598702927E+03  0.23175625462E+03  0.00000000000E+00 0. -1.
        -13    1    4    4    0    0 -0.14307800331E+01 -0.42035946054E+02 -0.35737054235E+02  0.55192435510E+02  0.00000000000E+00 0.  1.
         13    1    4    4    0    0 -0.10122733053E+03 -0.13114267940E+02 -0.13771619533E+03  0.17141968069E+03  0.00000000000E+00 0. -1.
          1    1    1    2  501    0 -0.80691030458E+02  0.37404534222E+03 -0.59880941527E+03  0.71062907078E+03  0.00000000000E+00 0. -1.
<scales pt_clust_5="13000.00000" pt_clust_6="13000.00000" pt_clust_7="13000.00000" pt_clust_8="13000.00000" pt_clust_9="13000.00000"></scales>
<clustering>
<clus scale="   82.357">  5  6 -1 -1</clus>
<clus scale="   87.674">  7  8 -1 -1</clus>
<clus scale="  376.953">  2  5  1 -1</clus>
<clus scale="  142.873">  7  9 -1 -1</clus>
<clus scale="  531.066">  1  5  2 -1</clus>
</clustering>
</event>
<event>
 9    2  0.4178938E-005  0.1652697E+03  0.7546771E-02  0.1212144E+00
         21   -1    0    0  501  502  0.00000000000E+00  0.00000000000E+00  0.92161408681E+02  0.92161408681E+02  0.00000000000E+00 0.  1.
         -1   -1    0    0    0  501 -0.00000000000E+00 -0.00000000000E+00 -0.18208849484E+03  0.18208849484E+03  0.00000000000E+00 0.  1.
         24    2    1    2    0    0  0.40957694929E+02 -0.44964452463E+01 -0.60977726949E+02  0.10646386282E+03  0.76931918660E+02 0.  0.
         23    2    1    2    0    0 -0.12100145173E+02  0.75210838084E+01  0.34091103094E+02  0.98388587549E+02  0.91187338128E+02 0.  0.
        -11    1    3    3    0    0  0.59229535469E+02 -0.20614924809E+02 -0.47022737796E+02  0.78385272000E+02  0.00000000000E+00 0.  1.
         12    1    3    3    0    0 -0.18271840539E+02  0.16118479563E+02 -0.13954989153E+02  0.28078590819E+02  0.00000000000E+00 0. -1.
        -13    1    4    4    0    0 -0.45909109942E+02  0.58876184490E+01  0.43224242603E+02  0.63329657944E+02  0.00000000000E+00 0.  1.
         13    1    4    4    0    0  0.33808964769E+02  0.16334653595E+01 -0.91331395084E+01  0.35058929606E+02  0.00000000000E+00 0. -1.
         -2    1    1    2    0  502 -0.28857549756E+02 -0.30246385622E+01 -0.63040462304E+02  0.69397453151E+02  0.00000000000E+00 0.  1.
<scales pt_clust_5="13000.00000" pt_clust_6="13000.00000" pt_clust_7="13000.00000" pt_clust_8="13000.00000" pt_clust_9="13000.00000"></scales>
<clustering>
<clus scale="   76.932">  5  6 -1 -1</clus>
<clus scale="   87.271">  2  5  1 -1</clus>
<clus scale="   91.187">  7  8 -1 -1</clus>
<clus scale="    6.187">  7  9 -1 -1</clus>
<clus scale="  165.270">  1  5  2 -1</clus>
</clustering>
</event>
<event>
 9    2  0.4178938E-005  0.6083924E+03  0.7546771E-02  0.1021312E+00
         21   -1    0    0  501  502  0.00000000000E+00  0.00000000000E+00  0.74838990480E+03  0.74838990480E+03  0.00000000000E+00 0.  1.
          4   -1    0    0  502    0 -0.00000000000E+00 -0.00000000000E+00 -0.41341231315E+03  0.41341231315E+03  0.00000000000E+00 0. -1.
         24    2    1    2    0    0  0.85448065610E+02 -0.18746578518E+03  0.48702492881E+03  0.53469802989E+03  0.79144863135E+02 0.  0.
         23    2    1    2    0    0  0.89062221991E+02  0.10857468037E+03 -0.32700560197E+03  0.36770480232E+03  0.92485768232E+02 0.  0.
        -13    1    3    3    0    0  0.47148532586E+02 -0.86385144138E+02  0.32775500125E+03  0.34221151076E+03  0.00000000000E+00 0.  1.
         14    1    3    3    0    0  0.38299533024E+02 -0.10108064104E+03  0.15926992756E+03  0.19248651913E+03  0.00000000000E+00 0. -1.
        -11    1    4    4    0    0  0.63798803614E+02  0.74592081900E+02 -0.30412902657E+03  0.31957586083E+03  0.00000000000E+00 0. -1.
         11    1    4    4    0    0  0.25263418377E+02  0.33982598466E+02 -0.22876575403E+02  0.48128941488E+02  0.00000000000E+00 0.  1.
          3    1    1    2  501    0 -0.17451028760E+03  0.78891104810E+02  0.17495826481E+03  0.25939938574E+03  0.00000000000E+00 0. -1.
<scales pt_clust_5="13000.00000" pt_clust_6="13000.00000" pt_clust_7="13000.00000" pt_clust_8="13000.00000" pt_clust_9="13000.00000"></scales>
<clustering>
<clus scale="   79.145">  5  6 -1 -1</clus>
<clus scale="   92.486">  7  8 -1 -1</clus>
<clus scale="  191.514">  7  9 -1 -1</clus>
<clus scale="  220.701">  2  5  1 -1</clus>
<clus scale="  608.392">  1  5  2 -1</clus>
</clustering>
</event>
<event>
 9    2  0.4178938E-005  0.4438920E+03  0.7546771E-02  0.1046508E+00
          2   -1    0    0  502    0 -0.00000000000E+00  0.00000000000E+00  0.16622536989E+04  0.16622536989E+04  0.00000000000E+00 0. -1.
         21   -1    0    0  501  502  0.00000000000E+00 -0.00000000000E+00 -0.84038933829E+02  0.84038933829E+02  0.00000000000E+00 0. -1.
         24    2    1    2    0    0  0.15045990469E+03  0.21010156638E+03  0.86398806409E+03  0.90536466687E+03  0.80180758334E+02 0.  0.
         23    2    1    2    0    0  0.70759178489E+02 -0.17019207077E+03  0.24443458548E+03  0.32012542901E+03  0.93593917698E+02 0.  0.
        -13    1    3    3    0    0  0.36709457697E+02  0.15618209731E+02  0.76468855236E+02  0.86249629452E+02  0.00000000000E+00 0.  1.
         14    1    3    3    0    0  0.11375044700E+03  0.19448335665E+03  0.78751920886E+03  0.81911503742E+03  0.00000000000E+00 0. -1.
        -13    1    4    4    0    0  0.79429171892E+02 -0.14426197996E+03  0.15335101024E+03  0.22502676408E+03  0.00000000000E+00 0. -1.
         13    1    4    4    0    0 -0.86699934028E+01 -0.25930090811E+02  0.91083575232E+02  0.95098664934E+02  0.00000000000E+00 0.  1.
          1    1    1    2  501    0 -0.22121908318E+03 -0.39909495615E+02  0.46979211554E+03  0.52080253689E+03  0.00000000000E+00 0. -1.
<scales pt_clust_5="13000.00000" pt_clust_6="13000.00000" pt_clust_7="13000.00000" pt_clust_8="13000.00000" pt_clust_9="13000.00000"></scales>
<clustering>
<clus scale="   80.181">  5  6 -1 -1</clus>
<clus scale="   93.594">  7  8 -1 -1</clus>
<clus scale="  224.790">  7  9 -1 -1</clus>
<clus scale="  270.573">  1  5  2 -1</clus>
<clus scale="  443.892">  2  5  1 -1</clus>
</clustering>
</event>
<event>
 9    2  0.4178938E-005  0.2079234E+03  0.7546771E-02  0.1158562E+00
         21   -1    0    0  501  502  0.00000000000E+00  0.00000000000E+00  0.57827110760E+03  0.57827110760E+03  0.00000000000E+00 0. -1.
          4   -1    0    0  502    0 -0.00000000000E+00 -0.00000000000E+00 -0.60028750475E+02  0.60028750475E+02  0.00000000000E+00 0. -1.
         24    2    1    2    0    0 -0.75959671989E+02 -0.10108449558E+03  0.11566778238E+03  0.18520115388E+03  0.70231648860E+02 0.  0.
         23    2    1    2    0    0 -0.13183888075E+02  0.52099816263E+02  0.18110607410E+03  0.20938910265E+03  0.90311574411E+02 0.  0.
        -11    1    3    3    0    0  0.14751950281E+01 -0.51490052412E+02  0.53091117048E+02  0.73973430413E+02  0.00000000000E+00 0.  1.
         12    1    3    3    0    0 -0.77434867017E+02 -0.49594443173E+02  0.62576665336E+02  0.11122772347E+03  0.00000000000E+00 0. -1.
        -11    1    4    4    0    0 -0.27764771107E+02 -0.58205495588E+01  0.12238682260E+03  0.12563158702E+03  0.00000000000E+00 0. -1.
         11    1    4    4    0    0  0.14580883033E+02  0.57920365822E+02  0.58719251498E+02  0.83757515623E+02  0.00000000000E+00 0.  1.
          3    1    1    2  501    0  0.89143560064E+02  0.48984679321E+02  0.22146850065E+03  0.24370960155E+03  0.00000000000E+00 0. -1.
<scales pt_clust_5="13000.00000" pt_clust_6="13000.00000" pt_clust_7="13000.00000" pt_clust_8="13000.00000" pt_clust_9="13000.00000"></scales>
<clustering>
<clus scale="   70.232">  5  6 -1 -1</clus>
<clus scale="   90.312">  7  8 -1 -1</clus>
<clus scale="  101.716">  7  9 -1 -1</clus>
<clus scale="  144.639">  2  5  1 -1</clus>
<clus scale="  207.923">  1  5  2 -1</clus>
</clustering>
</event>
<event>
 9    2  0.4178938E-005  0.2735253E+03  0.7546771E-02  0.1136826E+00
          2   -1    0    0  502    0 -0.00000000000E+00  0.00000000000E+00  0.17958386580E+04  0.17958386580E+04  0.00000000000E+00 0. -1.
         21   -1    0    0  501  502  0.00000000000E+00 -0.00000000000E+00 -0.20628627867E+02  0.20628627867E+02  0.00000000000E+00 0.  1.
         24    2    1    2    0    0  0.51836336930E+02 -0.46574798887E+02  0.63705011504E+03  0.64590158600E+03  0.80621287558E+02 0.  0.
         23    2    1    2    0    0 -0.12669857051E+03 -0.11934746707E+02  0.46586364031E+03  0.49158852645E+03  0.91844335806E+02 0.  0.
        -11    1    3    3    0    0  0.66764363485E+02 -0.28163272457E+02  0.32630612300E+03  0.33425489683E+03  0.00000000000E+00 0.  1.
         12    1    3    3    0    0 -0.14928026554E+02 -0.18411526430E+02  0.31074399205E+03  0.31164668918E+03  0.00000000000E+00 0. -1.
        -11    1    4    4    0    0 -0.64499318627E+02 -0.43878914450E+02  0.32621244818E+03  0.33541031973E+03  0.00000000000E+00 0.  1.
         11    1    4    4    0    0 -0.62199251885E+02  0.31944167743E+02  0.13965119213E+03  0.15617820671E+03  0.00000000000E+00 0. -1.
          1    1    1    2  501    0  0.74862233581E+02  0.58509545594E+02  0.67229627477E+03  0.67897717341E+03  0.00000000000E+00 0. -1.
<scales pt_clust_5="13000.00000" pt_clust_6="13000.00000" pt_clust_7="13000.00000" pt_clust_8="13000.00000" pt_clust_9="13000.00000"></scales>
<clustering>
<clus scale="   80.621">  5  6 -1 -1</clus>
<clus scale="   91.844">  7  8 -1 -1</clus>
<clus scale="   95.014">  7  9 -1 -1</clus>
<clus scale="  106.565">  1  5  2 -1</clus>
<clus scale="  273.525">  2  5  1 -1</clus>
</clustering>
</event>
<event>
 9    2  0.4178938E-005  0.2694386E+03  0.7546771E-02  0.1121018E+00
          2   -1    0    0  502    0 -0.00000000000E+00  0.00000000000E+00  0.83929865999E+03  0.83929865999E+03  0.00000000000E+00 0. -1.
         21   -1    0    0  501  502  0.00000000000E+00 -0.00000000000E+00 -0.60185518960E+02  0.60185518960E+02  0.00000000000E+00 0.  1.
         24    2    1    2    0    0 -0.11648397283E+03  0.83829096994E+02  0.18767808760E+03  0.24956681227E+03  0.80403331992E+02 0.  0.
         23    2    1    2    0    0 -0.18038113282E+02 -0.91546059366E+02  0.23918743663E+03  0.27277796711E+03  0.92147354736E+02 0.  0.
        -11    1    3    3    0    0 -0.12830605928E+03  0.70079918159E+02  0.17038416726E+03  0.22450925199E+03  0.00000000000E+00 0.  1.
         12    1    3    3    0    0  0.11822086450E+02  0.13749178835E+02  0.17293920340E+02  0.25057560284E+02  0.00000000000E+00 0. -1.
        -13    1    4    4    0    0 -0.45034362471E+02 -0.31321699627E+02  0.16298279748E+03  0.17196666812E+03  0.00000000000E+00 0.  1.
         13    1    4    4    0    0  0.26996249189E+02 -0.60224359739E+02  0.76204639148E+02  0.10081129899E+03  0.00000000000E+00 0. -1.
          1    1    1    2  501    0  0.13452208611E+03  0.77169623716E+01  0.35224761681E+03  0.37713939957E+03  0.00000000000E+00 0. -1.
<scales pt_clust_5="13000.00000" pt_clust_6="13000.00000" pt_clust_7="13000.00000" pt_clust_8="13000.00000" pt_clust_9="13000.00000"></scales>
<clustering>
<clus scale="   80.403">  5  6 -1 -1</clus>
<clus scale="   92.147">  7  8 -1 -1</clus>
<clus scale="  134.743">  7  9 -1 -1</clus>
<clus scale="  164.501">  1  5  2 -1</clus>
<clus scale="  269.439">  2  5  1 -1</clus>
</clustering>
</event>
<event>
 9    2  0.4178938E-005  0.1997826E+03  0.7546771E-02  0.1180849E+00
         21   -1    0    0  501  502  0.00000000000E+00  0.00000000000E+00  0.78659630074E+02  0.78659630074E+02  0.00000000000E+00 0.  1.
         -1   -1    0    0    0  501 -0.00000000000E+00 -0.00000000000E+00 -0.32111575101E+03  0.32111575101E+03  0.00000000000E+00 0.  1.
         24    2    1    2    0    0 -0.50123194142E+02  0.27075954856E+02 -0.15122159265E+03  0.18014656232E+03  0.79620172767E+02 0.  0.
         23    2    1    2    0    0 -0.30333486949E+01 -0.72858082471E+02 -0.93147150613E+02  0.14944848406E+03  0.91328836266E+02 0.  0.
        -11    1    3    3    0    0 -0.38553062898E+02  0.22733816961E+02 -0.15924321251E+03  0.16541331815E+03  0.00000000000E+00 0.  1.
         12    1    3    3    0    0 -0.11570131244E+02  0.43421378954E+01  0.80216198622E+01  0.14733244168E+02  0.00000000000E+00 0. -1.
        -11    1    4    4    0    0  0.34930342512E+02 -0.66468762599E+02 -0.77449990602E+02  0.10787365885E+03  0.00000000000E+00 0. -1.
         11    1    4    4    0    0 -0.37963691207E+02 -0.63893198720E+01 -0.15697160011E+02  0.41574825206E+02  0.00000000000E+00 0.  1.
         -2    1    1    2    0  502  0.53156542837E+02  0.45782127614E+02  0.19126223241E+01  0.70180334706E+02  0.00000000000E+00 0.  1.
<scales pt_clust_5="13000.00000" pt_clust_6="13000.00000" pt_clust_7="13000.00000" pt_clust_8="13000.00000" pt_clust_9="13000.00000"></scales>
<clustering>
<clus scale="   79.620">  5  6 -1 -1</clus>
<clus scale="   91.329">  7  8 -1 -1</clus>
<clus scale="   70.154">  7  9 -1 -1</clus>
<clus scale="   97.902">  2  5  1 -1</clus>
<clus scale="  199.783">  1  5  2 -1</clus>
</clustering>
</event>
<event>
 9    2  0.4178938E-005  0.3500036E+03  0.7546771E-02  0.1096953E+00
         -3   -1    0    0    0  501 -0.00000000000E+00  0.00000000000E+00  0.44535875839E+03  0.44535875839E+03  0.00000000000E+00 0.  1.
         21   -1    0    0  501  502  0.00000000000E+00 -0.00000000000E+00 -0.15659210312E+03  0.15659210312E+03  0.00000000000E+00 0. -1.
         24    2    1    2    0    0  0.54022315320E+02 -0.10122687387E+03  0.19555582001E+03  0.23974814708E+03  0.77921786061E+02 0.  0.
         23    2    1    2    0    0 -0.14154631102E+03  0.55285876492E+02 -0.53944795263E+02  0.18492946587E+03  0.90537175280E+02 0.  0.
        -11    1    3    3    0    0  0.11309810058E+02 -0.53727012298E+02  0.15411746144E+03  0.16360530424E+03  0.00000000000E+00 0.  1.
         12    1    3    3    0    0  0.42712505262E+02 -0.47499861574E+02  0.41438358567E+02  0.76142842842E+02  0.00000000000E+00 0. -1.
        -11    1    4    4    0    0 -0.87163406754E+02  0.75997100835E+02 -0.51755320363E+02  0.12669503541E+03  0.00000000000E+00 0.  1.
         11    1    4    4    0    0 -0.54382904263E+02 -0.20711224344E+02 -0.21894749003E+01  0.58234430454E+02  0.00000000000E+00 0. -1.
         -4    1    1    2    0  502  0.87523995697E+02  0.45940997380E+02  0.14715563053E+03  0.17727324857E+03  0.00000000000E+00 0.  1.
<scales pt_clust_5="13000.00000" pt_clust_6="13000.00000" pt_clust_7="13000.00000" pt_clust_8="13000.00000" pt_clust_9="13000.00000"></scales>
<clustering>
<clus scale="   77.922">  5  6 -1 -1</clus>
<clus scale="   90.537">  7  8 -1 -1</clus>
<clus scale="   98.849">  7  9 -1 -1</clus>
<clus scale="  138.698">  1  5  2 -1</clus>
<clus scale="  350.004">  2  5  1 -1</clus>
</clustering>
</event>
<event>
 9    2  0.4178938E-005  0.3195815E+03  0.7546771E-02  0.1106209E+00
         21   -1    0    0  501  502  0.00000000000E+00  0.00000000000E+00  0.14586022696E+04  0.14586022696E+04  0.00000000000E+00 0. -1.
          4   -1    0    0  502    0 -0.00000000000E+00 -0.00000000000E+00 -0.72794287327E+02  0.72794287327E+02  0.00000000000E+00 0. -1.
         24    2    1    2    0    0 -0.11692481347E+03 -0.17332178474E+02  0.10786419321E+04  0.10881321797E+04  0.81187477025E+02 0.  0.
         23    2    1    2    0    0 -0.61126393538E+01 -0.76985711527E+02  0.26275915345E+02  0.12243210480E+03  0.91296398725E+02 0.  0.
        -11    1    3    3    0    0 -0.53658418485E+02 -0.30958354860E+02  0.27512101157E+03  0.28200924917E+03  0.00000000000E+00 0.  1.
         12    1    3    3    0    0 -0.63266394990E+02  0.13626176386E+02  0.80352092056E+03  0.80612293057E+03  0.00000000000E+00 0. -1.
        -11    1    4    4    0    0  0.37954648577E+02 -0.25174788060E+02  0.29626366296E+02  0.54332742269E+02  0.00000000000E+00 0.  1.
         11    1    4    4    0    0 -0.44067287931E+02 -0.51810923466E+02 -0.33504509510E+01  0.68099362534E+02  0.00000000000E+00 0. -1.
          3    1    1    2  501    0  0.12303745283E+03  0.94317890001E+02  0.28089013477E+03  0.32083227235E+03  0.00000000000E+00 0. -1.
<scales pt_clust_5="13000.00000" pt_clust_6="13000.00000" pt_clust_7="13000.00000" pt_clust_8="13000.00000" pt_clust_9="13000.00000"></scales>
<clustering>
<clus scale="   81.187">  5  6 -1 -1</clus>
<clus scale="   91.296">  7  8 -1 -1</clus>
<clus scale="  143.399">  2  5  1 -1</clus>
<clus scale="  125.833">  7  9 -1 -1</clus>
<clus scale="  319.581">  1  5  2 -1</clus>
</clustering>
</event>
<event>
 9    2  0.6589918E-005  0.3418939E+03  0.7546771E-02  0.1076948E+00
         21   -1    0    0  501  502  0.00000000000E+00  0.00000000000E+00  0.43780115288E+03  0.43780115288E+03  0.00000000000E+00 0. -1.
          2   -1    0    0  502    0 -0.00000000000E+00 -0.00000000000E+00 -0.25772472980E+03  0.25772472980E+03  0.00000000000E+00 0. -1.
         24    2    1    2    0    0 -0.20475122202E+03  0.13087461768E+03  0.23939490052E+03  0.34852429396E+03  0.71470529696E+02 0.  0.
         23    2    1    2    0    0  0.14835257277E+02  0.98810651625E+01  0.17711853583E+02  0.98377559678E+02  0.95114216517E+02 0.  0.
        -13    1    3    3    0    0 -0.20291255192E+02  0.39035332548E+02  0.65460630864E+02  0.78870694288E+02  0.00000000000E+00 0.  1.
         14    1    3    3    0    0 -0.18445996683E+03  0.91839285127E+02  0.17393426966E+03  0.26965359968E+03  0.00000000000E+00 0. -1.
        -13    1    4    4    0    0  0.19584591890E+02  0.34815865536E+02 -0.26118975046E+02  0.47727367306E+02  0.00000000000E+00 0.  1.
         13    1    4    4    0    0 -0.47493346134E+01 -0.24934800374E+02  0.43830828629E+02  0.50650192371E+02  0.00000000000E+00 0. -1.
          1    1    1    2  501    0  0.18991596475E+03 -0.14075568284E+03 -0.77030331020E+02  0.24862402904E+03  0.00000000000E+00 0. -1.
<scales pt_clust_5="13000.00000" pt_clust_6="13000.00000" pt_clust_7="13000.00000" pt_clust_8="13000.00000" pt_clust_9="13000.00000"></scales>
<clustering>
<clus scale="   71.471">  5  6 -1 -1</clus>
<clus scale="   95.114">  7  8 -1 -1</clus>
<clus scale="  236.390">  7  9 -1 -1</clus>
<clus scale="  253.297">  2  5  1 -1</clus>
<clus scale="  341.894">  1  5  2 -1</clus>
</clustering>
</event>
<event>
 9    2  0.4178938E-005  0.2395193E+03  0.7546771E-02  0.1155318E+00
         21   -1    0    0  501  502  0.00000000000E+00  0.00000000000E+00  0.24758453065E+03  0.24758453065E+03  0.00000000000E+00 0.  1.
          2   -1    0    0  502    0 -0.00000000000E+00 -0.00000000000E+00 -0.17067096034E+03  0.17067096034E+03  0.00000000000E+00 0. -1.
         24    2    1    2    0    0 -0.41413914953E+02  0.49179289782E+02 -0.81895527300E+02  0.13087106231E+03  0.79288351379E+02 0.  0.
         23    2    1    2    0    0  0.17346872630E+02  0.62151682534E+02  0.34054039135E+02  0.11845357732E+03  0.93315736977E+02 0.  0.
        -13    1    3    3    0    0 -0.54761386194E+01  0.35552714922E+02  0.45575325345E+01  0.36259546816E+02  0.00000000000E+00 0.  1.
         14    1    3    3    0    0 -0.35937776334E+02  0.13626574861E+02 -0.86453059835E+02  0.94611515499E+02  0.00000000000E+00 0. -1.
        -11    1    4    4    0    0  0.33159971900E+02  0.43338245281E+02  0.61092349724E+02  0.81914970764E+02  0.00000000000E+00 0.  1.
         11    1    4    4    0    0 -0.15813099270E+02  0.18813437253E+02 -0.27038310590E+02  0.36538606560E+02  0.00000000000E+00 0. -1.
          1    1    1    2  501    0  0.24067042323E+02 -0.11133097232E+03  0.12475505847E+03  0.16893085135E+03  0.00000000000E+00 0. -1.
<scales pt_clust_5="13000.00000" pt_clust_6="13000.00000" pt_clust_7="13000.00000" pt_clust_8="13000.00000" pt_clust_9="13000.00000"></scales>
<clustering>
<clus scale="   79.288">  5  6 -1 -1</clus>
<clus scale="   93.316">  7  8 -1 -1</clus>
<clus scale="  102.080">  2  5  1 -1</clus>
<clus scale="   94.945">  7  9 -1 -1</clus>
<clus scale="  239.519">  1  5  2 -1</clus>
</clustering>
</event>
<event>
 9    2  0.4178938E-005  0.6312826E+03  0.7546771E-02  0.1041700E+00
          2   -1    0    0  502    0 -0.00000000000E+00  0.00000000000E+00  0.46238327152E+03  0.46238327152E+03  0.00000000000E+00 0. -1.
         21   -1    0    0  501  502  0.00000000000E+00 -0.00000000000E+00 -0.30254574021E+03  0.30254574021E+03  0.00000000000E+00 0. -1.
         24    2    1    2    0    0 -0.18993173486E+02 -0.70000276787E+02  0.66213552947E+02  0.12674161458E+03  0.80115060277E+02 0.  0.
         23    2    1    2    0    0  0.14558146049E+03  0.22634264313E+03  0.25368903868E+03  0.38111084541E+03  0.91991273511E+02 0.  0.
        -13    1    3    3    0    0  0.19224941842E+02 -0.66880533057E+02  0.45711864877E+02  0.83259706229E+02  0.00000000000E+00 0.  1.
         14    1    3    3    0    0 -0.38218115328E+02 -0.31197437306E+01  0.20501688070E+02  0.43481908351E+02  0.00000000000E+00 0. -1.
        -11    1    4    4    0    0 -0.70560202059E+01  0.40866448047E+02  0.57895325358E+02  0.71216028361E+02  0.00000000000E+00 0.  1.
         11    1    4    4    0    0  0.15263748069E+03  0.18547619508E+03  0.19579371333E+03  0.30989481705E+03  0.00000000000E+00 0. -1.
          1    1    1    2  501    0 -0.12658828700E+03 -0.15634236634E+03 -0.16006506032E+03  0.25707655174E+03  0.00000000000E+00 0. -1.
<scales pt_clust_5="13000.00000" pt_clust_6="13000.00000" pt_clust_7="13000.00000" pt_clust_8="13000.00000" pt_clust_9="13000.00000"></scales>
<clustering>
<clus scale="   80.115">  5  6 -1 -1</clus>
<clus scale="   91.991">  7  8 -1 -1</clus>
<clus scale="  108.070">  1  5  2 -1</clus>
<clus scale="  209.998">  7  9 -1 -1</clus>
<clus scale="  631.283">  2  5  1 -1</clus>
</clustering>
</event>
<event>
 9    2  0.4178938E-005  0.3636685E+03  0.7546771E-02  0.1082255E+00
         -3   -1    0    0    0  501 -0.00000000000E+00  0.00000000000E+00  0.35305810888E+02  0.35305810888E+02  0.00000000000E+00 0.  1.
         21   -1    0    0  501  502  0.00000000000E+00 -0.00000000000E+00 -0.21896532077E+04  0.21896532077E+04  0.00000000000E+00 0.  1.
         24    2    1    2    0    0  0.15615118316E+03 -0.49882105773E+02 -0.93098368576E+03  0.94868571362E+03  0.80015895873E+02 0.  0.
         23    2    1    2    0    0 -0.16217093922E+02 -0.65814114388E+02 -0.19090238100E+03  0.22796821448E+03  0.10455283810E+03 0.  0.
        -13    1    3    3    0    0  0.14950748803E+03 -0.22325472713E+02 -0.83621729797E+03  0.84977072504E+03  0.00000000000E+00 0.  1.
         14    1    3    3    0    0  0.66436951221E+01 -0.27556633060E+02 -0.94766387787E+02  0.98914988575E+02  0.00000000000E+00 0. -1.
        -13    1    4    4    0    0  0.15682673628E+02  0.15494286476E+02 -0.98025772712E+02  0.10047423193E+03  0.00000000000E+00 0.  1.
         13    1    4    4    0    0 -0.31899767550E+02 -0.81308400864E+02 -0.92876608290E+02  0.12749398256E+03  0.00000000000E+00 0. -1.
         -4    1    1    2    0  502 -0.13993408923E+03  0.11569622016E+03 -0.10324613300E+04  0.10483050905E+04  0.00000000000E+00 0.  1.
<scales pt_clust_5="13000.00000" pt_clust_6="13000.00000" pt_clust_7="13000.00000" pt_clust_8="13000.00000" pt_clust_9="13000.00000"></scales>
<clustering>
<clus scale="   80.016">  5  6 -1 -1</clus>
<clus scale="  104.553">  7  8 -1 -1</clus>
<clus scale="  181.569">  7  9 -1 -1</clus>
<clus scale="  182.412">  1  5  2 -1</clus>
<clus scale="  363.669">  2  5  1 -1</clus>
</clustering>
</event>
<event>
 9    2  0.4178938E-005  0.3198159E+03  0.7546771E-02  0.1104932E+00
          4   -1    0    0  502    0 -0.00000000000E+00  0.00000000000E+00  0.36968399121E+03  0.36968399121E+03  0.00000000000E+00 0. -1.
         21   -1    0    0  501  502  0.00000000000E+00 -0.00000000000E+00 -0.14798078439E+03  0.14798078439E+03  0.00000000000E+00 0. -1.
         24    2    1    2    0    0 -0.11523944733E+03  0.50179377277E+02  0.64695318383E+02  0.16138722546E+03  0.77860466202E+02 0.  0.
         23    2    1    2    0    0  0.25324062642E+02  0.92691929486E+02  0.12802695125E+03  0.18499742455E+03  0.92736427058E+02 0.  0.
        -11    1    3    3    0    0 -0.30940176660E+02 -0.19087766707E+02  0.41048362665E+01  0.36585339282E+02  0.00000000000E+00 0.  1.
         12    1    3    3    0    0 -0.84299270669E+02  0.69267143984E+02  0.60590482116E+02  0.12480188618E+03  0.00000000000E+00 0. -1.
        -11    1    4    4    0    0 -0.23795553541E+02  0.43713458845E+02  0.96969343756E+02  0.10899609388E+03  0.00000000000E+00 0. -1.
         11    1    4    4    0    0  0.49119616183E+02  0.48978470641E+02  0.31057607489E+02  0.76001330668E+02  0.00000000000E+00 0.  1.
          3    1    1    2  501    0  0.89915384687E+02 -0.14287130676E+03  0.28980937196E+02  0.17128012558E+03  0.00000000000E+00 0. -1.
<scales pt_clust_5="13000.00000" pt_clust_6="13000.00000" pt_clust_7="13000.00000" pt_clust_8="13000.00000" pt_clust_9="13000.00000"></scales>
<clustering>
<clus scale="   77.860">  5  6 -1 -1</clus>
<clus scale="   92.736">  7  8 -1 -1</clus>
<clus scale="  147.853">  1  5  2 -1</clus>
<clus scale="  131.233">  7  9 -1 -1</clus>
<clus scale="  319.816">  2  5  1 -1</clus>
</clustering>
</event>
<event>
 9    2  0.4178938E-005  0.1592595E+03  0.7546771E-02  0.1201372E+00
         -1   -1    0    0    0  501 -0.00000000000E+00  0.00000000000E+00  0.25622423124E+02  0.25622423124E+02  0.00000000000E+00 0.  1.
         21   -1    0    0  501  502  0.00000000000E+00 -0.00000000000E+00 -0.78716092044E+03  0.78716092044E+03  0.00000000000E+00 0.  1.
         24    2    1    2    0    0  0.27191401338E+02  0.91598046062E+02 -0.37847899823E+03  0.39793619933E+03  0.77312950324E+02 0.  0.
         23    2    1    2    0    0  0.54882489862E+01 -0.61574633243E+02 -0.31710886976E+03  0.33535594742E+03  0.89911177565E+02 0.  0.
        -11    1    3    3    0    0  0.96347779648E+01  0.95082399230E+02 -0.24036812191E+03  0.25867030294E+03  0.00000000000E+00 0.  1.
         12    1    3    3    0    0  0.17556623373E+02 -0.34843531677E+01 -0.13811087632E+03  0.13926589640E+03  0.00000000000E+00 0. -1.
        -13    1    4    4    0    0 -0.34151587226E+02 -0.19424649363E+02 -0.59306061963E+02  0.71139699877E+02  0.00000000000E+00 0.  1.
         13    1    4    4    0    0  0.39639836213E+02 -0.42149983881E+02 -0.25780280780E+03  0.26421624754E+03  0.00000000000E+00 0. -1.
         -2    1    1    2    0  502 -0.32679650324E+02 -0.30023412819E+02 -0.65950629319E+02  0.79491196809E+02  0.00000000000E+00 0.  1.
<scales pt_clust_5="13000.00000" pt_clust_6="13000.00000" pt_clust_7="13000.00000" pt_clust_8="13000.00000" pt_clust_9="13000.00000"></scales>
<clustering>
<clus scale="   77.313">  5  6 -1 -1</clus>
<clus scale="   89.911">  7  8 -1 -1</clus>
<clus scale="   44.378">  7  9 -1 -1</clus>
<clus scale="  122.910">  1  5  2 -1</clus>
<clus scale="  159.259">  2  5  1 -1</clus>
</clustering>
</event>
<event>
 9    2  0.4178938E-005  0.2772357E+03  0.7546771E-02  0.1146211E+00
         21   -1    0    0  501  502  0.00000000000E+00  0.00000000000E+00  0.36053950418E+03  0.36053950418E+03  0.00000000000E+00 0.  1.
         -3   -1    0    0    0  501 -0.00000000000E+00 -0.00000000000E+00 -0.12992913934E+03  0.12992913934E+03  0.00000000000E+00 0.  1.
         24    2    1    2    0    0  0.42706471963E+01 -0.12012417174E+02 -0.50205308439E+02  0.95858626564E+02  0.80658333093E+02 0.  0.
         23    2    1    2    0    0 -0.12048574591E+03 -0.22849687242E+02  0.10024010740E+03  0.17705806802E+03  0.79136320006E+02 0.  0.
        -11    1    3    3    0    0 -0.34522018420E+02 -0.11479088144E+02 -0.43126242793E+02  0.56421733737E+02  0.00000000000E+00 0.  1.
         12    1    3    3    0    0  0.38792665616E+02 -0.53332902961E+00 -0.70790656457E+01  0.39436892827E+02  0.00000000000E+00 0. -1.
        -13    1    4    4    0    0 -0.39049718341E+02 -0.42151302159E+02  0.63555015418E+02  0.85678776607E+02  0.00000000000E+00 0. -1.
         13    1    4    4    0    0 -0.81436027573E+02  0.19301614917E+02  0.36685091978E+02  0.91379291411E+02  0.00000000000E+00 0.  1.
         -4    1    1    2    0  502  0.11621509872E+03  0.34862104416E+02  0.18057556588E+03  0.21755194894E+03  0.00000000000E+00 0.  1.
<scales pt_clust_5="13000.00000" pt_clust_6="13000.00000" pt_clust_7="13000.00000" pt_clust_8="13000.00000" pt_clust_9="13000.00000"></scales>
<clustering>
<clus scale="   79.136">  7  8 -1 -1</clus>
<clus scale="   80.658">  5  6 -1 -1</clus>
<clus scale="   81.660">  2  5  1 -1</clus>
<clus scale="  121.610">  7  9 -1 -1</clus>
<clus scale="  277.236">  1  5  2 -1</clus>
</clustering>
</event>
<event>
 9    2  0.4178938E-005  0.2078951E+03  0.7546771E-02  0.1181054E+00
          2   -1    0    0  502    0 -0.00000000000E+00  0.00000000000E+00  0.33486754750E+03  0.33486754750E+03  0.00000000000E+00 0. -1.
         21   -1    0    0  501  502  0.00000000000E+00 -0.00000000000E+00 -0.66994038502E+02  0.66994038502E+02  0.00000000000E+00 0. -1.
         24    2    1    2    0    0  0.73684860106E+00 -0.37993283516E+02  0.11460963382E+03  0.14357842461E+03  0.77687600748E+02 0.  0.
         23    2    1    2    0    0 -0.37203686647E+02 -0.37479116249E+02  0.13548336608E+03  0.17259734047E+03  0.92980110756E+02 0.  0.
        -13    1    3    3    0    0  0.24408446913E+02  0.12924407053E+02  0.55834383618E+02  0.62291981605E+02  0.00000000000E+00 0.  1.
         14    1    3    3    0    0 -0.23671598312E+02 -0.50917690569E+02  0.58775250207E+02  0.81286443005E+02  0.00000000000E+00 0. -1.
        -13    1    4    4    0    0 -0.35519382111E+02  0.24489068667E+02  0.71505748226E+02  0.83512951206E+02  0.00000000000E+00 0.  1.
         13    1    4    4    0    0 -0.16843045358E+01 -0.61968184915E+02  0.63977617859E+02  0.89084389263E+02  0.00000000000E+00 0. -1.
          1    1    1    2  501    0  0.36466838046E+02  0.75472399765E+02  0.17780509085E+02  0.85685820920E+02  0.00000000000E+00 0. -1.
<scales pt_clust_5="13000.00000" pt_clust_6="13000.00000" pt_clust_7="13000.00000" pt_clust_8="13000.00000" pt_clust_9="13000.00000"></scales>
<clustering>
<clus scale="   77.688">  5  6 -1 -1</clus>
<clus scale="   86.484">  1  5  2 -1</clus>
<clus scale="   92.980">  7  8 -1 -1</clus>
<clus scale="   75.425">  7  9 -1 -1</clus>
<clus scale="  207.895">  2  5  1 -1</clus>
</clustering>
</event>
<event>
 9    2  0.4178938E-005  0.1762206E+03  0.7546771E-02  0.1191656E+00
          2   -1    0    0  502    0 -0.00000000000E+00  0.00000000000E+00  0.72447610910E+03  0.72447610910E+03  0.00000000000E+00 0. -1.
         21   -1    0    0  501  502  0.00000000000E+00 -0.00000000000E+00 -0.37797837674E+02  0.37797837674E+02  0.00000000000E+00 0. -1.
         24    2    1    2    0    0 -0.79232768597E+02 -0.12525236493E+02  0.10201298943E+03  0.15162904026E+03  0.78421952726E+02 0.  0.
         23    2    1    2    0    0  0.82378257035E+02 -0.39083100198E+02  0.42837157936E+03  0.44602098359E+03  0.84373229461E+02 0.  0.
        -11    1    3    3    0    0 -0.39968482432E+02 -0.48872763782E+01  0.10405748330E+03  0.11157654274E+03  0.00000000000E+00 0.  1.
         12    1    3    3    0    0 -0.39264286165E+02 -0.76379601148E+01 -0.20444938701E+01  0.40052497524E+02  0.00000000000E+00 0. -1.
        -13    1    4    4    0    0  0.14216345753E+02  0.23521945085E+02  0.15473570001E+03  0.15715763820E+03  0.00000000000E+00 0.  1.
         13    1    4    4    0    0  0.68161911282E+02 -0.62605045283E+02  0.27363587935E+03  0.28886334539E+03  0.00000000000E+00 0. -1.
          1    1    1    2  501    0 -0.31454884381E+01  0.51608336691E+02  0.15629370264E+03  0.16462392292E+03  0.00000000000E+00 0. -1.
<scales pt_clust_5="13000.00000" pt_clust_6="13000.00000" pt_clust_7="13000.00000" pt_clust_8="13000.00000" pt_clust_9="13000.00000"></scales>
<clustering>
<clus scale="   78.422">  5  6 -1 -1</clus>
<clus scale="   84.373">  7  8 -1 -1</clus>
<clus scale="   51.704">  7  9 -1 -1</clus>
<clus scale="  112.182">  1  5  2 -1</clus>
<clus scale="  176.221">  2  5  1 -1</clus>
</clustering>
</event>
<event>
 9    2  0.4522519E-005  0.4084474E+03  0.7546771E-02  0.1098178E+00
          2   -1    0    0  502    0 -0.00000000000E+00  0.00000000000E+00  0.38516394855E+03  0.38516394855E+03  0.00000000000E+00 0. -1.
         21   -1    0    0  501  502  0.00000000000E+00 -0.00000000000E+00 -0.16630254132E+03  0.16630254132E+03  0.00000000000E+00 0. -1.
         24    2    1    2    0    0  0.88238833388E+01 -0.27983344831E+02 -0.68426444675E+01  0.84806451008E+02  0.79274105760E+02 0.  0.
         23    2    1    2    0    0  0.46196131898E+02 -0.28633029415E+02  0.32327418341E+03  0.34115088975E+03  0.94465861280E+02 0.  0.
        -11    1    3    3    0    0 -0.27666793684E+01  0.24598153060E+02  0.12325957898E+02  0.27652357707E+02  0.00000000000E+00 0.  1.
         12    1    3    3    0    0  0.11590562707E+02 -0.52581497891E+02 -0.19168602365E+02  0.57154093300E+02  0.00000000000E+00 0. -1.
        -11    1    4    4    0    0 -0.19816317655E+02 -0.34466432841E+02  0.16167040419E+03  0.16648705965E+03  0.00000000000E+00 0. -1.
         11    1    4    4    0    0  0.66012449553E+02  0.58334034261E+01  0.16160377921E+03  0.17466383011E+03  0.00000000000E+00 0.  1.
          1    1    1    2  501    0 -0.55020015236E+02  0.56616374246E+02 -0.97570131703E+02  0.12550914911E+03  0.00000000000E+00 0. -1.
<scales pt_clust_5="13000.00000" pt_clust_6="13000.00000" pt_clust_7="13000.00000" pt_clust_8="13000.00000" pt_clust_9="13000.00000"></scales>
<clustering>
<clus scale="   79.274">  5  6 -1 -1</clus>
<clus scale="   84.530">  1  5  2 -1</clus>
<clus scale="   94.466">  7  8 -1 -1</clus>
<clus scale="   77.891">  7  9 -1 -1</clus>
<clus scale="  408.447">  2  5  1 -1</clus>
</clustering>
</event>
<event>
 9    2  0.4178938E-005  0.2759161E+03  0.7546771E-02  0.1131387E+00
         21   -1    0    0  501  502  0.00000000000E+00  0.00000000000E+00  0.61431485476E+02  0.61431485476E+02  0.00000000000E+00 0. -1.
          2   -1    0    0  502    0 -0.00000000000E+00 -0.00000000000E+00 -0.79684946660E+03  0.79684946660E+03  0.00000000000E+00 0. -1.
         24    2    1    2    0    0  0.45794182432E+02 -0.74013238073E+02 -0.69366065634E+02  0.13734071009E+03  0.80472063666E+02 0.  0.
         23    2    1    2    0    0 -0.51699731648E+02 -0.49424787504E+02 -0.14451140770E+03  0.18495859778E+03  0.90611611083E+02 0.  0.
        -13    1    3    3    0    0 -0.16511529807E+02 -0.30119532342E+02 -0.93286842361E-01  0.34348588727E+02  0.00000000000E+00 0.  1.
         14    1    3    3    0    0  0.62305712240E+02 -0.43893705731E+02 -0.69272778792E+02  0.10299212136E+03  0.00000000000E+00 0. -1.
        -11    1    4    4    0    0 -0.34013500862E+02  0.18487643394E+02 -0.24137273624E+02  0.45621477148E+02  0.00000000000E+00 0.  1.
         11    1    4    4    0    0 -0.17686230785E+02 -0.67912430898E+02 -0.12037413408E+03  0.13933712063E+03  0.00000000000E+00 0. -1.
          1    1    1    2  501    0  0.59055492151E+01  0.12343802558E+03 -0.52154050779E+03  0.53598164421E+03  0.00000000000E+00 0. -1.
<scales pt_clust_5="13000.00000" pt_clust_6="13000.00000" pt_clust_7="13000.00000" pt_clust_8="13000.00000" pt_clust_9="13000.00000"></scales>
<clustering>
<clus scale="   80.472">  5  6 -1 -1</clus>
<clus scale="   90.612">  7  8 -1 -1</clus>
<clus scale="  118.536">  2  5  1 -1</clus>
<clus scale="   78.462">  7  9 -1 -1</clus>
<clus scale="  275.916">  1  5  2 -1</clus>
</clustering>
</event>
<event>
 9    2  0.4178938E-005  0.1203519E+03  0.7546771E-02  0.1259045E+00
         21   -1    0    0  501  502  0.00000000000E+00  0.00000000000E+00  0.50183798143E+02  0.50183798143E+02  0.00000000000E+00 0. -1.
          2   -1    0    0  502    0 -0.00000000000E+00 -0.00000000000E+00 -0.30976814204E+03  0.30976814204E+03  0.00000000000E+00 0. -1.
         24    2    1    2    0    0  0.80459407567E+01 -0.28629353279E+02 -0.21472925350E+03  0.23151304899E+03  0.81272766116E+02 0.  0.
         23    2    1    2    0    0  0.13940538240E+02  0.13663178843E+02 -0.38227555097E+02  0.10102874964E+03  0.91457319128E+02 0.  0.
        -13    1    3    3    0    0 -0.29960395572E+02  0.66193789995E+01 -0.48513739214E+02  0.57402302861E+02  0.00000000000E+00 0.  1.
         14    1    3    3    0    0  0.38006336329E+02 -0.35248732278E+02 -0.16621551429E+03  0.17411074613E+03  0.00000000000E+00 0. -1.
        -13    1    4    4    0    0 -0.79044439112E+01  0.50247831259E+02 -0.22291894977E+02  0.55536054608E+02  0.00000000000E+00 0.  1.
         13    1    4    4    0    0  0.21844982151E+02 -0.36584652416E+02 -0.15935660120E+02  0.45492695030E+02  0.00000000000E+00 0. -1.
          1    1    1    2  501    0 -0.21986478997E+02  0.14966174436E+02 -0.66275353001E+01  0.27410141555E+02  0.00000000000E+00 0. -1.
<scales pt_clust_5="13000.00000" pt_clust_6="13000.00000" pt_clust_7="13000.00000" pt_clust_8="13000.00000" pt_clust_9="13000.00000"></scales>
<clustering>
<clus scale="   81.273">  5  6 -1 -1</clus>
<clus scale="   86.543">  2  5  1 -1</clus>
<clus scale="   91.457">  7  8 -1 -1</clus>
<clus scale="   22.443">  7  9 -1 -1</clus>
<clus scale="  120.352">  1  5  2 -1</clus>
</clustering>
</event>
<event>
 9    2  0.4178938E-005  0.4986904E+03  0.7546771E-02  0.1058955E+00
         21   -1    0    0  501  502  0.00000000000E+00  0.00000000000E+00  0.49317699824E+03  0.49317699824E+03  0.00000000000E+00 0. -1.
          2   -1    0    0  502    0 -0.00000000000E+00 -0.00000000000E+00 -0.26604421013E+03  0.26604421013E+03  0.00000000000E+00 0. -1.
         24    2    1    2    0    0  0.52920924986E+02  0.93439042787E+02  0.22339599012E+03  0.26051676935E+03  0.80198127732E+02 0.  0.
         23    2    1    2    0    0  0.91545078739E+01  0.14729767164E+03 -0.13018012997E+03  0.21631947371E+03  0.89815585416E+02 0.  0.
        -11    1    3    3    0    0  0.24498035977E+02 -0.88068030055E+01  0.28491764452E+02  0.38593965687E+02  0.00000000000E+00 0.  1.
         12    1    3    3    0    0  0.28422889010E+02  0.10224584579E+03  0.19490422567E+03  0.22192280366E+03  0.00000000000E+00 0. -1.
        -13    1    4    4    0    0  0.24856941330E+02  0.55415706981E+02 -0.10239485385E+03  0.11905240110E+03  0.00000000000E+00 0. -1.
         13    1    4    4    0    0 -0.15702433456E+02  0.91881964657E+02 -0.27785276122E+02  0.97267072613E+02  0.00000000000E+00 0.  1.
          1    1    1    2  501    0 -0.62075432860E+02 -0.24073671442E+03  0.13391692796E+03  0.28238496531E+03  0.00000000000E+00 0. -1.
<scales pt_clust_5="13000.00000" pt_clust_6="13000.00000" pt_clust_7="13000.00000" pt_clust_8="13000.00000" pt_clust_9="13000.00000"></scales>
<clustering>
<clus scale="   80.198">  5  6 -1 -1</clus>
<clus scale="   89.816">  7  8 -1 -1</clus>
<clus scale="  134.027">  2  5  1 -1</clus>
<clus scale="  217.669">  7  9 -1 -1</clus>
<clus scale="  498.690">  1  5  2 -1</clus>
</clustering>
</event>
<event>
 9    2  0.4178938E-005  0.2351740E+03  0.7546771E-02  0.1144142E+00
         21   -1    0    0  501  502  0.00000000000E+00  0.00000000000E+00  0.14675463630E+03  0.14675463630E+03  0.00000000000E+00 0.  1.
          2   -1    0    0  502    0 -0.00000000000E+00 -0.00000000000E+00 -0.44234213220E+03  0.44234213220E+03  0.00000000000E+00 0. -1.
         24    2    1    2    0    0  0.70222634791E+02 -0.91008144905E+02 -0.32306936482E+03  0.35232251887E+03  0.80892780542E+02 0.  0.
         23    2    1    2    0    0 -0.16846862595E+02  0.44067423151E+02  0.94800101949E+02  0.13887558306E+03  0.89853289743E+02 0.  0.
        -11    1    3    3    0    0  0.35529788506E+02 -0.25545333520E+02 -0.22606709611E+03  0.23026346188E+03  0.00000000000E+00 0.  1.
         12    1    3    3    0    0  0.34692846285E+02 -0.65462811385E+02 -0.97002268709E+02  0.12205905699E+03  0.00000000000E+00 0. -1.
        -11    1    4    4    0    0  0.12560243439E+02  0.39124377397E+02  0.17106924158E+01  0.41126671279E+02  0.00000000000E+00 0. -1.
         11    1    4    4    0    0 -0.29407106034E+02  0.49430457537E+01  0.93089409533E+02  0.97748911778E+02  0.00000000000E+00 0.  1.
          1    1    1    2  501    0 -0.53375772196E+02  0.46940721754E+02 -0.67318233033E+02  0.97898666564E+02  0.00000000000E+00 0. -1.
<scales pt_clust_5="13000.00000" pt_clust_6="13000.00000" pt_clust_7="13000.00000" pt_clust_8="13000.00000" pt_clust_9="13000.00000"></scales>
<clustering>
<clus scale="   80.893">  5  6 -1 -1</clus>
<clus scale="   89.853">  7  8 -1 -1</clus>
<clus scale="   71.080">  7  9 -1 -1</clus>
<clus scale="  140.561">  2  5  1 -1</clus>
<clus scale="  235.174">  1  5  2 -1</clus>
</clustering>
</event>
<event>
 9    2  0.4178938E-005  0.2312572E+03  0.7546771E-02  0.1148764E+00
         21   -1    0    0  501  502  0.00000000000E+00  0.00000000000E+00  0.52939844292E+02  0.52939844292E+02  0.00000000000E+00 0.  1.
          2   -1    0    0  502    0 -0.00000000000E+00 -0.00000000000E+00 -0.64725914981E+03  0.64725914981E+03  0.00000000000E+00 0. -1.
         24    2    1    2    0    0  0.51086395528E+02 -0.92640950137E+02 -0.15595432023E+03  0.20457438802E+03  0.79603798805E+02 0.  0.
         23    2    1    2    0    0 -0.10470970581E+02  0.24248230523E+02 -0.50971853835E+02  0.10014942970E+03  0.82061930743E+02 0.  0.
        -13    1    3    3    0    0  0.70016762413E+02 -0.88728613882E+02 -0.13490765032E+03  0.17599769332E+03  0.00000000000E+00 0.  1.
         14    1    3    3    0    0 -0.18930366885E+02 -0.39123362555E+01 -0.21046669912E+02  0.28576694697E+02  0.00000000000E+00 0. -1.
        -11    1    4    4    0    0 -0.19333217608E+02  0.52013098744E+02 -0.24066087654E+02  0.60483983988E+02  0.00000000000E+00 0.  1.
         11    1    4    4    0    0  0.88622470266E+01 -0.27764868221E+02 -0.26905766180E+02  0.39665445711E+02  0.00000000000E+00 0. -1.
          1    1    1    2  501    0 -0.40615424946E+02  0.68392719615E+02 -0.38739313145E+03  0.39547517638E+03  0.00000000000E+00 0. -1.
<scales pt_clust_5="13000.00000" pt_clust_6="13000.00000" pt_clust_7="13000.00000" pt_clust_8="13000.00000" pt_clust_9="13000.00000"></scales>
<clustering>
<clus scale="   79.604">  5  6 -1 -1</clus>
<clus scale="   82.062">  7  8 -1 -1</clus>
<clus scale="   79.544">  7  9 -1 -1</clus>
<clus scale="  132.397">  2  5  1 -1</clus>
<clus scale="  231.257">  1  5  2 -1</clus>
</clustering>
</event>
<event>
 9    2  0.4178938E-005  0.7316824E+03  0.7546771E-02  0.1026521E+00
          2   -1    0    0  502    0 -0.00000000000E+00  0.00000000000E+00  0.11316803868E+04  0.11316803868E+04  0.00000000000E+00 0. -1.
         21   -1    0    0  501  502  0.00000000000E+00 -0.00000000000E+00 -0.20580531698E+03  0.20580531698E+03  0.00000000000E+00 0. -1.
         24    2    1    2    0    0 -0.13003936219E+02 -0.70748488029E+02  0.45412290870E+03  0.46690585348E+03  0.81234283966E+02 0.  0.
         23    2    1    2    0    0  0.22743697909E+03 -0.90638835017E+02  0.53434864291E+03  0.59499734459E+03  0.92468318990E+02 0.  0.
        -13    1    3    3    0    0 -0.55061626442E+01 -0.88099442861E+02  0.39849074064E+03  0.40815033999E+03  0.00000000000E+00 0.  1.
         14    1    3    3    0    0 -0.74977735747E+01  0.17350954832E+02  0.55632168065E+02  0.58755513493E+02  0.00000000000E+00 0. -1.
        -13    1    4    4    0    0  0.14305076496E+03 -0.10168349683E+03  0.38462827751E+03  0.42277886270E+03  0.00000000000E+00 0. -1.
         13    1    4    4    0    0  0.84386214126E+02  0.11044661811E+02  0.14972036540E+03  0.17221848189E+03  0.00000000000E+00 0.  1.
          1    1    1    2  501    0 -0.21443304287E+03  0.16138732305E+03 -0.62596481799E+02  0.27558250570E+03  0.00000000000E+00 0. -1.
<scales pt_clust_5="13000.00000" pt_clust_6="13000.00000" pt_clust_7="13000.00000" pt_clust_8="13000.00000" pt_clust_9="13000.00000"></scales>
<clustering>
<clus scale="   81.234">  5  6 -1 -1</clus>
<clus scale="   92.468">  7  8 -1 -1</clus>
<clus scale="  108.506">  1  5  2 -1</clus>
<clus scale="  263.475">  7  9 -1 -1</clus>
<clus scale="  731.682">  2  5  1 -1</clus>
</clustering>
</event>
<event>
 9    2  0.4178938E-005  0.4704875E+03  0.7546771E-02  0.1074162E+00
          2   -1    0    0  502    0 -0.00000000000E+00  0.00000000000E+00  0.14325836732E+04  0.14325836732E+04  0.00000000000E+00 0. -1.
         21   -1    0    0  501  502  0.00000000000E+00 -0.00000000000E+00 -0.59434277572E+02  0.59434277572E+02  0.00000000000E+00 0. -1.
         24    2    1    2    0    0 -0.58835251086E+02 -0.31896497949E+02  0.35999079155E+03  0.37494639790E+03  0.80699801369E+02 0.  0.
         23    2    1    2    0    0 -0.10769001580E+03 -0.15960115185E+03  0.53455268759E+03  0.57534686478E+03  0.90596753975E+02 0.  0.
        -11    1    3    3    0    0 -0.54701267238E+02  0.13410550444E+02  0.24250617925E+03  0.24896047573E+03  0.00000000000E+00 0.  1.
         12    1    3    3    0    0 -0.41339838483E+01 -0.45307048393E+02  0.11748461230E+03  0.12598592217E+03  0.00000000000E+00 0. -1.
        -13    1    4    4    0    0 -0.17427934926E+02 -0.85482023473E+02  0.31253696787E+03  0.32448461525E+03  0.00000000000E+00 0.  1.
         13    1    4    4    0    0 -0.90262080869E+02 -0.74119128378E+02  0.22201571972E+03  0.25086224953E+03  0.00000000000E+00 0. -1.
          1    1    1    2  501    0  0.16652526688E+03  0.19149764980E+03  0.47860591644E+03  0.54172468805E+03  0.00000000000E+00 0. -1.
<scales pt_clust_5="13000.00000" pt_clust_6="13000.00000" pt_clust_7="13000.00000" pt_clust_8="13000.00000" pt_clust_9="13000.00000"></scales>
<clustering>
<clus scale="   80.700">  5  6 -1 -1</clus>
<clus scale="   90.597">  7  8 -1 -1</clus>
<clus scale="  104.840">  1  5  2 -1</clus>
<clus scale="  224.037">  7  9 -1 -1</clus>
<clus scale="  470.488">  2  5  1 -1</clus>
</clustering>
</event>
<event>
 9    2  0.4178938E-005  0.2207418E+03  0.7546771E-02  0.1173920E+00
         -1   -1    0    0    0  501 -0.00000000000E+00  0.00000000000E+00  0.24819216347E+03  0.24819216347E+03  0.00000000000E+00 0.  1.
         21   -1    0    0  501  502  0.00000000000E+00 -0.00000000000E+00 -0.95802474389E+02  0.95802474389E+02  0.00000000000E+00 0. -1.
         24    2    1    2    0    0  0.50454253021E+02  0.94357635533E+01  0.63635858304E+02  0.10607834428E+03  0.67590142638E+02 0.  0.
         23    2    1    2    0    0 -0.78167428965E+01  0.62069453329E+02 -0.86767215021E+00  0.11559308606E+03  0.97197171683E+02 0.  0.
        -11    1    3    3    0    0  0.12940366111E+02  0.36239926496E+02  0.33287940001E+02  0.50880962030E+02  0.00000000000E+00 0.  1.
         12    1    3    3    0    0  0.37513886910E+02 -0.26804162943E+02  0.30347918303E+02  0.55197382253E+02  0.00000000000E+00 0. -1.
        -11    1    4    4    0    0  0.21074233460E+02  0.77628582962E+02  0.99278589214E+01  0.81048643365E+02  0.00000000000E+00 0. -1.
         11    1    4    4    0    0 -0.28890976356E+02 -0.15559129633E+02 -0.10795531072E+02  0.34544442692E+02  0.00000000000E+00 0.  1.
         -2    1    1    2    0  502 -0.42637510125E+02 -0.71505216882E+02  0.89621502922E+02  0.12232320752E+03  0.00000000000E+00 0.  1.
<scales pt_clust_5="13000.00000" pt_clust_6="13000.00000" pt_clust_7="13000.00000" pt_clust_8="13000.00000" pt_clust_9="13000.00000"></scales>
<clustering>
<clus scale="   67.590">  5  6 -1 -1</clus>
<clus scale="   84.871">  1  5  2 -1</clus>
<clus scale="   97.197">  7  8 -1 -1</clus>
<clus scale="   66.129">  7  9 -1 -1</clus>
<clus scale="  220.742">  2  5  1 -1</clus>
</clustering>
</event>
<event>
 9    2  0.4178938E-005  0.3712939E+03  0.7546771E-02  0.1072624E+00
         21   -1    0    0  501  502  0.00000000000E+00  0.00000000000E+00  0.14133384696E+03  0.14133384696E+03  0.00000000000E+00 0.  1.
          2   -1    0    0  502    0 -0.00000000000E+00 -0.00000000000E+00 -0.68666202502E+03  0.68666202502E+03  0.00000000000E+00 0. -1.
         24    2    1    2    0    0 -0.54422935329E+02 -0.19818524819E+03 -0.88738292240E+02  0.23949485189E+03  0.85111991432E+02 0.  0.
         23    2    1    2    0    0 -0.45853289206E+02 -0.18868389577E+02 -0.45506047002E+02  0.11294079739E+03  0.90698859669E+02 0.  0.
        -11    1    3    3    0    0 -0.31146800446E+02 -0.41776541867E+02  0.10011593169E+02  0.53062553898E+02  0.00000000000E+00 0.  1.
         12    1    3    3    0    0 -0.23276134882E+02 -0.15640870632E+03 -0.98749885409E+02  0.18643229800E+03  0.00000000000E+00 0. -1.
        -11    1    4    4    0    0 -0.52044941473E+01 -0.51139921297E+02 -0.24595154971E+02  0.56985085397E+02  0.00000000000E+00 0.  1.
         11    1    4    4    0    0 -0.40648795059E+02  0.32271531720E+02 -0.20910892031E+02  0.55955711995E+02  0.00000000000E+00 0. -1.
          1    1    1    2  501    0  0.10027622453E+03  0.21705363776E+03 -0.41108383881E+03  0.47556022269E+03  0.00000000000E+00 0. -1.
<scales pt_clust_5="13000.00000" pt_clust_6="13000.00000" pt_clust_7="13000.00000" pt_clust_8="13000.00000" pt_clust_9="13000.00000"></scales>
<clustering>
<clus scale="   85.112">  5  6 -1 -1</clus>
<clus scale="   90.699">  7  8 -1 -1</clus>
<clus scale="  222.449">  2  5  1 -1</clus>
<clus scale="   72.938">  7  9 -1 -1</clus>
<clus scale="  371.294">  1  5  2 -1</clus>
</clustering>
</event>
<event>
 9    2  0.4178938E-005  0.1788525E+03  0.7546771E-02  0.1202556E+00
         21   -1    0    0  501  502  0.00000000000E+00  0.00000000000E+00  0.11688890148E+03  0.11688890148E+03  0.00000000000E+00 0. -1.
          2   -1    0    0  502    0 -0.00000000000E+00 -0.00000000000E+00 -0.15388988365E+03  0.15388988365E+03  0.00000000000E+00 0. -1.
         24    2    1    2    0    0 -0.22241932504E+02  0.15925684891E+02 -0.35995383702E+02  0.91923422657E+02  0.80036972609E+02 0.  0.
         23    2    1    2    0    0 -0.80876248013E+01  0.26097396147E+02  0.47555778479E+02  0.10783403668E+03  0.92844728651E+02 0.  0.
        -13    1    3    3    0    0 -0.41447013007E+02 -0.11175069110E+02  0.23385311145E-01  0.42927119676E+02  0.00000000000E+00 0.  1.
         14    1    3    3    0    0  0.19205080504E+02  0.27100754001E+02 -0.36018769013E+02  0.48996302981E+02  0.00000000000E+00 0. -1.
        -13    1    4    4    0    0 -0.30253595023E+02  0.15654573434E+02 -0.17514866182E+02  0.38302953131E+02  0.00000000000E+00 0.  1.
         13    1    4    4    0    0  0.22165970222E+02  0.10442822714E+02  0.65070644662E+02  0.69531083544E+02  0.00000000000E+00 0. -1.
          1    1    1    2  501    0  0.30329557305E+02 -0.42023081038E+02 -0.48561376948E+02  0.71021325793E+02  0.00000000000E+00 0. -1.
<scales pt_clust_5="13000.00000" pt_clust_6="13000.00000" pt_clust_7="13000.00000" pt_clust_8="13000.00000" pt_clust_9="13000.00000"></scales>
<clustering>
<clus scale="   80.037">  5  6 -1 -1</clus>
<clus scale="   84.583">  2  5  1 -1</clus>
<clus scale="   92.845">  7  8 -1 -1</clus>
<clus scale="   35.067">  7  9 -1 -1</clus>
<clus scale="  178.853">  1  5  2 -1</clus>
</clustering>
</event>
<event>
 9    2  0.4178938E-005  0.2372801E+03  0.7546771E-02  0.1158381E+00
          2   -1    0    0  502    0 -0.00000000000E+00  0.00000000000E+00  0.27658114583E+03  0.27658114583E+03  0.00000000000E+00 0. -1.
         21   -1    0    0  501  502  0.00000000000E+00 -0.00000000000E+00 -0.14440096244E+03  0.14440096244E+03  0.00000000000E+00 0.  1.
         24    2    1    2    0    0 -0.52659793222E+02  0.15107470587E+02  0.15432690500E+03  0.18267071837E+03  0.80935210224E+02 0.  0.
         23    2    1    2    0    0  0.62261990144E+02 -0.37123125739E+02  0.60146197762E+02  0.15258498885E+03  0.12004137552E+03 0.  0.
        -13    1    3    3    0    0 -0.59019995166E+02 -0.14250887721E+02  0.67475235040E+02  0.90770892768E+02  0.00000000000E+00 0.  1.
         14    1    3    3    0    0  0.63602019441E+01  0.29358358308E+02  0.86851669957E+02  0.91899825602E+02  0.00000000000E+00 0. -1.
        -13    1    4    4    0    0  0.85281296511E+02  0.10857619239E+02  0.46079783561E+02  0.97540421791E+02  0.00000000000E+00 0. -1.
         13    1    4    4    0    0 -0.23019306367E+02 -0.47980744978E+02  0.14066414201E+02  0.55044567059E+02  0.00000000000E+00 0.  1.
          1    1    1    2  501    0 -0.96021969220E+01  0.22015655152E+02 -0.82292919378E+02  0.85726401051E+02  0.00000000000E+00 0. -1.
<scales pt_clust_5="13000.00000" pt_clust_6="13000.00000" pt_clust_7="13000.00000" pt_clust_8="13000.00000" pt_clust_9="13000.00000"></scales>
<clustering>
<clus scale="   80.935">  5  6 -1 -1</clus>
<clus scale="   97.733">  1  5  2 -1</clus>
<clus scale="  120.041">  7  8 -1 -1</clus>
<clus scale="   24.582">  7  9 -1 -1</clus>
<clus scale="  237.280">  2  5  1 -1</clus>
</clustering>
</event>
<event>
 9    2  0.4178938E-005  0.4827650E+03  0.7546771E-02  0.1072140E+00
          2   -1    0    0  502    0 -0.00000000000E+00  0.00000000000E+00  0.14681909414E+04  0.14681909414E+04  0.00000000000E+00 0. -1.
         21   -1    0    0  501  502  0.00000000000E+00 -0.00000000000E+00 -0.68772706431E+02  0.68772706431E+02  0.00000000000E+00 0. -1.
         24    2    1    2    0    0  0.43686980356E+02  0.48476544805E+02  0.74271464726E+02  0.12661760428E+03  0.79102715462E+02 0.  0.
         23    2    1    2    0    0 -0.11089324866E+03 -0.20926706128E+03  0.10941587675E+04  0.11209920560E+04  0.57877159819E+02 0.  0.
        -13    1    3    3    0    0  0.88372388885E+01  0.43874739420E+02  0.34282028187E+00  0.44757201388E+02  0.00000000000E+00 0.  1.
         14    1    3    3    0    0  0.34849741467E+02  0.46018053849E+01  0.73928644444E+02  0.81860402897E+02  0.00000000000E+00 0. -1.
        -13    1    4    4    0    0 -0.49113850437E+02 -0.39596665179E+02  0.30068206490E+03  0.30722918212E+03  0.00000000000E+00 0.  1.
         13    1    4    4    0    0 -0.61779398219E+02 -0.16967039610E+03  0.79347670260E+03  0.81376287389E+03  0.00000000000E+00 0. -1.
          1    1    1    2  501    0  0.67206268300E+02  0.16079051647E+03  0.23098800275E+03  0.28935398753E+03  0.00000000000E+00 0. -1.
<scales pt_clust_5="13000.00000" pt_clust_6="13000.00000" pt_clust_7="13000.00000" pt_clust_8="13000.00000" pt_clust_9="13000.00000"></scales>
<clustering>
<clus scale="   57.877">  7  8 -1 -1</clus>
<clus scale="   79.103">  5  6 -1 -1</clus>
<clus scale="  102.546">  1  5  2 -1</clus>
<clus scale="  186.029">  7  9 -1 -1</clus>
<clus scale="  482.765">  2  5  1 -1</clus>
</clustering>
</event>
<event>
 9    2  0.4178938E-005  0.2416221E+03  0.7546771E-02  0.1137959E+00
          2   -1    0    0  502    0 -0.00000000000E+00  0.00000000000E+00  0.20652828073E+03  0.20652828073E+03  0.00000000000E+00 0. -1.
         21   -1    0    0  501  502  0.00000000000E+00 -0.00000000000E+00 -0.18606102440E+03  0.18606102440E+03  0.00000000000E+00 0.  1.
         24    2    1    2    0    0  0.20926928360E+02  0.12542890305E+03  0.10094761935E+02  0.15074463040E+03  0.80322433515E+02 0.  0.
         23    2    1    2    0    0  0.23868135701E+01  0.17135361603E+02 -0.22589722175E+02  0.93673800940E+02  0.89247789543E+02 0.  0.
        -13    1    3    3    0    0  0.35425214679E+02  0.60656811419E+02  0.36679465225E+02  0.79243786985E+02  0.00000000000E+00 0.  1.
         14    1    3    3    0    0 -0.14498286318E+02  0.64772091631E+02 -0.26584703290E+02  0.71500843417E+02  0.00000000000E+00 0. -1.
        -11    1    4    4    0    0 -0.38689561168E+02  0.89547056512E+01  0.95924795840E+01  0.40854431353E+02  0.00000000000E+00 0. -1.
         11    1    4    4    0    0  0.41076374738E+02  0.81806559516E+01 -0.32182201759E+02  0.52819369586E+02  0.00000000000E+00 0.  1.
          1    1    1    2  501    0 -0.23313741930E+02 -0.14256426465E+03  0.32962216567E+02  0.14817087379E+03  0.00000000000E+00 0. -1.
<scales pt_clust_5="13000.00000" pt_clust_6="13000.00000" pt_clust_7="13000.00000" pt_clust_8="13000.00000" pt_clust_9="13000.00000"></scales>
<clustering>
<clus scale="   80.322">  5  6 -1 -1</clus>
<clus scale="   89.248">  7  8 -1 -1</clus>
<clus scale="  144.458">  7  9 -1 -1</clus>
<clus scale="  150.406">  1  5  2 -1</clus>
<clus scale="  241.622">  2  5  1 -1</clus>
</clustering>
</event>
<event>
 9    2  0.4178938E-005  0.4918626E+03  0.7546771E-02  0.1066085E+00
          2   -1    0    0  502    0 -0.00000000000E+00  0.00000000000E+00  0.67720883443E+03  0.67720883443E+03  0.00000000000E+00 0. -1.
         21   -1    0    0  501  502  0.00000000000E+00 -0.00000000000E+00 -0.14065894647E+03  0.14065894647E+03  0.00000000000E+00 0.  1.
         24    2    1    2    0    0 -0.19798112630E+02  0.78736310146E+02  0.16765737928E+03  0.20304216291E+03  0.80782122356E+02 0.  0.
         23    2    1    2    0    0  0.44496193754E+02  0.17423903125E+03  0.51038721772E+02  0.20783968651E+03  0.90847305411E+02 0.  0.
        -11    1    3    3    0    0 -0.50274478415E+02  0.46685674671E+02  0.84409343615E+02  0.10877505545E+03  0.00000000000E+00 0.  1.
         12    1    3    3    0    0  0.30476365785E+02  0.32050635475E+02  0.83248035666E+02  0.94267107456E+02  0.00000000000E+00 0. -1.
        -11    1    4    4    0    0  0.71077112306E+02  0.10416164676E+03  0.38508035752E+02  0.13185019290E+03  0.00000000000E+00 0.  1.
         11    1    4    4    0    0 -0.26580918551E+02  0.70077384489E+02  0.12530686020E+02  0.75989493616E+02  0.00000000000E+00 0. -1.
          1    1    1    2  501    0 -0.24698081124E+02 -0.25297534139E+03  0.31785378691E+03  0.40698593148E+03  0.00000000000E+00 0. -1.
<scales pt_clust_5="13000.00000" pt_clust_6="13000.00000" pt_clust_7="13000.00000" pt_clust_8="13000.00000" pt_clust_9="13000.00000"></scales>
<clustering>
<clus scale="   80.782">  5  6 -1 -1</clus>
<clus scale="   90.847">  7  8 -1 -1</clus>
<clus scale="  114.530">  1  5  2 -1</clus>
<clus scale="  198.878">  7  9 -1 -1</clus>
<clus scale="  491.863">  2  5  1 -1</clus>
</clustering>
</event>
<event>
 9    2  0.4178938E-005  0.1207936E+03  0.7546771E-02  0.1259771E+00
          2   -1    0    0  502    0 -0.00000000000E+00  0.00000000000E+00  0.12327417288E+04  0.12327417288E+04  0.00000000000E+00 0. -1.
         21   -1    0    0  501  502  0.00000000000E+00 -0.00000000000E+00 -0.92258035420E+01  0.92258035420E+01  0.00000000000E+00 0. -1.
         24    2    1    2    0    0 -0.31607754089E+01  0.19632560401E+02  0.67844098895E+03  0.68366851667E+03  0.82006324571E+02 0.  0.
         23    2    1    2    0    0 -0.22323489204E+02 -0.12715788733E+02  0.45401264105E+03  0.46348535057E+03  0.89616753471E+02 0.  0.
        -13    1    3    3    0    0  0.30877378642E+01 -0.27751129090E+02  0.12088836059E+03  0.12407116916E+03  0.00000000000E+00 0.  1.
         14    1    3    3    0    0 -0.62485132731E+01  0.47383689491E+02  0.55755262836E+03  0.55959734751E+03  0.00000000000E+00 0. -1.
        -11    1    4    4    0    0 -0.55985630796E+02 -0.40349947672E+01  0.32787503097E+03  0.33264501796E+03  0.00000000000E+00 0. -1.
         11    1    4    4    0    0  0.33662141591E+02 -0.86807939655E+01  0.12613761008E+03  0.13084033260E+03  0.00000000000E+00 0.  1.
          1    1    1    2  501    0  0.25484264613E+02 -0.69167716682E+01  0.91062295265E+02  0.94813665113E+02  0.00000000000E+00 0. -1.
<scales pt_clust_5="13000.00000" pt_clust_6="13000.00000" pt_clust_7="13000.00000" pt_clust_8="13000.00000" pt_clust_9="13000.00000"></scales>
<clustering>
<clus scale="   82.006">  5  6 -1 -1</clus>
<clus scale="   84.383">  1  5  2 -1</clus>
<clus scale="   89.617">  7  8 -1 -1</clus>
<clus scale="   25.212">  7  9 -1 -1</clus>
<clus scale="  120.794">  2  5  1 -1</clus>
</clustering>
</event>
<event>
 9    2  0.7825698E-005  0.5486482E+03  0.7546771E-02  0.1019593E+00
          2   -1    0    0  502    0 -0.00000000000E+00  0.00000000000E+00  0.35306007489E+03  0.35306007489E+03  0.00000000000E+00 0. -1.
         21   -1    0    0  501  502  0.00000000000E+00 -0.00000000000E+00 -0.53064584723E+03  0.53064584723E+03  0.00000000000E+00 0. -1.
         24    2    1    2    0    0 -0.74108225338E+02 -0.29758617177E+03 -0.68779483402E+02  0.32437264985E+03  0.80233658409E+02 0.  0.
         23    2    1    2    0    0 -0.41355630447E+01 -0.93374874248E+02  0.35967800243E+02  0.13514915326E+03  0.90750432229E+02 0.  0.
        -11    1    3    3    0    0  0.64969969686E+01 -0.85708182881E+02  0.46623110812E+01  0.86080431731E+02  0.00000000000E+00 0.  1.
         12    1    3    3    0    0 -0.80605222307E+02 -0.21187798889E+03 -0.73441794483E+02  0.23829221812E+03  0.00000000000E+00 0. -1.
        -11    1    4    4    0    0 -0.19039886879E+02 -0.29565148494E+02 -0.26950938611E+02  0.44305399105E+02  0.00000000000E+00 0. -1.
         11    1    4    4    0    0  0.14904323834E+02 -0.63809725754E+02  0.62918738854E+02  0.90843754154E+02  0.00000000000E+00 0.  1.
          1    1    1    2  501    0  0.78243788383E+02  0.39096104602E+03 -0.14477408919E+03  0.42418411901E+03  0.00000000000E+00 0. -1.
<scales pt_clust_5="13000.00000" pt_clust_6="13000.00000" pt_clust_7="13000.00000" pt_clust_8="13000.00000" pt_clust_9="13000.00000"></scales>
<clustering>
<clus scale="   80.234">  5  6 -1 -1</clus>
<clus scale="   90.750">  7  8 -1 -1</clus>
<clus scale="  316.997">  1  5  2 -1</clus>
<clus scale="  208.912">  7  9 -1 -1</clus>
<clus scale="  548.648">  2  5  1 -1</clus>
</clustering>
</event>
<event>
 9    2  0.4178938E-005  0.1443996E+03  0.7546771E-02  0.1227784E+00
          2   -1    0    0  502    0 -0.00000000000E+00  0.00000000000E+00  0.35592702447E+03  0.35592702447E+03  0.00000000000E+00 0. -1.
         21   -1    0    0  501  502  0.00000000000E+00 -0.00000000000E+00 -0.13061443336E+03  0.13061443336E+03  0.00000000000E+00 0. -1.
         24    2    1    2    0    0  0.46597601842E+02 -0.17868198910E+02  0.30665881607E+03  0.32080538340E+03  0.79911548078E+02 0.  0.
         23    2    1    2    0    0 -0.20761062367E+02 -0.66282615415E+01 -0.88496319375E+02  0.12942179078E+03  0.91888224619E+02 0.  0.
        -13    1    3    3    0    0  0.82385797900E+01 -0.27761231013E+02  0.31414890234E+02  0.42725349299E+02  0.00000000000E+00 0.  1.
         14    1    3    3    0    0  0.38359022052E+02  0.98930321021E+01  0.27524392584E+03  0.27808003410E+03  0.00000000000E+00 0. -1.
        -11    1    4    4    0    0 -0.23006778469E+02 -0.37812982254E+02 -0.87595558751E+02  0.98143341065E+02  0.00000000000E+00 0. -1.
         11    1    4    4    0    0  0.22457161027E+01  0.31184720713E+02 -0.90076062415E+00  0.31278449713E+02  0.00000000000E+00 0.  1.
          1    1    1    2  501    0 -0.25836539476E+02  0.24496460452E+02  0.71500944102E+01  0.36314283647E+02  0.00000000000E+00 0. -1.
<scales pt_clust_5="13000.00000" pt_clust_6="13000.00000" pt_clust_7="13000.00000" pt_clust_8="13000.00000" pt_clust_9="13000.00000"></scales>
<clustering>
<clus scale="   79.912">  5  6 -1 -1</clus>
<clus scale="   91.888">  7  8 -1 -1</clus>
<clus scale="   35.603">  7  9 -1 -1</clus>
<clus scale="   94.215">  1  5  2 -1</clus>
<clus scale="  144.400">  2  5  1 -1</clus>
</clustering>
</event>
<event>
 9    2  0.4178938E-005  0.1845997E+03  0.7546771E-02  0.1189792E+00
         21   -1    0    0  501  502  0.00000000000E+00  0.00000000000E+00  0.53487403638E+02  0.53487403638E+02  0.00000000000E+00 0.  1.
          2   -1    0    0  502    0 -0.00000000000E+00 -0.00000000000E+00 -0.47171530014E+03  0.47171530014E+03  0.00000000000E+00 0. -1.
         24    2    1    2    0    0  0.59080956700E+02 -0.12217295287E+02 -0.50043423763E+02  0.11333276824E+03  0.81854446096E+02 0.  0.
         23    2    1    2    0    0 -0.16104253478E+02 -0.11635298571E+02 -0.87761310887E+02  0.12717168659E+03  0.89865805668E+02 0.  0.
        -13    1    3    3    0    0  0.61268362023E+02  0.19072301474E+02 -0.14232542569E+02  0.65727696875E+02  0.00000000000E+00 0.  1.
         14    1    3    3    0    0 -0.21874053235E+01 -0.31289596761E+02 -0.35810881194E+02  0.47605071362E+02  0.00000000000E+00 0. -1.
        -11    1    4    4    0    0 -0.38673729549E+02  0.23629708127E+02 -0.65785797457E+02  0.79886116506E+02  0.00000000000E+00 0.  1.
         11    1    4    4    0    0  0.22569476072E+02 -0.35265006697E+02 -0.21975513431E+02  0.47285570083E+02  0.00000000000E+00 0. -1.
          1    1    1    2  501    0 -0.42976703222E+02  0.23852593858E+02 -0.28042316185E+03  0.28469824895E+03  0.00000000000E+00 0. -1.
<scales pt_clust_5="13000.00000" pt_clust_6="13000.00000" pt_clust_7="13000.00000" pt_clust_8="13000.00000" pt_clust_9="13000.00000"></scales>
<clustering>
<clus scale="   81.854">  5  6 -1 -1</clus>
<clus scale="   89.866">  7  8 -1 -1</clus>
<clus scale="   49.152">  7  9 -1 -1</clus>
<clus scale="  101.686">  2  5  1 -1</clus>
<clus scale="  184.600">  1  5  2 -1</clus>
</clustering>
</event>
<event>
 9    2  0.4178938E-005  0.3159721E+03  0.7546771E-02  0.1122696E+00
          2   -1    0    0  502    0 -0.00000000000E+00  0.00000000000E+00  0.92580862146E+03  0.92580862146E+03  0.00000000000E+00 0. -1.
         21   -1    0    0  501  502  0.00000000000E+00 -0.00000000000E+00 -0.63137986609E+02  0.63137986609E+02  0.00000000000E+00 0.  1.
         24    2    1    2    0    0 -0.40243884281E+02  0.37343391399E+02  0.36489724766E+02  0.10440533037E+03  0.80962175692E+02 0.  0.
         23    2    1    2    0    0 -0.68723340718E+02 -0.62264871868E+02  0.15252945080E+03  0.20167875499E+03  0.93857738241E+02 0.  0.
        -11    1    3    3    0    0 -0.22970222745E+02 -0.13731997289E+02 -0.14291709677E+02  0.30338949355E+02  0.00000000000E+00 0.  1.
         12    1    3    3    0    0 -0.17273661536E+02  0.51075388687E+02  0.50781434443E+02  0.74066381014E+02  0.00000000000E+00 0. -1.
        -11    1    4    4    0    0 -0.28945163642E+02 -0.81713186313E+02  0.88996973762E+02  0.12423899812E+03  0.00000000000E+00 0.  1.
         11    1    4    4    0    0 -0.39778177076E+02  0.19448314445E+02  0.63532477034E+02  0.77439756872E+02  0.00000000000E+00 0. -1.
          1    1    1    2  501    0  0.10896722500E+03  0.24921480469E+02  0.67365145929E+03  0.68286252270E+03  0.00000000000E+00 0. -1.
<scales pt_clust_5="13000.00000" pt_clust_6="13000.00000" pt_clust_7="13000.00000" pt_clust_8="13000.00000" pt_clust_9="13000.00000"></scales>
<clustering>
<clus scale="   80.962">  5  6 -1 -1</clus>
<clus scale="   93.858">  7  8 -1 -1</clus>
<clus scale="   97.821">  1  5  2 -1</clus>
<clus scale="   94.401">  7  9 -1 -1</clus>
<clus scale="  315.972">  2  5  1 -1</clus>
</clustering>
</event>
<event>
 9    2  0.4576998E-005  0.1535078E+03  0.7546771E-02  0.1219981E+00
         21   -1    0    0  501  502  0.00000000000E+00  0.00000000000E+00  0.91786590966E+02  0.91786590966E+02  0.00000000000E+00 0.  1.
          2   -1    0    0  502    0 -0.00000000000E+00 -0.00000000000E+00 -0.17773841337E+03  0.17773841337E+03  0.00000000000E+00 0. -1.
         24    2    1    2    0    0 -0.49398622905E+02  0.35571918565E+02  0.25791136722E+01  0.92317900096E+02  0.69356740952E+02 0.  0.
         23    2    1    2    0    0  0.78147592628E+01  0.10851145611E+02 -0.61344070974E+02  0.10921119086E+03  0.89359785929E+02 0.  0.
        -11    1    3    3    0    0 -0.45557734882E+02 -0.55566554594E+01  0.16433713455E+02  0.48748851939E+02  0.00000000000E+00 0.  1.
         12    1    3    3    0    0 -0.38408880233E+01  0.41128574025E+02 -0.13854599783E+02  0.43569048157E+02  0.00000000000E+00 0. -1.
        -11    1    4    4    0    0  0.36852382383E+02  0.31833505574E+02 -0.15656604968E+02  0.51152707100E+02  0.00000000000E+00 0.  1.
         11    1    4    4    0    0 -0.29037623121E+02 -0.20982359963E+02 -0.45687466006E+02  0.58058483757E+02  0.00000000000E+00 0. -1.
          1    1    1    2  501    0  0.41583863642E+02 -0.46423064176E+02 -0.27186865105E+02  0.67995913386E+02  0.00000000000E+00 0. -1.
<scales pt_clust_5="13000.00000" pt_clust_6="13000.00000" pt_clust_7="13000.00000" pt_clust_8="13000.00000" pt_clust_9="13000.00000"></scales>
<clustering>
<clus scale="   69.357">  5  6 -1 -1</clus>
<clus scale="   89.360">  7  8 -1 -1</clus>
<clus scale="   62.324">  7  9 -1 -1</clus>
<clus scale="   92.282">  2  5  1 -1</clus>
<clus scale="  153.508">  1  5  2 -1</clus>
</clustering>
</event>
<event>
 9    2  0.4178938E-005  0.2476189E+03  0.7546771E-02  0.1158843E+00
         21   -1    0    0  501  502  0.00000000000E+00  0.00000000000E+00  0.17831430596E+03  0.17831430596E+03  0.00000000000E+00 0. -1.
          2   -1    0    0  502    0 -0.00000000000E+00 -0.00000000000E+00 -0.75828870373E+03  0.75828870373E+03  0.00000000000E+00 0. -1.
         24    2    1    2    0    0  0.11460498101E+02 -0.24350541155E+02 -0.66830728884E+03  0.67370036134E+03  0.80704725271E+02 0.  0.
         23    2    1    2    0    0 -0.57177973288E+02 -0.46219505921E+02 -0.27982606954E+02  0.11937733990E+03  0.89790643346E+02 0.  0.
        -11    1    3    3    0    0  0.92301510584E-01  0.27258221185E+02 -0.13133303423E+03  0.13413196868E+03  0.00000000000E+00 0.  1.
         12    1    3    3    0    0  0.11368196590E+02 -0.51608762340E+02 -0.53697425462E+03  0.53956839267E+03  0.00000000000E+00 0. -1.
        -11    1    4    4    0    0  0.37910709914E+01 -0.43593531620E+02  0.13259074145E+02  0.45722765287E+02  0.00000000000E+00 0. -1.
         11    1    4    4    0    0 -0.60969044279E+02 -0.26259743011E+01 -0.41241681099E+02  0.73654574612E+02  0.00000000000E+00 0.  1.
          1    1    1    2  501    0  0.45717475187E+02  0.70570047076E+02  0.11631549803E+03  0.14352530845E+03  0.00000000000E+00 0. -1.
<scales pt_clust_5="13000.00000" pt_clust_6="13000.00000" pt_clust_7="13000.00000" pt_clust_8="13000.00000" pt_clust_9="13000.00000"></scales>
<clustering>
<clus scale="   80.705">  5  6 -1 -1</clus>
<clus scale="   85.074">  2  5  1 -1</clus>
<clus scale="   89.791">  7  8 -1 -1</clus>
<clus scale="   81.948">  7  9 -1 -1</clus>
<clus scale="  247.619">  1  5  2 -1</clus>
</clustering>
</event>
<event>
 9    2  0.4178938E-005  0.4669149E+03  0.7546771E-02  0.1068000E+00
         21   -1    0    0  501  502  0.00000000000E+00  0.00000000000E+00  0.57722610610E+03  0.57722610610E+03  0.00000000000E+00 0. -1.
          2   -1    0    0  502    0 -0.00000000000E+00 -0.00000000000E+00 -0.20436714473E+03  0.20436714473E+03  0.00000000000E+00 0. -1.
         24    2    1    2    0    0  0.78904882454E+02  0.55619082954E+02 -0.63971259422E+02  0.14219496375E+03  0.82508319703E+02 0.  0.
         23    2    1    2    0    0  0.73197267112E+02  0.15989263169E+03  0.22011106781E+03  0.29800766869E+03  0.97140078465E+02 0.  0.
        -11    1    3    3    0    0  0.14266354009E+02  0.27517647381E+02  0.16587295622E+02  0.35155200898E+02  0.00000000000E+00 0.  1.
         12    1    3    3    0    0  0.64638528444E+02  0.28101435573E+02 -0.80558555044E+02  0.10703976285E+03  0.00000000000E+00 0. -1.
        -11    1    4    4    0    0  0.42474253202E+02  0.22826953922E+02  0.17148069101E+02  0.51178005865E+02  0.00000000000E+00 0.  1.
         11    1    4    4    0    0  0.30723013910E+02  0.13706567777E+03  0.20296299870E+03  0.24682966282E+03  0.00000000000E+00 0. -1.
          1    1    1    2  501    0 -0.15210214957E+03 -0.21551171465E+03  0.21671915299E+03  0.34139061839E+03  0.00000000000E+00 0. -1.
<scales pt_clust_5="13000.00000" pt_clust_6="13000.00000" pt_clust_7="13000.00000" pt_clust_8="13000.00000" pt_clust_9="13000.00000"></scales>
<clustering>
<clus scale="   82.508">  5  6 -1 -1</clus>
<clus scale="   97.140">  7  8 -1 -1</clus>
<clus scale="  126.992">  2  5  1 -1</clus>
<clus scale="  208.766">  7  9 -1 -1</clus>
<clus scale="  466.915">  1  5  2 -1</clus>
</clustering>
</event>
<event>
 9    2  0.4178938E-005  0.4637581E+03  0.7546771E-02  0.1064922E+00
          2   -1    0    0  502    0 -0.00000000000E+00  0.00000000000E+00  0.38674212312E+03  0.38674212312E+03  0.00000000000E+00 0. -1.
         21   -1    0    0  501  502  0.00000000000E+00 -0.00000000000E+00 -0.32024994724E+03  0.32024994724E+03  0.00000000000E+00 0. -1.
         24    2    1    2    0    0 -0.11663984344E+03  0.47651746098E+02  0.18080495715E+03  0.22935308026E+03  0.63536296004E+02 0.  0.
         23    2    1    2    0    0  0.38120449108E+02  0.40634995376E+02  0.15224102914E+03  0.18607291209E+03  0.91331408453E+02 0.  0.
        -13    1    3    3    0    0 -0.43952796258E+02 -0.51436081453E+01  0.28844536821E+02  0.52823406820E+02  0.00000000000E+00 0.  1.
         14    1    3    3    0    0 -0.72687047184E+02  0.52795354243E+02  0.15196042033E+03  0.17652967344E+03  0.00000000000E+00 0. -1.
        -11    1    4    4    0    0  0.64499204478E+02  0.36923174969E+02  0.80577208880E+02  0.10961822302E+03  0.00000000000E+00 0.  1.
         11    1    4    4    0    0 -0.26378755370E+02  0.37118204065E+01  0.71663820262E+02  0.76454689066E+02  0.00000000000E+00 0. -1.
          1    1    1    2  501    0  0.78519394333E+02 -0.88286741474E+02 -0.26655381041E+03  0.29156607802E+03  0.00000000000E+00 0. -1.
<scales pt_clust_5="13000.00000" pt_clust_6="13000.00000" pt_clust_7="13000.00000" pt_clust_8="13000.00000" pt_clust_9="13000.00000"></scales>
<clustering>
<clus scale="   63.536">  5  6 -1 -1</clus>
<clus scale="   91.331">  7  8 -1 -1</clus>
<clus scale="  118.152">  7  9 -1 -1</clus>
<clus scale="  141.111">  1  5  2 -1</clus>
<clus scale="  463.758">  2  5  1 -1</clus>
</clustering>
</event>
<event>
 9    2  0.4178938E-005  0.2088084E+03  0.7546771E-02  0.1172289E+00
         21   -1    0    0  501  502  0.00000000000E+00  0.00000000000E+00  0.17653438489E+03  0.17653438489E+03  0.00000000000E+00 0. -1.
          2   -1    0    0  502    0 -0.00000000000E+00 -0.00000000000E+00 -0.13866340181E+03  0.13866340181E+03  0.00000000000E+00 0. -1.
         24    2    1    2    0    0  0.50787926577E+02 -0.42010067794E+02  0.10094326340E+02  0.10454997296E+03  0.80526654846E+02 0.  0.
         23    2    1    2    0    0  0.37329838093E+02 -0.49054441981E+01  0.46458482334E+02  0.10908592952E+03  0.91234693205E+02 0.  0.
        -11    1    3    3    0    0  0.61456525511E+02 -0.26019994924E+01  0.15318863666E+02  0.63390397642E+02  0.00000000000E+00 0.  1.
         12    1    3    3    0    0 -0.10668598934E+02 -0.39408068302E+02 -0.52245373265E+01  0.41159575323E+02  0.00000000000E+00 0. -1.
        -13    1    4    4    0    0  0.33537945939E+02  0.28894761737E+02  0.58183306336E+02  0.73109494663E+02  0.00000000000E+00 0. -1.
         13    1    4    4    0    0  0.37918921538E+01 -0.33800205935E+02 -0.11724824002E+02  0.35976434860E+02  0.00000000000E+00 0.  1.
          1    1    1    2  501    0 -0.88117764670E+02  0.46915511992E+02 -0.18681825598E+02  0.10156188421E+03  0.00000000000E+00 0. -1.
<scales pt_clust_5="13000.00000" pt_clust_6="13000.00000" pt_clust_7="13000.00000" pt_clust_8="13000.00000" pt_clust_9="13000.00000"></scales>
<clustering>
<clus scale="   80.527">  5  6 -1 -1</clus>
<clus scale="   91.235">  7  8 -1 -1</clus>
<clus scale="   99.829">  7  9 -1 -1</clus>
<clus scale="  104.062">  2  5  1 -1</clus>
<clus scale="  208.808">  1  5  2 -1</clus>
</clustering>
</event>
<event>
 9    2  0.4178938E-005  0.1495044E+03  0.7546771E-02  0.1216784E+00
         -1   -1    0    0    0  501 -0.00000000000E+00  0.00000000000E+00  0.19855389748E+03  0.19855389748E+03  0.00000000000E+00 0.  1.
         21   -1    0    0  501  502  0.00000000000E+00 -0.00000000000E+00 -0.83863229224E+02  0.83863229224E+02  0.00000000000E+00 0. -1.
         24    2    1    2    0    0  0.20433999038E+02 -0.69818423259E+02  0.64001226076E+02  0.12455335278E+03  0.78263786047E+02 0.  0.
         23    2    1    2    0    0 -0.80230873852E+01  0.49551667352E+02  0.10298724297E+02  0.11100033173E+03  0.98464573597E+02 0.  0.
        -11    1    3    3    0    0 -0.15961359218E+02 -0.67831797250E+02  0.48737895789E+02  0.85037051878E+02  0.00000000000E+00 0.  1.
         12    1    3    3    0    0  0.36395358256E+02 -0.19866260090E+01  0.15263330288E+02  0.39516300901E+02  0.00000000000E+00 0. -1.
        -11    1    4    4    0    0  0.19218228822E+02  0.21809378509E+02  0.48467114344E+02  0.56515931231E+02  0.00000000000E+00 0.  1.
         11    1    4    4    0    0 -0.27241316207E+02  0.27742288844E+02 -0.38168390048E+02  0.54484400500E+02  0.00000000000E+00 0. -1.
         -2    1    1    2    0  502 -0.12410911653E+02  0.20266755907E+02  0.40390717883E+02  0.46863442192E+02  0.00000000000E+00 0.  1.
<scales pt_clust_5="13000.00000" pt_clust_6="13000.00000" pt_clust_7="13000.00000" pt_clust_8="13000.00000" pt_clust_9="13000.00000"></scales>
<clustering>
<clus scale="   78.264">  5  6 -1 -1</clus>
<clus scale="   98.465">  7  8 -1 -1</clus>
<clus scale="   23.765">  7  9 -1 -1</clus>
<clus scale="  106.852">  1  5  2 -1</clus>
<clus scale="  149.504">  2  5  1 -1</clus>
</clustering>
</event>
<event>
 9    2  0.4178938E-005  0.4786835E+03  0.7546771E-02  0.1079853E+00
         21   -1    0    0  501  502  0.00000000000E+00  0.00000000000E+00  0.13061574662E+04  0.13061574662E+04  0.00000000000E+00 0. -1.
          4   -1    0    0  502    0 -0.00000000000E+00 -0.00000000000E+00 -0.60970308728E+02  0.60970308728E+02  0.00000000000E+00 0. -1.
         24    2    1    2    0    0  0.27079642920E+02  0.13310991702E+02  0.20725774834E+03  0.22413374514E+03  0.79810224309E+02 0.  0.
         23    2    1    2    0    0  0.17824459080E+03  0.75580017562E+02  0.73997743501E+03  0.77038829799E+03  0.91913286093E+02 0.  0.
        -11    1    3    3    0    0  0.10329822177E+02 -0.33613978676E+02  0.76139909256E+02  0.83868292996E+02  0.00000000000E+00 0.  1.
         12    1    3    3    0    0  0.16749820742E+02  0.46924970378E+02  0.13111783908E+03  0.14026545215E+03  0.00000000000E+00 0. -1.
        -11    1    4    4    0    0  0.16110600790E+03  0.41800912681E+02  0.67461307883E+03  0.69484190159E+03  0.00000000000E+00 0. -1.
         11    1    4    4    0    0  0.17138582904E+02  0.33779104881E+02  0.65364356178E+02  0.75546396400E+02  0.00000000000E+00 0.  1.
          3    1    1    2  501    0 -0.20532423372E+03 -0.88891009264E+02  0.29795197415E+03  0.37260573181E+03  0.00000000000E+00 0. -1.
<scales pt_clust_5="13000.00000" pt_clust_6="13000.00000" pt_clust_7="13000.00000" pt_clust_8="13000.00000" pt_clust_9="13000.00000"></scales>
<clustering>
<clus scale="   79.810">  5  6 -1 -1</clus>
<clus scale="   85.324">  2  5  1 -1</clus>
<clus scale="   91.913">  7  8 -1 -1</clus>
<clus scale="  202.328">  7  9 -1 -1</clus>
<clus scale="  478.684">  1  5  2 -1</clus>
</clustering>
</event>
<event>
 9    2  0.4178938E-005  0.6960190E+03  0.7546771E-02  0.1013456E+00
         21   -1    0    0  501  502  0.00000000000E+00  0.00000000000E+00  0.12619473231E+03  0.12619473231E+03  0.00000000000E+00 0. -1.
          2   -1    0    0  502    0 -0.00000000000E+00 -0.00000000000E+00 -0.16136232441E+04  0.16136232441E+04  0.00000000000E+00 0. -1.
         24    2    1    2    0    0 -0.12731252452E+03  0.11223384700E+03 -0.48112164458E+03  0.51625923863E+03  0.78997780169E+02 0.  0.
         23    2    1    2    0    0 -0.19553085371E+03 -0.21781803207E+03 -0.70724755096E+03  0.77099676230E+03  0.92519723773E+02 0.  0.
        -13    1    3    3    0    0 -0.72103679667E+02  0.55021244869E+02 -0.14635151690E+03  0.17217736352E+03  0.00000000000E+00 0.  1.
         14    1    3    3    0    0 -0.55208844853E+02  0.57212602128E+02 -0.33477012768E+03  0.34408187511E+03  0.00000000000E+00 0. -1.
        -11    1    4    4    0    0 -0.17037280194E+03 -0.21789103038E+03 -0.59767785811E+03  0.65857589907E+03  0.00000000000E+00 0. -1.
         11    1    4    4    0    0 -0.25158051773E+02  0.72998308995E-01 -0.10956969285E+03  0.11242086323E+03  0.00000000000E+00 0.  1.
          1    1    1    2  501    0  0.32284337823E+03  0.10558418508E+03 -0.29905931624E+03  0.45256197546E+03  0.00000000000E+00 0. -1.
<scales pt_clust_5="13000.00000" pt_clust_6="13000.00000" pt_clust_7="13000.00000" pt_clust_8="13000.00000" pt_clust_9="13000.00000"></scales>
<clustering>
<clus scale="   78.998">  5  6 -1 -1</clus>
<clus scale="   92.520">  7  8 -1 -1</clus>
<clus scale="  187.205">  2  5  1 -1</clus>
<clus scale="  314.529">  7  9 -1 -1</clus>
<clus scale="  696.019">  1  5  2 -1</clus>
</clustering>
</event>
<event>
 9    2  0.4178938E-005  0.6548518E+03  0.7546771E-02  0.1034713E+00
         21   -1    0    0  501  502  0.00000000000E+00  0.00000000000E+00  0.12966719731E+04  0.12966719731E+04  0.00000000000E+00 0. -1.
          2   -1    0    0  502    0 -0.00000000000E+00 -0.00000000000E+00 -0.50539791260E+03  0.50539791260E+03  0.00000000000E+00 0. -1.
         24    2    1    2    0    0  0.76576235529E+02 -0.40662976711E+02 -0.41383615383E+03  0.43053006033E+03  0.81107170533E+02 0.  0.
         23    2    1    2    0    0  0.57773152759E+02 -0.10035025795E+03 -0.19959423464E+01  0.14882163871E+03  0.93466490851E+02 0.  0.
        -11    1    3    3    0    0  0.30229946477E+02  0.20310630055E+02 -0.78174543064E+02  0.86241698386E+02  0.00000000000E+00 0.  1.
         12    1    3    3    0    0  0.46346289052E+02 -0.60973606767E+02 -0.33566161077E+03  0.34428836195E+03  0.00000000000E+00 0. -1.
        -11    1    4    4    0    0 -0.15779843401E+02 -0.44931798140E+02  0.23723342075E+02  0.53204012077E+02  0.00000000000E+00 0.  1.
         11    1    4    4    0    0  0.73552996159E+02 -0.55418459807E+02 -0.25719284421E+02  0.95617626631E+02  0.00000000000E+00 0. -1.
          1    1    1    2  501    0 -0.13434938829E+03  0.14101323466E+03  0.12071061566E+04  0.12227181866E+04  0.00000000000E+00 0. -1.
<scales pt_clust_5="13000.00000" pt_clust_6="13000.00000" pt_clust_7="13000.00000" pt_clust_8="13000.00000" pt_clust_9="13000.00000"></scales>
<clustering>
<clus scale="   81.107">  5  6 -1 -1</clus>
<clus scale="   93.466">  7  8 -1 -1</clus>
<clus scale="  118.726">  2  5  1 -1</clus>
<clus scale="  187.069">  7  9 -1 -1</clus>
<clus scale="  654.852">  1  5  2 -1</clus>
</clustering>
</event>
<event>
 9    2  0.4178938E-005  0.3474818E+03  0.7546771E-02  0.1077430E+00
         21   -1    0    0  501  502  0.00000000000E+00  0.00000000000E+00  0.37434853238E+02  0.37434853238E+02  0.00000000000E+00 0. -1.
          2   -1    0    0  502    0 -0.00000000000E+00 -0.00000000000E+00 -0.23031174034E+04  0.23031174034E+04  0.00000000000E+00 0. -1.
         24    2    1    2    0    0  0.21814346099E+03 -0.50846819757E+02 -0.10080650554E+04  0.10358126716E+04  0.80875002852E+02 0.  0.
         23    2    1    2    0    0 -0.66884436377E+02 -0.83127798800E+02 -0.40794602001E+03  0.43137247668E+03  0.90986260677E+02 0.  0.
        -13    1    3    3    0    0  0.11171028569E+03 -0.29491832540E+02 -0.34274232733E+03  0.36169221592E+03  0.00000000000E+00 0.  1.
         14    1    3    3    0    0  0.10643317530E+03 -0.21354987217E+02 -0.66532272806E+03  0.67412045568E+03  0.00000000000E+00 0. -1.
        -11    1    4    4    0    0  0.14152155865E+02 -0.20311691216E+02 -0.25986906014E+02  0.35891051808E+02  0.00000000000E+00 0.  1.
         11    1    4    4    0    0 -0.81036592242E+02 -0.62816107584E+02 -0.38195911400E+03  0.39548142487E+03  0.00000000000E+00 0. -1.
          1    1    1    2  501    0 -0.15125902461E+03  0.13397461856E+03 -0.84967147474E+03  0.87336710834E+03  0.00000000000E+00 0. -1.
<scales pt_clust_5="13000.00000" pt_clust_6="13000.00000" pt_clust_7="13000.00000" pt_clust_8="13000.00000" pt_clust_9="13000.00000"></scales>
<clustering>
<clus scale="   80.875">  5  6 -1 -1</clus>
<clus scale="   90.986">  7  8 -1 -1</clus>
<clus scale="  202.061">  7  9 -1 -1</clus>
<clus scale="  238.144">  2  5  1 -1</clus>
<clus scale="  347.482">  1  5  2 -1</clus>
</clustering>
</event>
<event>
 9    2  0.4178938E-005  0.3887160E+03  0.7546771E-02  0.1102528E+00
          2   -1    0    0  502    0 -0.00000000000E+00  0.00000000000E+00  0.17141580785E+04  0.17141580785E+04  0.00000000000E+00 0. -1.
         21   -1    0    0  501  502  0.00000000000E+00 -0.00000000000E+00 -0.34023893774E+02  0.34023893774E+02  0.00000000000E+00 0. -1.
         24    2    1    2    0    0  0.38076216321E+02  0.39527149281E+01  0.43685360876E+03  0.44555129088E+03  0.78800095879E+02 0.  0.
         23    2    1    2    0    0 -0.45377703140E+01 -0.18094209407E+03  0.54619766127E+03  0.58264828047E+03  0.91577840044E+02 0.  0.
        -11    1    3    3    0    0 -0.22348644842E+02 -0.11296787164E+02  0.11066423773E+03  0.11346212072E+03  0.00000000000E+00 0.  1.
         12    1    3    3    0    0  0.60424861163E+02  0.15249502092E+02  0.32618937103E+03  0.33208917015E+03  0.00000000000E+00 0. -1.
        -11    1    4    4    0    0  0.35101605439E+02 -0.28735740004E+02  0.11176724241E+03  0.12062247691E+03  0.00000000000E+00 0.  1.
         11    1    4    4    0    0 -0.39639375753E+02 -0.15220635407E+03  0.43443041886E+03  0.46202580357E+03  0.00000000000E+00 0. -1.
          1    1    1    2  501    0 -0.33538446007E+02  0.17698937915E+03  0.69708291473E+03  0.71998240097E+03  0.00000000000E+00 0. -1.
<scales pt_clust_5="13000.00000" pt_clust_6="13000.00000" pt_clust_7="13000.00000" pt_clust_8="13000.00000" pt_clust_9="13000.00000"></scales>
<clustering>
<clus scale="   78.800">  5  6 -1 -1</clus>
<clus scale="   87.606">  1  5  2 -1</clus>
<clus scale="   91.578">  7  8 -1 -1</clus>
<clus scale="  179.614">  7  9 -1 -1</clus>
<clus scale="  388.716">  2  5  1 -1</clus>
</clustering>
</event>
<event>
 9    2  0.4178938E-005  0.4479025E+03  0.7546771E-02  0.1073489E+00
         21   -1    0    0  501  502  0.00000000000E+00  0.00000000000E+00  0.27984080047E+03  0.27984080047E+03  0.00000000000E+00 0. -1.
          2   -1    0    0  502    0 -0.00000000000E+00 -0.00000000000E+00 -0.29685920371E+03  0.29685920371E+03  0.00000000000E+00 0. -1.
         24    2    1    2    0    0  0.20354329638E+02 -0.92314728902E+02 -0.34422641074E+02  0.12845946116E+03  0.79878702022E+02 0.  0.
         23    2    1    2    0    0  0.12541952799E+03 -0.61056869430E+02 -0.11186396061E+03  0.20028261942E+03  0.90230719010E+02 0.  0.
        -11    1    3    3    0    0 -0.13823116179E+02 -0.26684636219E+02 -0.44586191534E+02  0.53768734656E+02  0.00000000000E+00 0.  1.
         12    1    3    3    0    0  0.34177445817E+02 -0.65630092684E+02  0.10163550460E+02  0.74690726508E+02  0.00000000000E+00 0. -1.
        -13    1    4    4    0    0  0.12252964921E+03 -0.20166898303E+02 -0.74466033064E+02  0.14479436730E+03  0.00000000000E+00 0.  1.
         13    1    4    4    0    0  0.28898787785E+01 -0.40889971127E+02 -0.37397927549E+02  0.55488252118E+02  0.00000000000E+00 0. -1.
          1    1    1    2  501    0 -0.14577385763E+03  0.15337159833E+03  0.12926819844E+03  0.24795792359E+03  0.00000000000E+00 0. -1.
<scales pt_clust_5="13000.00000" pt_clust_6="13000.00000" pt_clust_7="13000.00000" pt_clust_8="13000.00000" pt_clust_9="13000.00000"></scales>
<clustering>
<clus scale="   79.879">  5  6 -1 -1</clus>
<clus scale="   90.231">  7  8 -1 -1</clus>
<clus scale="  123.762">  2  5  1 -1</clus>
<clus scale="  189.777">  7  9 -1 -1</clus>
<clus scale="  447.903">  1  5  2 -1</clus>
</clustering>
</event>
<event>
 9    2  0.4178938E-005  0.3009767E+03  0.7546771E-02  0.1127039E+00
         21   -1    0    0  501  502  0.00000000000E+00  0.00000000000E+00  0.19757875736E+03  0.19757875736E+03  0.00000000000E+00 0. -1.
          2   -1    0    0  502    0 -0.00000000000E+00 -0.00000000000E+00 -0.21547956499E+03  0.21547956499E+03  0.00000000000E+00 0. -1.
         24    2    1    2    0    0  0.44221225681E+02 -0.43429944024E+02  0.34954848165E+02  0.10747578232E+03  0.80545176993E+02 0.  0.
         23    2    1    2    0    0 -0.31857983624E+02 -0.13548945519E+02 -0.16230661729E+03  0.18157061891E+03  0.73661024914E+02 0.  0.
        -11    1    3    3    0    0  0.20658498076E+02  0.18801723440E+02 -0.70174151941E+01  0.28801431616E+02  0.00000000000E+00 0.  1.
         12    1    3    3    0    0  0.23562727605E+02 -0.62231667465E+02  0.41972263359E+02  0.78674350707E+02  0.00000000000E+00 0. -1.
        -11    1    4    4    0    0 -0.33250115480E+02  0.25167679050E+02 -0.70263131501E+02  0.81706119089E+02  0.00000000000E+00 0.  1.
         11    1    4    4    0    0  0.13921318562E+01 -0.38716624569E+02 -0.92043485788E+02  0.99864499824E+02  0.00000000000E+00 0. -1.
          1    1    1    2  501    0 -0.12363242058E+02  0.56978889543E+02  0.10945096149E+03  0.12401192112E+03  0.00000000000E+00 0. -1.
<scales pt_clust_5="13000.00000" pt_clust_6="13000.00000" pt_clust_7="13000.00000" pt_clust_8="13000.00000" pt_clust_9="13000.00000"></scales>
<clustering>
<clus scale="   73.661">  7  8 -1 -1</clus>
<clus scale="   58.305">  7  9 -1 -1</clus>
<clus scale="   80.545">  5  6 -1 -1</clus>
<clus scale="  101.633">  2  5  1 -1</clus>
<clus scale="  300.977">  1  5  2 -1</clus>
</clustering>
</event>
<event>
 9    2  0.4178938E-005  0.2142411E+03  0.7546771E-02  0.1177408E+00
          2   -1    0    0  502    0 -0.00000000000E+00  0.00000000000E+00  0.10524062364E+03  0.10524062364E+03  0.00000000000E+00 0. -1.
         21   -1    0    0  501  502  0.00000000000E+00 -0.00000000000E+00 -0.34432248167E+03  0.34432248167E+03  0.00000000000E+00 0.  1.
         24    2    1    2    0    0 -0.22167738252E+02  0.24878750987E+02  0.42508597863E+02  0.95737706147E+02  0.79046610402E+02 0.  0.
         23    2    1    2    0    0  0.71853946092E+02 -0.38067331030E+02 -0.27672566905E+03  0.30218893875E+03  0.90160676177E+02 0.  0.
        -13    1    3    3    0    0 -0.15859165167E+02 -0.18994864790E+02 -0.10290760743E+02  0.26799585162E+02  0.00000000000E+00 0.  1.
         14    1    3    3    0    0 -0.63085730854E+01  0.43873615777E+02  0.52799358606E+02  0.68938120985E+02  0.00000000000E+00 0. -1.
        -13    1    4    4    0    0  0.37686528777E+02  0.19088714467E+02 -0.17910342237E+03  0.18401817676E+03  0.00000000000E+00 0.  1.
         13    1    4    4    0    0  0.34167417315E+02 -0.57156045498E+02 -0.97622246681E+02  0.11817076199E+03  0.00000000000E+00 0. -1.
          1    1    1    2  501    0 -0.49686207839E+02  0.13188580043E+02 -0.48647868352E+01  0.51636460413E+02  0.00000000000E+00 0. -1.
<scales pt_clust_5="13000.00000" pt_clust_6="13000.00000" pt_clust_7="13000.00000" pt_clust_8="13000.00000" pt_clust_9="13000.00000"></scales>
<clustering>
<clus scale="   79.047">  5  6 -1 -1</clus>
<clus scale="   85.783">  1  5  2 -1</clus>
<clus scale="   90.161">  7  8 -1 -1</clus>
<clus scale="   70.423">  7  9 -1 -1</clus>
<clus scale="  214.241">  2  5  1 -1</clus>
</clustering>
</event>
<event>
 9    2  0.4178938E-005  0.2757280E+03  0.7546771E-02  0.1121637E+00
          2   -1    0    0  502    0 -0.00000000000E+00  0.00000000000E+00  0.24304977034E+03  0.24304977034E+03  0.00000000000E+00 0. -1.
         21   -1    0    0  501  502  0.00000000000E+00 -0.00000000000E+00 -0.19212339729E+03  0.19212339729E+03  0.00000000000E+00 0. -1.
         24    2    1    2    0    0  0.12819165206E+03  0.12951330525E+02  0.50766739014E+02  0.15944515716E+03  0.79023159470E+02 0.  0.
         23    2    1    2    0    0  0.44030273285E+02 -0.20138713496E+02  0.88099753885E+00  0.10335466447E+03  0.91308147309E+02 0.  0.
        -11    1    3    3    0    0  0.12413691095E+03 -0.10789098492E+02  0.52683882987E+02  0.13528476941E+03  0.00000000000E+00 0.  1.
         12    1    3    3    0    0  0.40547411022E+01  0.23740429016E+02 -0.19171439732E+01  0.24160387751E+02  0.00000000000E+00 0. -1.
        -11    1    4    4    0    0  0.16748785729E+02 -0.26730234460E+02 -0.41742305343E+02  0.52320620342E+02  0.00000000000E+00 0.  1.
         11    1    4    4    0    0  0.27281487557E+02  0.65915209639E+01  0.42623302881E+02  0.51034044132E+02  0.00000000000E+00 0. -1.
          1    1    1    2  501    0 -0.17222192534E+03  0.71873829711E+01 -0.72136350446E+00  0.17237334599E+03  0.00000000000E+00 0. -1.
<scales pt_clust_5="13000.00000" pt_clust_6="13000.00000" pt_clust_7="13000.00000" pt_clust_8="13000.00000" pt_clust_9="13000.00000"></scales>
<clustering>
<clus scale="   79.023">  5  6 -1 -1</clus>
<clus scale="   91.308">  7  8 -1 -1</clus>
<clus scale="  151.147">  1  5  2 -1</clus>
<clus scale="   93.712">  7  9 -1 -1</clus>
<clus scale="  275.728">  2  5  1 -1</clus>
</clustering>
</event>
<event>
 9    2  0.4178938E-005  0.4302859E+03  0.7546771E-02  0.1039146E+00
          2   -1    0    0  502    0 -0.00000000000E+00  0.00000000000E+00  0.48126366344E+03  0.48126366344E+03  0.00000000000E+00 0. -1.
         21   -1    0    0  501  502  0.00000000000E+00 -0.00000000000E+00 -0.33181005159E+03  0.33181005159E+03  0.00000000000E+00 0. -1.
         24    2    1    2    0    0 -0.35737136628E+03 -0.31901979902E+02  0.45272315891E+02  0.37035521691E+03  0.79883504850E+02 0.  0.
         23    2    1    2    0    0  0.26244767196E+03 -0.74885367337E+01 -0.22083043887E+02  0.27991553728E+03  0.94499674497E+02 0.  0.
        -13    1    3    3    0    0 -0.20953725829E+02 -0.22644468825E+02  0.70469804542E+01  0.31646335143E+02  0.00000000000E+00 0.  1.
         14    1    3    3    0    0 -0.33641764045E+03 -0.92575110777E+01  0.38225335437E+02  0.33870888177E+03  0.00000000000E+00 0. -1.
        -11    1    4    4    0    0  0.22411953812E+03  0.22421522547E+02 -0.38695825543E+02  0.22853809082E+03  0.00000000000E+00 0. -1.
         11    1    4    4    0    0  0.38328133840E+02 -0.29910059281E+02  0.16612781656E+02  0.51377446454E+02  0.00000000000E+00 0.  1.
          1    1    1    2  501    0  0.94923694319E+02  0.39390516636E+02  0.12626433984E+03  0.16280296084E+03  0.00000000000E+00 0. -1.
<scales pt_clust_5="13000.00000" pt_clust_6="13000.00000" pt_clust_7="13000.00000" pt_clust_8="13000.00000" pt_clust_9="13000.00000"></scales>
<clustering>
<clus scale="   79.884">  5  6 -1 -1</clus>
<clus scale="   94.500">  7  8 -1 -1</clus>
<clus scale="  102.772">  7  9 -1 -1</clus>
<clus scale="  367.578">  1  5  2 -1</clus>
<clus scale="  430.286">  2  5  1 -1</clus>
</clustering>
</event>
<event>
 9    2  0.4178938E-005  0.1770713E+03  0.7546771E-02  0.1203992E+00
          2   -1    0    0  502    0 -0.00000000000E+00  0.00000000000E+00  0.13531682012E+04  0.13531682012E+04  0.00000000000E+00 0. -1.
         21   -1    0    0  501  502  0.00000000000E+00 -0.00000000000E+00 -0.46659583333E+02  0.46659583333E+02  0.00000000000E+00 0.  1.
         24    2    1    2    0    0 -0.16797817462E+02 -0.20399643301E+02  0.11780290343E+04  0.11810556315E+04  0.80260120349E+02 0.  0.
         23    2    1    2    0    0  0.32444462637E+02  0.62066464790E+02  0.44054453417E+02  0.12333346005E+03  0.91462879327E+02 0.  0.
        -11    1    3    3    0    0  0.17718607251E+02  0.13790274682E+02  0.13176829106E+03  0.13366751007E+03  0.00000000000E+00 0.  1.
         12    1    3    3    0    0 -0.34516424713E+02 -0.34189917983E+02  0.10462607433E+04  0.10473881215E+04  0.00000000000E+00 0. -1.
        -11    1    4    4    0    0  0.45870582866E+02  0.16327582986E+02  0.55983603741E+02  0.74194772231E+02  0.00000000000E+00 0. -1.
         11    1    4    4    0    0 -0.13426120229E+02  0.45738881805E+02 -0.11929150324E+02  0.49138687819E+02  0.00000000000E+00 0.  1.
          1    1    1    2  501    0 -0.15646645175E+02 -0.41666821489E+02  0.84425130163E+02  0.95438692999E+02  0.00000000000E+00 0. -1.
<scales pt_clust_5="13000.00000" pt_clust_6="13000.00000" pt_clust_7="13000.00000" pt_clust_8="13000.00000" pt_clust_9="13000.00000"></scales>
<clustering>
<clus scale="   80.260">  5  6 -1 -1</clus>
<clus scale="   84.499">  1  5  2 -1</clus>
<clus scale="   91.463">  7  8 -1 -1</clus>
<clus scale="   57.629">  7  9 -1 -1</clus>
<clus scale="  177.071">  2  5  1 -1</clus>
</clustering>
</event>
<event>
 9    2  0.4178938E-005  0.4774822E+03  0.7546771E-02  0.1080824E+00
          2   -1    0    0  502    0 -0.00000000000E+00  0.00000000000E+00  0.37394711677E+03  0.37394711677E+03  0.00000000000E+00 0. -1.
         21   -1    0    0  501  502  0.00000000000E+00 -0.00000000000E+00 -0.25212489109E+03  0.25212489109E+03  0.00000000000E+00 0. -1.
         24    2    1    2    0    0  0.39030258262E+01 -0.90930545444E+01  0.12273756940E+03  0.14858895542E+03  0.83163991476E+02 0.  0.
         23    2    1    2    0    0 -0.18006047856E+03  0.96117554333E+02 -0.11355898926E+03  0.25100280474E+03  0.91904318485E+02 0.  0.
        -13    1    3    3    0    0  0.17123982741E+02  0.31400603701E+02  0.30557440574E+02  0.47042383785E+02  0.00000000000E+00 0.  1.
         14    1    3    3    0    0 -0.13220956915E+02 -0.40493658246E+02  0.92180128827E+02  0.10154657163E+03  0.00000000000E+00 0. -1.
        -13    1    4    4    0    0 -0.75293279892E+02  0.92110908357E+02 -0.62517103960E+02  0.13439451523E+03  0.00000000000E+00 0. -1.
         13    1    4    4    0    0 -0.10476719867E+03  0.40066459760E+01 -0.51041885300E+02  0.11660828952E+03  0.00000000000E+00 0.  1.
          1    1    1    2  501    0  0.17615745274E+03 -0.87024499788E+02  0.11264364554E+03  0.22648024770E+03  0.00000000000E+00 0. -1.
<scales pt_clust_5="13000.00000" pt_clust_6="13000.00000" pt_clust_7="13000.00000" pt_clust_8="13000.00000" pt_clust_9="13000.00000"></scales>
<clustering>
<clus scale="   83.164">  5  6 -1 -1</clus>
<clus scale="   83.751">  1  5  2 -1</clus>
<clus scale="   91.904">  7  8 -1 -1</clus>
<clus scale="  201.889">  7  9 -1 -1</clus>
<clus scale="  477.482">  2  5  1 -1</clus>
</clustering>
</event>
<event>
 9    2  0.4178938E-005  0.2787754E+03  0.7546771E-02  0.1111027E+00
         21   -1    0    0  501  502  0.00000000000E+00  0.00000000000E+00  0.14984901918E+03  0.14984901918E+03  0.00000000000E+00 0. -1.
          2   -1    0    0  502    0 -0.00000000000E+00 -0.00000000000E+00 -0.62279781059E+03  0.62279781059E+03  0.00000000000E+00 0. -1.
         24    2    1    2    0    0 -0.34671517382E+02  0.17148801914E+03 -0.45479004060E+03  0.49328063007E+03  0.76691226014E+02 0.  0.
         23    2    1    2    0    0 -0.82606086670E+01  0.15001841345E+02  0.37941312367E+00  0.87102581117E+02  0.85401538532E+02 0.  0.
        -11    1    3    3    0    0 -0.59732134719E+01  0.53388913100E+02 -0.61597708963E+02  0.81733304537E+02  0.00000000000E+00 0.  1.
         12    1    3    3    0    0 -0.28698303910E+02  0.11809910604E+03 -0.39319233164E+03  0.41154732553E+03  0.00000000000E+00 0. -1.
        -13    1    4    4    0    0  0.28182697504E+02  0.26006639030E+02 -0.20709216957E+02  0.43583040041E+02  0.00000000000E+00 0. -1.
         13    1    4    4    0    0 -0.36443306171E+02 -0.11004797685E+02  0.21088630081E+02  0.43519541076E+02  0.00000000000E+00 0.  1.
          1    1    1    2  501    0  0.42932126049E+02 -0.18648986048E+03 -0.18538163929E+02  0.19226361859E+03  0.00000000000E+00 0. -1.
<scales pt_clust_5="13000.00000" pt_clust_6="13000.00000" pt_clust_7="13000.00000" pt_clust_8="13000.00000" pt_clust_9="13000.00000"></scales>
<clustering>
<clus scale="   76.691">  5  6 -1 -1</clus>
<clus scale="   85.402">  7  8 -1 -1</clus>
<clus scale="  191.028">  2  5  1 -1</clus>
<clus scale="   67.533">  7  9 -1 -1</clus>
<clus scale="  278.775">  1  5  2 -1</clus>
</clustering>
</event>
<event>
 9    2  0.4178938E-005  0.3384331E+03  0.7546771E-02  0.1119620E+00
         -1   -1    0    0    0  501 -0.00000000000E+00  0.00000000000E+00  0.56081118067E+03  0.56081118067E+03  0.00000000000E+00 0.  1.
         21   -1    0    0  501  502  0.00000000000E+00 -0.00000000000E+00 -0.88671814398E+02  0.88671814398E+02  0.00000000000E+00 0. -1.
         24    2    1    2    0    0  0.19927331757E+02 -0.21588952209E+02  0.19120826643E+03  0.20964295355E+03  0.80786047153E+02 0.  0.
         23    2    1    2    0    0 -0.18011504133E+02 -0.13915291416E+03  0.88606782262E+02  0.18918038953E+03  0.90830116812E+02 0.  0.
        -11    1    3    3    0    0  0.40434148989E+02 -0.32911371194E+02  0.17078387277E+03  0.17856430202E+03  0.00000000000E+00 0.  1.
         12    1    3    3    0    0 -0.20506817232E+02  0.11322418985E+02  0.20424393665E+02  0.31078651535E+02  0.00000000000E+00 0. -1.
        -13    1    4    4    0    0 -0.22084751525E+02 -0.10554097420E+03  0.15921233599E+02  0.10899595939E+03  0.00000000000E+00 0. -1.
         13    1    4    4    0    0  0.40732473921E+01 -0.33611939964E+02  0.72685548664E+02  0.80184430141E+02  0.00000000000E+00 0.  1.
         -2    1    1    2    0  502 -0.19158276238E+01  0.16074186637E+03  0.19232431757E+03  0.25065965198E+03  0.00000000000E+00 0.  1.
<scales pt_clust_5="13000.00000" pt_clust_6="13000.00000" pt_clust_7="13000.00000" pt_clust_8="13000.00000" pt_clust_9="13000.00000"></scales>
<clustering>
<clus scale="   80.786">  5  6 -1 -1</clus>
<clus scale="   85.963">  1  5  2 -1</clus>
<clus scale="   90.830">  7  8 -1 -1</clus>
<clus scale="  147.835">  7  9 -1 -1</clus>
<clus scale="  338.433">  2  5  1 -1</clus>
</clustering>
</event>
<event>
 9    2  0.4178938E-005  0.2387230E+03  0.7546771E-02  0.1141632E+00
         21   -1    0    0  501  502  0.00000000000E+00  0.00000000000E+00  0.26246965642E+03  0.26246965642E+03  0.00000000000E+00 0. -1.
          2   -1    0    0  502    0 -0.00000000000E+00 -0.00000000000E+00 -0.17333886028E+03  0.17333886028E+03  0.00000000000E+00 0. -1.
         24    2    1    2    0    0 -0.79978385897E+02  0.83524941696E+02 -0.59461440339E+02  0.15461765357E+03  0.83654036433E+02 0.  0.
         23    2    1    2    0    0 -0.27287452179E+02  0.82481660528E+01  0.81086771088E+02  0.12471322517E+03  0.90364189791E+02 0.  0.
        -11    1    3    3    0    0 -0.51359820266E+02 -0.20831756879E+01 -0.12647175068E+02  0.52935071511E+02  0.00000000000E+00 0.  1.
         12    1    3    3    0    0 -0.28618565631E+02  0.85608117384E+02 -0.46814265272E+02  0.10168258206E+03  0.00000000000E+00 0. -1.
        -13    1    4    4    0    0  0.89573578431E+01  0.27442412457E+02 -0.50546369426E+01  0.29306477366E+02  0.00000000000E+00 0.  1.
         13    1    4    4    0    0 -0.36244810022E+02 -0.19194246404E+02  0.86141408031E+02  0.95406747802E+02  0.00000000000E+00 0. -1.
          1    1    1    2  501    0  0.10726583808E+03 -0.91773107748E+02  0.67505465397E+02  0.15647763796E+03  0.00000000000E+00 0. -1.
<scales pt_clust_5="13000.00000" pt_clust_6="13000.00000" pt_clust_7="13000.00000" pt_clust_8="13000.00000" pt_clust_9="13000.00000"></scales>
<clustering>
<clus scale="   83.654">  5  6 -1 -1</clus>
<clus scale="   90.364">  7  8 -1 -1</clus>
<clus scale="  141.168">  7  9 -1 -1</clus>
<clus scale="  142.727">  2  5  1 -1</clus>
<clus scale="  238.723">  1  5  2 -1</clus>
</clustering>
</event>
<event>
 9    2  0.4178938E-005  0.2335185E+03  0.7546771E-02  0.1165143E+00
         21   -1    0    0  501  502  0.00000000000E+00  0.00000000000E+00  0.80087436144E+02  0.80087436144E+02  0.00000000000E+00 0. -1.
          2   -1    0    0  502    0 -0.00000000000E+00 -0.00000000000E+00 -0.43916819114E+03  0.43916819114E+03  0.00000000000E+00 0. -1.
         24    2    1    2    0    0 -0.33996376072E+02 -0.10729937673E+02 -0.24331239634E+03  0.25861565388E+03  0.80064031055E+02 0.  0.
         23    2    1    2    0    0 -0.16600866291E+01 -0.83738548161E+02 -0.27505163566E+02  0.12652781976E+03  0.90762628959E+02 0.  0.
        -11    1    3    3    0    0  0.18837097622E+02  0.18839278791E+02 -0.62694731467E+02  0.68120364252E+02  0.00000000000E+00 0.  1.
         12    1    3    3    0    0 -0.52833473693E+02 -0.29569216464E+02 -0.18061766487E+03  0.19049528963E+03  0.00000000000E+00 0. -1.
        -13    1    4    4    0    0  0.24374329740E+02  0.98032094630E+01 -0.82794608420E+01  0.27545604693E+02  0.00000000000E+00 0.  1.
         13    1    4    4    0    0 -0.26034416369E+02 -0.93541757624E+02 -0.19225702724E+02  0.98982215070E+02  0.00000000000E+00 0. -1.
          1    1    1    2  501    0  0.35656462701E+02  0.94468485833E+02 -0.88263195093E+02  0.13411215365E+03  0.00000000000E+00 0. -1.
<scales pt_clust_5="13000.00000" pt_clust_6="13000.00000" pt_clust_7="13000.00000" pt_clust_8="13000.00000" pt_clust_9="13000.00000"></scales>
<clustering>
<clus scale="   80.064">  5  6 -1 -1</clus>
<clus scale="   87.642">  2  5  1 -1</clus>
<clus scale="   90.763">  7  8 -1 -1</clus>
<clus scale="   89.495">  7  9 -1 -1</clus>
<clus scale="  233.518">  1  5  2 -1</clus>
</clustering>
</event>
<event>
 9    2  0.4178938E-005  0.7411367E+03  0.7546771E-02  0.1004457E+00
          2   -1    0    0  502    0 -0.00000000000E+00  0.00000000000E+00  0.29244389999E+04  0.29244389999E+04  0.00000000000E+00 0. -1.
         21   -1    0    0  501  502  0.00000000000E+00 -0.00000000000E+00 -0.76588502938E+02  0.76588502938E+02  0.00000000000E+00 0.  1.
         24    2    1    2    0    0  0.10505116265E+03 -0.15667566041E+03  0.57602387302E+03  0.61136646917E+03  0.79890224621E+02 0.  0.
         23    2    1    2    0    0 -0.19278963048E+03 -0.21768029980E+03  0.58783070113E+03  0.66232704984E+03  0.92626309509E+02 0.  0.
        -11    1    3    3    0    0  0.98742898516E+02 -0.80516104568E+02  0.32975164714E+03  0.35350976209E+03  0.00000000000E+00 0.  1.
         12    1    3    3    0    0  0.63082641331E+01 -0.76159555842E+02  0.24627222589E+03  0.25785670708E+03  0.00000000000E+00 0. -1.
        -13    1    4    4    0    0 -0.16991565464E+03 -0.14235185117E+03  0.48103687485E+03  0.52965257876E+03  0.00000000000E+00 0. -1.
         13    1    4    4    0    0 -0.22873975840E+02 -0.75328448627E+02  0.10679382628E+03  0.13267447107E+03  0.00000000000E+00 0.  1.
          1    1    1    2  501    0  0.87738467831E+02  0.37435596020E+03  0.16839959228E+04  0.17273339838E+04  0.00000000000E+00 0. -1.
<scales pt_clust_5="13000.00000" pt_clust_6="13000.00000" pt_clust_7="13000.00000" pt_clust_8="13000.00000" pt_clust_9="13000.00000"></scales>
<clustering>
<clus scale="   79.890">  5  6 -1 -1</clus>
<clus scale="   92.626">  7  8 -1 -1</clus>
<clus scale="  204.855">  1  5  2 -1</clus>
<clus scale="  307.477">  7  9 -1 -1</clus>
<clus scale="  741.137">  2  5  1 -1</clus>
</clustering>
</event>
<event>
 9    2  0.4178938E-005  0.2857837E+03  0.7546771E-02  0.1158983E+00
         21   -1    0    0  501  502  0.00000000000E+00  0.00000000000E+00  0.42437032494E+03  0.42437032494E+03  0.00000000000E+00 0.  1.
          2   -1    0    0  502    0 -0.00000000000E+00 -0.00000000000E+00 -0.95474396980E+02  0.95474396980E+02  0.00000000000E+00 0. -1.
         24    2    1    2    0    0 -0.15874348840E+02 -0.25148011944E+01 -0.28621727278E+02  0.62142632831E+02  0.52765370904E+02 0.  0.
         23    2    1    2    0    0 -0.10354115444E+03  0.63440155514E+02  0.19287571592E+03  0.24538409785E+03  0.90922437773E+02 0.  0.
        -11    1    3    3    0    0 -0.30987689511E+02 -0.42140974318E+01 -0.33826941068E+02  0.46067965664E+02  0.00000000000E+00 0.  1.
         12    1    3    3    0    0  0.15113340671E+02  0.16992962374E+01  0.52052137900E+01  0.16074667167E+02  0.00000000000E+00 0. -1.
        -11    1    4    4    0    0 -0.52406992235E+02  0.49112369065E+02  0.37168218750E+02  0.80870230093E+02  0.00000000000E+00 0. -1.
         11    1    4    4    0    0 -0.51134162205E+02  0.14327786450E+02  0.15570749717E+03  0.16451386775E+03  0.00000000000E+00 0.  1.
          1    1    1    2  501    0  0.11941550328E+03 -0.60925354320E+02  0.16464193932E+03  0.21231799125E+03  0.00000000000E+00 0. -1.
<scales pt_clust_5="13000.00000" pt_clust_6="13000.00000" pt_clust_7="13000.00000" pt_clust_8="13000.00000" pt_clust_9="13000.00000"></scales>
<clustering>
<clus scale="   52.765">  5  6 -1 -1</clus>
<clus scale="   55.159">  2  5  1 -1</clus>
<clus scale="   90.922">  7  8 -1 -1</clus>
<clus scale="  127.953">  7  9 -1 -1</clus>
<clus scale="  285.784">  1  5  2 -1</clus>
</clustering>
</event>
<event>
 9    2  0.4178938E-005  0.2854319E+03  0.7546771E-02  0.1107900E+00
          2   -1    0    0  502    0 -0.00000000000E+00  0.00000000000E+00  0.34297615641E+03  0.34297615641E+03  0.00000000000E+00 0. -1.
         21   -1    0    0  501  502  0.00000000000E+00 -0.00000000000E+00 -0.29284463958E+03  0.29284463958E+03  0.00000000000E+00 0. -1.
         24    2    1    2    0    0  0.11396048450E+03  0.13295455309E+03  0.22873728350E+03  0.29911409271E+03  0.80526954363E+02 0.  0.
         23    2    1    2    0    0 -0.44945601247E+02 -0.68697871031E+02 -0.20489894297E+03  0.23881233972E+03  0.91149614456E+02 0.  0.
        -13    1    3    3    0    0  0.21209647107E+02  0.39136953548E+02  0.13241010777E+02  0.46442164354E+02  0.00000000000E+00 0.  1.
         14    1    3    3    0    0  0.92750837388E+02  0.93817599540E+02  0.21549627272E+03  0.25267192835E+03  0.00000000000E+00 0. -1.
        -13    1    4    4    0    0  0.15817355702E+02  0.13028637292E+02 -0.28075698154E+02  0.34758868766E+02  0.00000000000E+00 0.  1.
         13    1    4    4    0    0 -0.60762956949E+02 -0.81726508323E+02 -0.17682324482E+03  0.20405347095E+03  0.00000000000E+00 0. -1.
          1    1    1    2  501    0 -0.69014883249E+02 -0.64256682057E+02  0.26293176299E+02  0.97894363569E+02  0.00000000000E+00 0. -1.
<scales pt_clust_5="13000.00000" pt_clust_6="13000.00000" pt_clust_7="13000.00000" pt_clust_8="13000.00000" pt_clust_9="13000.00000"></scales>
<clustering>
<clus scale="   80.527">  5  6 -1 -1</clus>
<clus scale="   91.150">  7  8 -1 -1</clus>
<clus scale="   94.297">  7  9 -1 -1</clus>
<clus scale="  192.739">  1  5  2 -1</clus>
<clus scale="  285.432">  2  5  1 -1</clus>
</clustering>
</event>
<event>
 9    2  0.4178938E-005  0.1920141E+03  0.7546771E-02  0.1182638E+00
         21   -1    0    0  501  502  0.00000000000E+00  0.00000000000E+00  0.10232131241E+03  0.10232131241E+03  0.00000000000E+00 0. -1.
          2   -1    0    0  502    0 -0.00000000000E+00 -0.00000000000E+00 -0.42884190286E+03  0.42884190286E+03  0.00000000000E+00 0. -1.
         24    2    1    2    0    0  0.61482463797E+02 -0.32348663182E+02 -0.32212616195E+03  0.33909879482E+03  0.79976240675E+02 0.  0.
         23    2    1    2    0    0 -0.12667728317E+02  0.73959619868E+02 -0.33806597170E+02  0.12149937399E+03  0.89379612640E+02 0.  0.
        -11    1    3    3    0    0  0.31321013966E+02 -0.31712921888E+01 -0.28426108145E+02  0.42415877149E+02  0.00000000000E+00 0.  1.
         12    1    3    3    0    0  0.30161449831E+02 -0.29177370993E+02 -0.29370005380E+03  0.29668291767E+03  0.00000000000E+00 0. -1.
        -11    1    4    4    0    0  0.29540895773E+02  0.47915115443E+02 -0.43280903998E+02  0.71005348122E+02  0.00000000000E+00 0. -1.
         11    1    4    4    0    0 -0.42208624090E+02  0.26044504425E+02  0.94743068279E+01  0.50494025866E+02  0.00000000000E+00 0.  1.
          1    1    1    2  501    0 -0.48814735481E+02 -0.41610956686E+02  0.29412168667E+02  0.70565046461E+02  0.00000000000E+00 0. -1.
<scales pt_clust_5="13000.00000" pt_clust_6="13000.00000" pt_clust_7="13000.00000" pt_clust_8="13000.00000" pt_clust_9="13000.00000"></scales>
<clustering>
<clus scale="   79.976">  5  6 -1 -1</clus>
<clus scale="   89.380">  7  8 -1 -1</clus>
<clus scale="   64.143">  7  9 -1 -1</clus>
<clus scale="  105.937">  2  5  1 -1</clus>
<clus scale="  192.014">  1  5  2 -1</clus>
</clustering>
</event>
<event>
 9    2  0.4178938E-005  0.1632791E+03  0.7546771E-02  0.1215917E+00
          2   -1    0    0  502    0 -0.00000000000E+00  0.00000000000E+00  0.41717015171E+03  0.41717015171E+03  0.00000000000E+00 0. -1.
         21   -1    0    0  501  502  0.00000000000E+00 -0.00000000000E+00 -0.43701424001E+02  0.43701424001E+02  0.00000000000E+00 0.  1.
         24    2    1    2    0    0 -0.22856681957E+01  0.19294649804E+02  0.22565856101E+03  0.24062646073E+03  0.81251459415E+02 0.  0.
         23    2    1    2    0    0 -0.33077564529E+02 -0.42525230039E+02  0.14104658364E+03  0.17739696283E+03  0.93129067411E+02 0.  0.
        -11    1    3    3    0    0  0.35097348066E+02  0.12211000389E+02  0.59372855612E+02  0.70043331983E+02  0.00000000000E+00 0.  1.
         12    1    3    3    0    0 -0.37383016262E+02  0.70836494157E+01  0.16628570540E+03  0.17058312875E+03  0.00000000000E+00 0. -1.
        -11    1    4    4    0    0 -0.13536423344E+02 -0.62721001504E+02  0.47813056200E+02  0.80020291988E+02  0.00000000000E+00 0.  1.
         11    1    4    4    0    0 -0.19541141186E+02  0.20195771464E+02  0.93233527444E+02  0.97376670838E+02  0.00000000000E+00 0. -1.
          1    1    1    2  501    0  0.35363232725E+02  0.23230580235E+02  0.67635830499E+01  0.42848152148E+02  0.00000000000E+00 0. -1.
<scales pt_clust_5="13000.00000" pt_clust_6="13000.00000" pt_clust_7="13000.00000" pt_clust_8="13000.00000" pt_clust_9="13000.00000"></scales>
<clustering>
<clus scale="   81.251">  5  6 -1 -1</clus>
<clus scale="   83.542">  1  5  2 -1</clus>
<clus scale="   93.129">  7  8 -1 -1</clus>
<clus scale="   43.545">  7  9 -1 -1</clus>
<clus scale="  163.279">  2  5  1 -1</clus>
</clustering>
</event>
<event>
 9    2  0.4178938E-005  0.5849876E+03  0.7546771E-02  0.1050252E+00
          2   -1    0    0  502    0 -0.00000000000E+00  0.00000000000E+00  0.90185655687E+03  0.90185655687E+03  0.00000000000E+00 0. -1.
         21   -1    0    0  501  502  0.00000000000E+00 -0.00000000000E+00 -0.30633108051E+03  0.30633108051E+03  0.00000000000E+00 0. -1.
         24    2    1    2    0    0 -0.15009723676E+02  0.69312377076E+02  0.61379477381E+03  0.62291487536E+03  0.79053274250E+02 0.  0.
         23    2    1    2    0    0  0.63319832301E+02  0.64426019807E+02 -0.26740821044E+03  0.29841038498E+03  0.96858110988E+02 0.  0.
        -13    1    3    3    0    0 -0.46980451664E+02  0.51063466407E+02  0.40296933754E+03  0.40889965448E+03  0.00000000000E+00 0.  1.
         14    1    3    3    0    0  0.31970727988E+02  0.18248910669E+02  0.21082543627E+03  0.21401522088E+03  0.00000000000E+00 0. -1.
        -13    1    4    4    0    0  0.48487320730E+02  0.38192494640E+02 -0.26020464310E+03  0.26742502352E+03  0.00000000000E+00 0. -1.
         13    1    4    4    0    0  0.14832511570E+02  0.26233525167E+02 -0.72035673431E+01  0.30985361457E+02  0.00000000000E+00 0.  1.
          1    1    1    2  501    0 -0.48310108624E+02 -0.13373839688E+03  0.24913891298E+03  0.28686237703E+03  0.00000000000E+00 0. -1.
<scales pt_clust_5="13000.00000" pt_clust_6="13000.00000" pt_clust_7="13000.00000" pt_clust_8="13000.00000" pt_clust_9="13000.00000"></scales>
<clustering>
<clus scale="   79.053">  5  6 -1 -1</clus>
<clus scale="   96.858">  7  8 -1 -1</clus>
<clus scale="  106.202">  1  5  2 -1</clus>
<clus scale="   92.518">  7  9 -1 -1</clus>
<clus scale="  584.988">  2  5  1 -1</clus>
</clustering>
</event>
<event>
 9    2  0.4178938E-005  0.3430491E+03  0.7546771E-02  0.1089616E+00
         21   -1    0    0  501  502  0.00000000000E+00  0.00000000000E+00  0.11297448437E+03  0.11297448437E+03  0.00000000000E+00 0.  1.
          4   -1    0    0  502    0 -0.00000000000E+00 -0.00000000000E+00 -0.60744020136E+03  0.60744020136E+03  0.00000000000E+00 0. -1.
         24    2    1    2    0    0 -0.94007889049E+02  0.13119658471E+03 -0.20168801280E+03  0.26941417375E+03  0.76523953537E+02 0.  0.
         23    2    1    2    0    0  0.47558215776E+02  0.15035447117E+02  0.14734533677E+02  0.10733620526E+03  0.93894120793E+02 0.  0.
        -11    1    3    3    0    0 -0.85090168503E+02  0.86769555061E+02 -0.18454537065E+03  0.22096670856E+03  0.00000000000E+00 0.  1.
         12    1    3    3    0    0 -0.89177205457E+01  0.44427029651E+02 -0.17142642145E+02  0.48447465187E+02  0.00000000000E+00 0. -1.
        -11    1    4    4    0    0 -0.22658310306E+02 -0.47468221274E+01 -0.16036451946E+02  0.28162015859E+02  0.00000000000E+00 0. -1.
         11    1    4    4    0    0  0.70216526081E+02  0.19782269244E+02  0.30770985622E+02  0.79174189403E+02  0.00000000000E+00 0.  1.
          3    1    1    2  501    0  0.46449673273E+02 -0.14623203183E+03 -0.30751223786E+03  0.34366430672E+03  0.00000000000E+00 0. -1.
<scales pt_clust_5="13000.00000" pt_clust_6="13000.00000" pt_clust_7="13000.00000" pt_clust_8="13000.00000" pt_clust_9="13000.00000"></scales>
<clustering>
<clus scale="   76.524">  5  6 -1 -1</clus>
<clus scale="   93.894">  7  8 -1 -1</clus>
<clus scale="  153.432">  7  9 -1 -1</clus>
<clus scale="  178.622">  2  5  1 -1</clus>
<clus scale="  343.049">  1  5  2 -1</clus>
</clustering>
</event>
<event>
 9    2  0.4178938E-005  0.3526479E+03  0.7546771E-02  0.1090136E+00
         -3   -1    0    0    0  501 -0.00000000000E+00  0.00000000000E+00  0.17764368279E+04  0.17764368279E+04  0.00000000000E+00 0.  1.
         21   -1    0    0  501  502  0.00000000000E+00 -0.00000000000E+00 -0.37385358639E+02  0.37385358639E+02  0.00000000000E+00 0.  1.
         24    2    1    2    0    0 -0.40647168256E+02 -0.13582222960E+03  0.50856143383E+03  0.53379628969E+03  0.78764691132E+02 0.  0.
         23    2    1    2    0    0 -0.81420425142E+02 -0.47776869569E+02  0.45727635155E+03  0.47599323114E+03  0.92498537902E+02 0.  0.
        -11    1    3    3    0    0 -0.15890810749E+01 -0.67472064960E+02  0.35362015874E+03  0.36000308525E+03  0.00000000000E+00 0.  1.
         12    1    3    3    0    0 -0.39058087181E+02 -0.68350164644E+02  0.15494127509E+03  0.17379320444E+03  0.00000000000E+00 0. -1.
        -13    1    4    4    0    0  0.19600465456E+02 -0.18189831887E+02  0.83508123267E+02  0.87684975234E+02  0.00000000000E+00 0. -1.
         13    1    4    4    0    0 -0.10102089060E+03 -0.29587037683E+02  0.37376822828E+03  0.38830825591E+03  0.00000000000E+00 0.  1.
         -4    1    1    2    0  502  0.12206759340E+03  0.18359909917E+03  0.77321368394E+03  0.80403266575E+03  0.00000000000E+00 0.  1.
<scales pt_clust_5="13000.00000" pt_clust_6="13000.00000" pt_clust_7="13000.00000" pt_clust_8="13000.00000" pt_clust_9="13000.00000"></scales>
<clustering>
<clus scale="   78.765">  5  6 -1 -1</clus>
<clus scale="   92.499">  7  8 -1 -1</clus>
<clus scale="  162.184">  1  5  2 -1</clus>
<clus scale="  137.749">  7  9 -1 -1</clus>
<clus scale="  352.648">  2  5  1 -1</clus>
</clustering>
</event>
<event>
 9    2  0.4178938E-005  0.6032836E+03  0.7546771E-02  0.1041678E+00
         21   -1    0    0  501  502  0.00000000000E+00  0.00000000000E+00  0.19883765532E+03  0.19883765532E+03  0.00000000000E+00 0.  1.
          2   -1    0    0  502    0 -0.00000000000E+00 -0.00000000000E+00 -0.68647163244E+03  0.68647163244E+03  0.00000000000E+00 0. -1.
         24    2    1    2    0    0  0.88443090848E+02  0.27762121281E+02 -0.14790015051E+03  0.19294362015E+03  0.82218430661E+02 0.  0.
         23    2    1    2    0    0  0.91324421589E+02 -0.14317506815E+03  0.88991801812E+02  0.21336444496E+03  0.93624758826E+02 0.  0.
        -13    1    3    3    0    0  0.69097693986E+02 -0.14115284838E+02 -0.11954031557E+03  0.13879344231E+03  0.00000000000E+00 0.  1.
         14    1    3    3    0    0  0.19345396862E+02  0.41877406119E+02 -0.28359834932E+02  0.54150177842E+02  0.00000000000E+00 0. -1.
        -13    1    4    4    0    0  0.65473923106E+02 -0.14387818617E+03  0.97990299745E+02  0.18598350977E+03  0.00000000000E+00 0.  1.
         13    1    4    4    0    0  0.25850498483E+02  0.70311802131E+00 -0.89984979330E+01  0.27380935189E+02  0.00000000000E+00 0. -1.
          1    1    1    2  501    0 -0.17976751244E+03  0.11541294687E+03 -0.42872562842E+03  0.47900122265E+03  0.00000000000E+00 0. -1.
<scales pt_clust_5="13000.00000" pt_clust_6="13000.00000" pt_clust_7="13000.00000" pt_clust_8="13000.00000" pt_clust_9="13000.00000"></scales>
<clustering>
<clus scale="   82.218">  5  6 -1 -1</clus>
<clus scale="   93.625">  7  8 -1 -1</clus>
<clus scale="  123.906">  2  5  1 -1</clus>
<clus scale="  173.069">  7  9 -1 -1</clus>
<clus scale="  603.284">  1  5  2 -1</clus>
</clustering>
</event>
<event>
 9    2  0.4178938E-005  0.2867122E+03  0.7546771E-02  0.1135789E+00
          4   -1    0    0  502    0 -0.00000000000E+00  0.00000000000E+00  0.63423494212E+02  0.63423494212E+02  0.00000000000E+00 0. -1.
         21   -1    0    0  501  502  0.00000000000E+00 -0.00000000000E+00 -0.66243194606E+03  0.66243194606E+03  0.00000000000E+00 0. -1.
         24    2    1    2    0    0 -0.37273098747E+02  0.30762808142E+02 -0.51850658715E+02  0.10812935148E+03  0.81656791432E+02 0.  0.
         23    2    1    2    0    0  0.13532634731E+03 -0.35899054824E+02 -0.17974179472E+03  0.23741656160E+03  0.66764875056E+02 0.  0.
        -13    1    3    3    0    0 -0.37650975710E+02 -0.94465494339E+01 -0.55527411857E+02  0.67750474062E+02  0.00000000000E+00 0.  1.
         14    1    3    3    0    0  0.37787696271E+00  0.40209357576E+02  0.36767531428E+01  0.40378877416E+02  0.00000000000E+00 0. -1.
        -13    1    4    4    0    0  0.25405860279E+02 -0.35198352966E+02 -0.35579563806E+02  0.56127418867E+02  0.00000000000E+00 0.  1.
         13    1    4    4    0    0  0.10992048703E+03 -0.70070185722E+00 -0.14416223091E+03  0.18128914273E+03  0.00000000000E+00 0. -1.
          3    1    1    2  501    0 -0.98053248559E+02  0.51362466813E+01 -0.36741599842E+03  0.38030952720E+03  0.00000000000E+00 0. -1.
<scales pt_clust_5="13000.00000" pt_clust_6="13000.00000" pt_clust_7="13000.00000" pt_clust_8="13000.00000" pt_clust_9="13000.00000"></scales>
<clustering>
<clus scale="   66.765">  7  8 -1 -1</clus>
<clus scale="   81.657">  5  6 -1 -1</clus>
<clus scale="   94.887">  1  5  2 -1</clus>
<clus scale="  105.414">  7  9 -1 -1</clus>
<clus scale="  286.712">  2  5  1 -1</clus>
</clustering>
</event>
<event>
 9    2  0.4178938E-005  0.1864922E+03  0.7546771E-02  0.1195053E+00
          2   -1    0    0  502    0 -0.00000000000E+00  0.00000000000E+00  0.18805411776E+03  0.18805411776E+03  0.00000000000E+00 0. -1.
         21   -1    0    0  501  502  0.00000000000E+00 -0.00000000000E+00 -0.10555068829E+03  0.10555068829E+03  0.00000000000E+00 0. -1.
         24    2    1    2    0    0 -0.29181874796E+01  0.34748584048E+02 -0.42015185917E+01  0.87942249319E+02  0.80623858412E+02 0.  0.
         23    2    1    2    0    0 -0.35199620312E+02 -0.39734319320E+02 -0.61000246874E+01  0.10521063891E+03  0.90632438106E+02 0.  0.
        -11    1    3    3    0    0  0.36337462577E+01  0.29185108163E+02  0.36197255279E+02  0.46639210328E+02  0.00000000000E+00 0.  1.
         12    1    3    3    0    0 -0.65519337372E+01  0.55634758858E+01 -0.40398773870E+02  0.41303038991E+02  0.00000000000E+00 0. -1.
        -11    1    4    4    0    0 -0.30661071797E+02 -0.95612213108E+00  0.36331378857E+02  0.47549811597E+02  0.00000000000E+00 0. -1.
         11    1    4    4    0    0 -0.45385485148E+01 -0.38778197189E+02 -0.42431403544E+02  0.57660827314E+02  0.00000000000E+00 0.  1.
          1    1    1    2  501    0  0.38117807791E+02  0.49857352712E+01  0.92804972750E+02  0.10045191782E+03  0.00000000000E+00 0. -1.
<scales pt_clust_5="13000.00000" pt_clust_6="13000.00000" pt_clust_7="13000.00000" pt_clust_8="13000.00000" pt_clust_9="13000.00000"></scales>
<clustering>
<clus scale="   80.624">  5  6 -1 -1</clus>
<clus scale="   87.842">  1  5  2 -1</clus>
<clus scale="   90.632">  7  8 -1 -1</clus>
<clus scale="   45.729">  7  9 -1 -1</clus>
<clus scale="  186.492">  2  5  1 -1</clus>
</clustering>
</event>
<event>
 9    2  0.4178938E-005  0.3438963E+03  0.7546771E-02  0.1079400E+00
         21   -1    0    0  501  502  0.00000000000E+00  0.00000000000E+00  0.68256544330E+02  0.68256544330E+02  0.00000000000E+00 0. -1.
          2   -1    0    0  502    0 -0.00000000000E+00 -0.00000000000E+00 -0.18770523320E+04  0.18770523320E+04  0.00000000000E+00 0. -1.
         24    2    1    2    0    0  0.18512278775E+03 -0.11533711338E+03 -0.13605230089E+04  0.13803193921E+04  0.81765948343E+02 0.  0.
         23    2    1    2    0    0 -0.38492868955E+02  0.43689466385E+02 -0.24973221128E+02  0.11131974318E+03  0.91531158716E+02 0.  0.
        -11    1    3    3    0    0  0.69770411624E+02 -0.20897157129E+01 -0.34229842614E+03  0.34934294008E+03  0.00000000000E+00 0.  1.
         12    1    3    3    0    0  0.11535237613E+03 -0.11324739767E+03 -0.10182245827E+04  0.10309764520E+04  0.00000000000E+00 0. -1.
        -13    1    4    4    0    0 -0.63790003738E+02  0.38481484367E+02  0.12560500474E+01  0.74508837582E+02  0.00000000000E+00 0. -1.
         13    1    4    4    0    0  0.25297134783E+02  0.52079820177E+01 -0.26229271175E+02  0.36810905603E+02  0.00000000000E+00 0.  1.
          1    1    1    2  501    0 -0.14662991880E+03  0.71647646998E+02 -0.42329955773E+03  0.45366974109E+03  0.00000000000E+00 0. -1.
<scales pt_clust_5="13000.00000" pt_clust_6="13000.00000" pt_clust_7="13000.00000" pt_clust_8="13000.00000" pt_clust_9="13000.00000"></scales>
<clustering>
<clus scale="   81.766">  5  6 -1 -1</clus>
<clus scale="   91.531">  7  8 -1 -1</clus>
<clus scale="  163.198">  7  9 -1 -1</clus>
<clus scale="  232.935">  2  5  1 -1</clus>
<clus scale="  343.896">  1  5  2 -1</clus>
</clustering>
</event>
<event>
 9    2  0.4178938E-005  0.2606914E+03  0.7546771E-02  0.1130838E+00
          2   -1    0    0  502    0 -0.00000000000E+00  0.00000000000E+00  0.25841210478E+03  0.25841210478E+03  0.00000000000E+00 0. -1.
         21   -1    0    0  501  502  0.00000000000E+00 -0.00000000000E+00 -0.18652982275E+03  0.18652982275E+03  0.00000000000E+00 0.  1.
         24    2    1    2    0    0  0.11735996156E+03  0.23965410209E+00 -0.57860251686E+02  0.15374933590E+03  0.80731849682E+02 0.  0.
         23    2    1    2    0    0 -0.86677490059E+01 -0.79302145830E+02  0.91223645174E+02  0.15137635708E+03  0.90714319923E+02 0.  0.
        -11    1    3    3    0    0  0.11109872150E+03  0.11432234241E+02 -0.19593962174E+02  0.11339111629E+03  0.00000000000E+00 0.  1.
         12    1    3    3    0    0  0.62612400570E+01 -0.11192580139E+02 -0.38266289513E+02  0.40358219612E+02  0.00000000000E+00 0. -1.
        -13    1    4    4    0    0 -0.10757526628E+02 -0.99634445969E+02  0.72875627929E+02  0.12390966205E+03  0.00000000000E+00 0.  1.
         13    1    4    4    0    0  0.20897776218E+01  0.20332300138E+02  0.18348017245E+02  0.27466695037E+02  0.00000000000E+00 0. -1.
          1    1    1    2  501    0 -0.10869221255E+03  0.79062491728E+02  0.38518888549E+02  0.13981623455E+03  0.00000000000E+00 0. -1.
<scales pt_clust_5="13000.00000" pt_clust_6="13000.00000" pt_clust_7="13000.00000" pt_clust_8="13000.00000" pt_clust_9="13000.00000"></scales>
<clustering>
<clus scale="   80.732">  5  6 -1 -1</clus>
<clus scale="   90.714">  7  8 -1 -1</clus>
<clus scale="  134.406">  7  9 -1 -1</clus>
<clus scale="  142.447">  1  5  2 -1</clus>
<clus scale="  260.691">  2  5  1 -1</clus>
</clustering>
</event>
<event>
 9    2  0.4178938E-005  0.1778545E+03  0.7546771E-02  0.1201650E+00
          2   -1    0    0  502    0 -0.00000000000E+00  0.00000000000E+00  0.61903501757E+03  0.61903501757E+03  0.00000000000E+00 0. -1.
         21   -1    0    0  501  502  0.00000000000E+00 -0.00000000000E+00 -0.32595742741E+02  0.32595742741E+02  0.00000000000E+00 0.  1.
         24    2    1    2    0    0  0.34552742423E+02 -0.51246533346E+01  0.31600288741E+03  0.32795180451E+03  0.80463700827E+02 0.  0.
         23    2    1    2    0    0 -0.30882265292E+02 -0.29756898286E+02  0.80540390632E+02  0.13057099470E+03  0.93396160667E+02 0.  0.
        -11    1    3    3    0    0  0.56542177467E+02  0.97049069588E+01  0.25598492104E+03  0.26233467718E+03  0.00000000000E+00 0.  1.
         12    1    3    3    0    0 -0.21989435043E+02 -0.14829560293E+02  0.60017966365E+02  0.65617127327E+02  0.00000000000E+00 0. -1.
        -11    1    4    4    0    0  0.15123148140E+02 -0.14207708687E+02 -0.13483909647E+02  0.24746402065E+02  0.00000000000E+00 0.  1.
         11    1    4    4    0    0 -0.46005413432E+02 -0.15549189600E+02  0.94024300279E+02  0.10582459263E+03  0.00000000000E+00 0. -1.
          1    1    1    2  501    0 -0.36704771315E+01  0.34881551621E+02  0.18989599679E+03  0.19310796111E+03  0.00000000000E+00 0. -1.
<scales pt_clust_5="13000.00000" pt_clust_6="13000.00000" pt_clust_7="13000.00000" pt_clust_8="13000.00000" pt_clust_9="13000.00000"></scales>
<clustering>
<clus scale="   80.464">  5  6 -1 -1</clus>
<clus scale="   87.719">  1  5  2 -1</clus>
<clus scale="   93.396">  7  8 -1 -1</clus>
<clus scale="   36.651">  7  9 -1 -1</clus>
<clus scale="  177.855">  2  5  1 -1</clus>
</clustering>
</event>
<event>
 9    2  0.4178938E-005  0.2437974E+03  0.7546771E-02  0.1135824E+00
         21   -1    0    0  501  502  0.00000000000E+00  0.00000000000E+00  0.24163864769E+03  0.24163864769E+03  0.00000000000E+00 0. -1.
          2   -1    0    0  502    0 -0.00000000000E+00 -0.00000000000E+00 -0.17571833809E+03  0.17571833809E+03  0.00000000000E+00 0. -1.
         24    2    1    2    0    0 -0.61026741767E+02  0.11551266924E+03  0.78905042423E+02  0.17321400920E+03  0.81912436779E+02 0.  0.
         23    2    1    2    0    0 -0.37401251663E+02 -0.82916243777E+01 -0.13302371127E+02  0.98593935891E+02  0.89867716428E+02 0.  0.
        -11    1    3    3    0    0  0.16623171646E+02  0.48639296484E+02  0.31670495396E+02  0.60374922581E+02  0.00000000000E+00 0.  1.
         12    1    3    3    0    0 -0.77649913414E+02  0.66873372753E+02  0.47234547026E+02  0.11283908662E+03  0.00000000000E+00 0. -1.
        -11    1    4    4    0    0 -0.77909622383E+01  0.20047799853E+02  0.31326794795E+02  0.37999755837E+02  0.00000000000E+00 0.  1.
         11    1    4    4    0    0 -0.29610289424E+02 -0.28339424231E+02 -0.44629165922E+02  0.60594180054E+02  0.00000000000E+00 0. -1.
          1    1    1    2  501    0  0.98427993430E+02 -0.10722104486E+03  0.31763830972E+00  0.14554904069E+03  0.00000000000E+00 0. -1.
<scales pt_clust_5="13000.00000" pt_clust_6="13000.00000" pt_clust_7="13000.00000" pt_clust_8="13000.00000" pt_clust_9="13000.00000"></scales>
<clustering>
<clus scale="   81.912">  5  6 -1 -1</clus>
<clus scale="   89.868">  7  8 -1 -1</clus>
<clus scale="  145.549">  7  9 -1 -1</clus>
<clus scale="  154.198">  2  5  1 -1</clus>
<clus scale="  243.797">  1  5  2 -1</clus>
</clustering>
</event>
<event>
 9    2  0.4178938E-005  0.1142548E+04  0.7546771E-02  0.9786078E-01
         21   -1    0    0  501  502  0.00000000000E+00  0.00000000000E+00  0.33231472133E+03  0.33231472133E+03  0.00000000000E+00 0. -1.
          2   -1    0    0  502    0 -0.00000000000E+00 -0.00000000000E+00 -0.12161874219E+04  0.12161874219E+04  0.00000000000E+00 0. -1.
         24    2    1    2    0    0  0.85381295146E+02 -0.49416156398E+02 -0.10622846739E+03  0.16642204205E+03  0.81730573987E+02 0.  0.
         23    2    1    2    0    0 -0.21084091411E+03 -0.31270536602E+03 -0.89972353102E+03  0.97986688916E+03  0.91641427270E+02 0.  0.
        -13    1    3    3    0    0  0.10090251685E+03 -0.45005743140E+02 -0.10033251514E+03  0.14924291747E+03  0.00000000000E+00 0.  1.
         14    1    3    3    0    0 -0.15521221706E+02 -0.44104132579E+01 -0.58959522480E+01  0.17179124578E+02  0.00000000000E+00 0. -1.
        -13    1    4    4    0    0 -0.13775266266E+03 -0.12937388700E+03 -0.39338266352E+03  0.43642103371E+03  0.00000000000E+00 0.  1.
         13    1    4    4    0    0 -0.73088251450E+02 -0.18333147902E+03 -0.50634086750E+03  0.54344585544E+03  0.00000000000E+00 0. -1.
          1    1    1    2  501    0  0.12545961896E+03  0.36212152241E+03  0.12207929781E+03  0.40221321204E+03  0.00000000000E+00 0. -1.
<scales pt_clust_5="13000.00000" pt_clust_6="13000.00000" pt_clust_7="13000.00000" pt_clust_8="13000.00000" pt_clust_9="13000.00000"></scales>
<clustering>
<clus scale="   81.731">  5  6 -1 -1</clus>
<clus scale="   91.641">  7  8 -1 -1</clus>
<clus scale="  128.109">  2  5  1 -1</clus>
<clus scale="  381.015">  7  9 -1 -1</clus>
<clus scale=" 1142.548">  1  5  2 -1</clus>
</clustering>
</event>
<event>
 9    2  0.4178938E-005  0.4165836E+03  0.7546771E-02  0.1085182E+00
         21   -1    0    0  501  502  0.00000000000E+00  0.00000000000E+00  0.76624151706E+03  0.76624151706E+03  0.00000000000E+00 0.  1.
          4   -1    0    0  502    0 -0.00000000000E+00 -0.00000000000E+00 -0.16701492318E+03  0.16701492318E+03  0.00000000000E+00 0. -1.
         24    2    1    2    0    0 -0.47841828982E+02 -0.62563722434E+02 -0.79051088846E+02  0.13726493209E+03  0.79934516755E+02 0.  0.
         23    2    1    2    0    0 -0.14786780647E+03 -0.50350288080E+02  0.33371154232E+03  0.38395066031E+03  0.10795682641E+03 0.  0.
        -11    1    3    3    0    0  0.83613609665E+00 -0.61799238238E+02 -0.32160756828E+02  0.69671796662E+02  0.00000000000E+00 0.  1.
         12    1    3    3    0    0 -0.48677965078E+02 -0.76448419606E+00 -0.46890332018E+02  0.67593135428E+02  0.00000000000E+00 0. -1.
        -13    1    4    4    0    0 -0.44823985011E+02  0.32326454003E+02  0.12863645496E+03  0.14000545277E+03  0.00000000000E+00 0. -1.
         13    1    4    4    0    0 -0.10304382146E+03 -0.82676742083E+02  0.20507508737E+03  0.24394520754E+03  0.00000000000E+00 0.  1.
          3    1    1    2  501    0  0.19570963545E+03  0.11291401051E+03  0.34456614040E+03  0.41204084784E+03  0.00000000000E+00 0. -1.
<scales pt_clust_5="13000.00000" pt_clust_6="13000.00000" pt_clust_7="13000.00000" pt_clust_8="13000.00000" pt_clust_9="13000.00000"></scales>
<clustering>
<clus scale="   79.935">  5  6 -1 -1</clus>
<clus scale="  107.957">  7  8 -1 -1</clus>
<clus scale="  112.217">  2  5  1 -1</clus>
<clus scale="  185.087">  7  9 -1 -1</clus>
<clus scale="  416.584">  1  5  2 -1</clus>
</clustering>
</event>
<event>
 9    2  0.4178938E-005  0.2775569E+03  0.7546771E-02  0.1140665E+00
         -3   -1    0    0    0  501 -0.00000000000E+00  0.00000000000E+00  0.22138382861E+03  0.22138382861E+03  0.00000000000E+00 0.  1.
         21   -1    0    0  501  502  0.00000000000E+00 -0.00000000000E+00 -0.15745616024E+03  0.15745616024E+03  0.00000000000E+00 0.  1.
         24    2    1    2    0    0 -0.18306516439E+02 -0.39372398136E+02  0.36773587634E+02  0.99957976267E+02  0.82182638025E+02 0.  0.
         23    2    1    2    0    0  0.11129145283E+03 -0.53661332905E+01  0.77540331637E+02  0.16404948727E+03  0.92114865156E+02 0.  0.
        -13    1    3    3    0    0 -0.35257444603E+02 -0.57670448915E+02  0.22616784606E+02  0.71277535198E+02  0.00000000000E+00 0.  1.
         14    1    3    3    0    0  0.16950928164E+02  0.18298050779E+02  0.14156803028E+02  0.28680441069E+02  0.00000000000E+00 0. -1.
        -13    1    4    4    0    0  0.90194075044E+02  0.44092473018E+01  0.79194758111E+01  0.90648390674E+02  0.00000000000E+00 0.  1.
         13    1    4    4    0    0  0.21097377789E+02 -0.97753805923E+01  0.69620855826E+02  0.73401096594E+02  0.00000000000E+00 0. -1.
         -4    1    1    2    0  502 -0.92984936393E+02  0.44738531426E+02 -0.50386250907E+02  0.11483252532E+03  0.00000000000E+00 0.  1.
<scales pt_clust_5="13000.00000" pt_clust_6="13000.00000" pt_clust_7="13000.00000" pt_clust_8="13000.00000" pt_clust_9="13000.00000"></scales>
<clustering>
<clus scale="   82.183">  5  6 -1 -1</clus>
<clus scale="   92.115">  7  8 -1 -1</clus>
<clus scale="   92.948">  1  5  2 -1</clus>
<clus scale="  103.472">  7  9 -1 -1</clus>
<clus scale="  277.557">  2  5  1 -1</clus>
</clustering>
</event>
<event>
 9    2  0.4178938E-005  0.2084891E+03  0.7546771E-02  0.1175194E+00
         -1   -1    0    0    0  501 -0.00000000000E+00  0.00000000000E+00  0.12058574957E+03  0.12058574957E+03  0.00000000000E+00 0.  1.
         21   -1    0    0  501  502  0.00000000000E+00 -0.00000000000E+00 -0.25788504584E+03  0.25788504584E+03  0.00000000000E+00 0.  1.
         24    2    1    2    0    0  0.97432453565E+01  0.51461921868E+02  0.39086161381E+02  0.10537825470E+03  0.82665520744E+02 0.  0.
         23    2    1    2    0    0 -0.13105778049E+02  0.60394652007E+01 -0.29190093427E+01  0.90313097587E+02  0.89104985394E+02 0.  0.
        -11    1    3    3    0    0  0.28737406801E+02  0.60496015692E+02  0.48138504378E+02  0.82479828250E+02  0.00000000000E+00 0.  1.
         12    1    3    3    0    0 -0.18994161445E+02 -0.90340938245E+01 -0.90523429971E+01  0.22898426451E+02  0.00000000000E+00 0. -1.
        -11    1    4    4    0    0 -0.22711871974E+02  0.24876881542E+02 -0.37105898831E+02  0.50115228144E+02  0.00000000000E+00 0.  1.
         11    1    4    4    0    0  0.96060939249E+01 -0.18837416341E+02  0.34186889488E+02  0.40197869444E+02  0.00000000000E+00 0. -1.
         -2    1    1    2    0  502  0.33625326926E+01 -0.57501387068E+02 -0.17346644831E+03  0.18277944313E+03  0.00000000000E+00 0.  1.
<scales pt_clust_5="13000.00000" pt_clust_6="13000.00000" pt_clust_7="13000.00000" pt_clust_8="13000.00000" pt_clust_9="13000.00000"></scales>
<clustering>
<clus scale="   82.666">  5  6 -1 -1</clus>
<clus scale="   89.105">  7  8 -1 -1</clus>
<clus scale="   57.600">  7  9 -1 -1</clus>
<clus scale="   97.861">  1  5  2 -1</clus>
<clus scale="  208.489">  2  5  1 -1</clus>
</clustering>
</event>
<event>
 9    2  0.4178938E-005  0.1341040E+03  0.7546771E-02  0.1245363E+00
         21   -1    0    0  501  502  0.00000000000E+00  0.00000000000E+00  0.93281968451E+03  0.93281968451E+03  0.00000000000E+00 0.  1.
          4   -1    0    0  502    0 -0.00000000000E+00 -0.00000000000E+00 -0.12757503004E+02  0.12757503004E+02  0.00000000000E+00 0. -1.
         24    2    1    2    0    0  0.14275708179E+02 -0.20825809555E+02  0.29042174515E+03  0.30181406888E+03  0.78162855186E+02 0.  0.
         23    2    1    2    0    0 -0.25537744694E+02  0.45351682813E+02  0.54062695655E+03  0.55074832673E+03  0.91308606980E+02 0.  0.
        -13    1    3    3    0    0 -0.24412807841E+02  0.85277707133E+01  0.47473718467E+02  0.54059800269E+02  0.00000000000E+00 0.  1.
         14    1    3    3    0    0  0.38688516020E+02 -0.29353580269E+02  0.24294802669E+03  0.24775426861E+03  0.00000000000E+00 0. -1.
        -11    1    4    4    0    0  0.21617185753E+02  0.52968239698E+02  0.28118519646E+03  0.28694607829E+03  0.00000000000E+00 0.  1.
         11    1    4    4    0    0 -0.47154930447E+02 -0.76165568841E+01  0.25944176009E+03  0.26380224844E+03  0.00000000000E+00 0. -1.
          3    1    1    2  501    0  0.11262036515E+02 -0.24525873258E+02  0.89013479802E+02  0.93014791899E+02  0.00000000000E+00 0. -1.
<scales pt_clust_5="13000.00000" pt_clust_6="13000.00000" pt_clust_7="13000.00000" pt_clust_8="13000.00000" pt_clust_9="13000.00000"></scales>
<clustering>
<clus scale="   78.163">  5  6 -1 -1</clus>
<clus scale="   82.140">  2  5  1 -1</clus>
<clus scale="   91.309">  7  8 -1 -1</clus>
<clus scale="   34.060">  7  9 -1 -1</clus>
<clus scale="  134.104">  1  5  2 -1</clus>
</clustering>
</event>
<event>
 9    2  0.4178938E-005  0.2660617E+03  0.7546771E-02  0.1135110E+00
         21   -1    0    0  501  502  0.00000000000E+00  0.00000000000E+00  0.70455904404E+02  0.70455904404E+02  0.00000000000E+00 0. -1.
          2   -1    0    0  502    0 -0.00000000000E+00 -0.00000000000E+00 -0.67320005871E+03  0.67320005871E+03  0.00000000000E+00 0. -1.
         24    2    1    2    0    0 -0.87573583742E+02 -0.15038527216E+02 -0.50875035285E+02  0.13099918487E+03  0.81714303218E+02 0.  0.
         23    2    1    2    0    0 -0.18894410551E+02  0.90710100268E+01 -0.46524020903E+03  0.47526823026E+03  0.94826982610E+02 0.  0.
        -11    1    3    3    0    0 -0.39089334297E+01 -0.32091591148E+02 -0.27576927587E+02  0.42492786660E+02  0.00000000000E+00 0.  1.
         12    1    3    3    0    0 -0.83664650312E+02  0.17053063932E+02 -0.23298107698E+02  0.88506398207E+02  0.00000000000E+00 0. -1.
        -11    1    4    4    0    0 -0.57088835564E+02  0.98281177166E+01 -0.31244802879E+03  0.31777271396E+03  0.00000000000E+00 0.  1.
         11    1    4    4    0    0  0.38194425013E+02 -0.75710768983E+00 -0.15279218024E+03  0.15749551630E+03  0.00000000000E+00 0. -1.
          1    1    1    2  501    0  0.10646799429E+03  0.59675171896E+01 -0.86628909996E+02  0.13738854798E+03  0.00000000000E+00 0. -1.
<scales pt_clust_5="13000.00000" pt_clust_6="13000.00000" pt_clust_7="13000.00000" pt_clust_8="13000.00000" pt_clust_9="13000.00000"></scales>
<clustering>
<clus scale="   81.714">  5  6 -1 -1</clus>
<clus scale="   94.827">  7  8 -1 -1</clus>
<clus scale="  106.635">  7  9 -1 -1</clus>
<clus scale="  120.717">  2  5  1 -1</clus>
<clus scale="  266.062">  1  5  2 -1</clus>
</clustering>
</event>
<event>
 9    2  0.4178938E-005  0.1586201E+03  0.7546771E-02  0.1199444E+00
         21   -1    0    0  501  502  0.00000000000E+00  0.00000000000E+00  0.54106844826E+03  0.54106844826E+03  0.00000000000E+00 0. -1.
         -1   -1    0    0    0  501 -0.00000000000E+00 -0.00000000000E+00 -0.63258540801E+02  0.63258540801E+02  0.00000000000E+00 0.  1.
         24    2    1    2    0    0  0.89999415049E+02 -0.48365818908E+02  0.35574848127E+02  0.13450554597E+03  0.79918864662E+02 0.  0.
         23    2    1    2    0    0 -0.77566123550E+02  0.12546599006E+02  0.35593758309E+03  0.37556192019E+03  0.90450385153E+02 0.  0.
        -13    1    3    3    0    0  0.50740155473E+02 -0.13800139698E+01 -0.17279612580E+02  0.53619519085E+02  0.00000000000E+00 0.  1.
         14    1    3    3    0    0  0.39259259576E+02 -0.46985804938E+02  0.52854460707E+02  0.80886026882E+02  0.00000000000E+00 0. -1.
        -13    1    4    4    0    0 -0.34840735756E+01 -0.25179449112E+02  0.30651638613E+02  0.39820426616E+02  0.00000000000E+00 0.  1.
         13    1    4    4    0    0 -0.74082049974E+02  0.37726048118E+02  0.32528594448E+03  0.33574149358E+03  0.00000000000E+00 0. -1.
         -2    1    1    2    0  502 -0.12433291499E+02  0.35819219902E+02  0.86297476247E+02  0.94259522906E+02  0.00000000000E+00 0.  1.
<scales pt_clust_5="13000.00000" pt_clust_6="13000.00000" pt_clust_7="13000.00000" pt_clust_8="13000.00000" pt_clust_9="13000.00000"></scales>
<clustering>
<clus scale="   79.919">  5  6 -1 -1</clus>
<clus scale="   90.450">  7  8 -1 -1</clus>
<clus scale="   37.916">  7  9 -1 -1</clus>
<clus scale="  129.716">  2  5  1 -1</clus>
<clus scale="  158.620">  1  5  2 -1</clus>
</clustering>
</event>
<event>
 9    2  0.4178938E-005  0.2558611E+03  0.7546771E-02  0.1130176E+00
         21   -1    0    0  501  502  0.00000000000E+00  0.00000000000E+00  0.90750438643E+02  0.90750438643E+02  0.00000000000E+00 0.  1.
          2   -1    0    0  502    0 -0.00000000000E+00 -0.00000000000E+00 -0.78783640331E+03  0.78783640331E+03  0.00000000000E+00 0. -1.
         24    2    1    2    0    0  0.44193269032E+02  0.12435495886E+03 -0.57509097697E+03  0.59513017200E+03  0.77672961873E+02 0.  0.
         23    2    1    2    0    0 -0.42986644316E+02  0.29157536562E+02 -0.61223472585E+02  0.11834846530E+03  0.86948445161E+02 0.  0.
        -11    1    3    3    0    0  0.49638765519E+01  0.10823977889E+03 -0.45652682051E+03  0.46920915129E+03  0.00000000000E+00 0.  1.
         12    1    3    3    0    0  0.39229392480E+02  0.16115179975E+02 -0.11856415646E+03  0.12592102071E+03  0.00000000000E+00 0. -1.
        -13    1    4    4    0    0  0.18495683183E+02  0.31665244885E+02 -0.37358606043E+02  0.52349245224E+02  0.00000000000E+00 0.  1.
         13    1    4    4    0    0 -0.61482327499E+02 -0.25077083234E+01 -0.23864866543E+02  0.65999220078E+02  0.00000000000E+00 0. -1.
          1    1    1    2  501    0 -0.12066247154E+01 -0.15351249542E+03 -0.60771515105E+02  0.16510820465E+03  0.00000000000E+00 0. -1.
<scales pt_clust_5="13000.00000" pt_clust_6="13000.00000" pt_clust_7="13000.00000" pt_clust_8="13000.00000" pt_clust_9="13000.00000"></scales>
<clustering>
<clus scale="   77.673">  5  6 -1 -1</clus>
<clus scale="   86.948">  7  8 -1 -1</clus>
<clus scale="  153.135">  2  5  1 -1</clus>
<clus scale="   87.427">  7  9 -1 -1</clus>
<clus scale="  255.861">  1  5  2 -1</clus>
</clustering>
</event>
<event>
 9    2  0.4178938E-005  0.3207835E+03  0.7546771E-02  0.1125973E+00
         21   -1    0    0  501  502  0.00000000000E+00  0.00000000000E+00  0.49262882294E+03  0.49262882294E+03  0.00000000000E+00 0.  1.
          4   -1    0    0  502    0 -0.00000000000E+00 -0.00000000000E+00 -0.84178299681E+02  0.84178299681E+02  0.00000000000E+00 0. -1.
         24    2    1    2    0    0 -0.22866592921E+02 -0.19241236127E+02  0.77511725630E+02  0.11591394345E+03  0.80838533116E+02 0.  0.
         23    2    1    2    0    0 -0.12943154916E+03 -0.33831530396E+01  0.22032903744E+03  0.27131178210E+03  0.91111068079E+02 0.  0.
        -13    1    3    3    0    0 -0.46340218464E+02  0.11263546644E+02  0.43531452935E+02  0.64569890235E+02  0.00000000000E+00 0.  1.
         14    1    3    3    0    0  0.23473625544E+02 -0.30504782771E+02  0.33980272695E+02  0.51344053215E+02  0.00000000000E+00 0. -1.
        -13    1    4    4    0    0 -0.19868143450E+02 -0.22201724236E+02  0.67731310772E+01  0.30553804800E+02  0.00000000000E+00 0. -1.
         13    1    4    4    0    0 -0.10956340571E+03  0.18818571196E+02  0.21355590636E+03  0.24075797730E+03  0.00000000000E+00 0.  1.
          3    1    1    2  501    0  0.15229814208E+03  0.22624389167E+02  0.11060976019E+03  0.18958139707E+03  0.00000000000E+00 0. -1.
<scales pt_clust_5="13000.00000" pt_clust_6="13000.00000" pt_clust_7="13000.00000" pt_clust_8="13000.00000" pt_clust_9="13000.00000"></scales>
<clustering>
<clus scale="   80.839">  5  6 -1 -1</clus>
<clus scale="   86.186">  2  5  1 -1</clus>
<clus scale="   91.111">  7  8 -1 -1</clus>
<clus scale="  138.834">  7  9 -1 -1</clus>
<clus scale="  320.783">  1  5  2 -1</clus>
</clustering>
</event>
<event>
 9    2  0.4178938E-005  0.4616492E+03  0.7546771E-02  0.1083683E+00
         21   -1    0    0  501  502  0.00000000000E+00  0.00000000000E+00  0.15510497213E+03  0.15510497213E+03  0.00000000000E+00 0.  1.
          2   -1    0    0  502    0 -0.00000000000E+00 -0.00000000000E+00 -0.48684602941E+03  0.48684602941E+03  0.00000000000E+00 0. -1.
         24    2    1    2    0    0  0.30001965316E+02 -0.10640585100E+02 -0.32359154783E+02  0.91724259879E+02  0.79704987159E+02 0.  0.
         23    2    1    2    0    0 -0.23668984975E+03  0.31394776497E+01 -0.14592077221E+03  0.29268748894E+03  0.91329913646E+02 0.  0.
        -13    1    3    3    0    0  0.20741828163E+02 -0.43632577369E+02 -0.63980683892E+01  0.48733566691E+02  0.00000000000E+00 0.  1.
         14    1    3    3    0    0  0.92601371531E+01  0.32991992269E+02 -0.25961086394E+02  0.42990693187E+02  0.00000000000E+00 0. -1.
        -11    1    4    4    0    0 -0.75480169386E+02  0.37930611712E+02 -0.75731647737E+02  0.11345161852E+03  0.00000000000E+00 0. -1.
         11    1    4    4    0    0 -0.16120968036E+03 -0.34791134062E+02 -0.70189124470E+02  0.17923587042E+03  0.00000000000E+00 0.  1.
          1    1    1    2  501    0  0.20668788443E+03  0.75011074500E+01 -0.15346113028E+03  0.25753925272E+03  0.00000000000E+00 0. -1.
<scales pt_clust_5="13000.00000" pt_clust_6="13000.00000" pt_clust_7="13000.00000" pt_clust_8="13000.00000" pt_clust_9="13000.00000"></scales>
<clustering>
<clus scale="   79.705">  5  6 -1 -1</clus>
<clus scale="   85.827">  2  5  1 -1</clus>
<clus scale="   91.330">  7  8 -1 -1</clus>
<clus scale="  221.214">  7  9 -1 -1</clus>
<clus scale="  461.649">  1  5  2 -1</clus>
</clustering>
</event>
<event>
 9    2  0.4178938E-005  0.5299984E+03  0.7546771E-02  0.1065742E+00
          2   -1    0    0  502    0 -0.00000000000E+00  0.00000000000E+00  0.53451937082E+03  0.53451937082E+03  0.00000000000E+00 0. -1.
         21   -1    0    0  501  502  0.00000000000E+00 -0.00000000000E+00 -0.30500888880E+03  0.30500888880E+03  0.00000000000E+00 0. -1.
         24    2    1    2    0    0  0.90668535598E+01  0.43614405313E+02  0.29161028260E+03  0.30590416215E+03  0.80971447531E+02 0.  0.
         23    2    1    2    0    0 -0.19502030645E+03  0.11253433249E+03 -0.13767861317E+03  0.27931469562E+03  0.91457108788E+02 0.  0.
        -13    1    3    3    0    0 -0.31942886014E+02  0.14642770406E+02  0.18171663091E+03  0.18508293449E+03  0.00000000000E+00 0.  1.
         14    1    3    3    0    0  0.41009739574E+02  0.28971634907E+02  0.10989365170E+03  0.12082122765E+03  0.00000000000E+00 0. -1.
        -13    1    4    4    0    0 -0.42360410456E+02  0.31199161636E+02  0.79402499218E+01  0.53205635318E+02  0.00000000000E+00 0.  1.
         13    1    4    4    0    0 -0.15265989599E+03  0.81335170858E+02 -0.14561886309E+03  0.22610906030E+03  0.00000000000E+00 0. -1.
          1    1    1    2  501    0  0.18595345289E+03 -0.15614873781E+03  0.75578812586E+02  0.25430940185E+03  0.00000000000E+00 0. -1.
<scales pt_clust_5="13000.00000" pt_clust_6="13000.00000" pt_clust_7="13000.00000" pt_clust_8="13000.00000" pt_clust_9="13000.00000"></scales>
<clustering>
<clus scale="   80.971">  5  6 -1 -1</clus>
<clus scale="   91.457">  7  8 -1 -1</clus>
<clus scale="   92.416">  1  5  2 -1</clus>
<clus scale="  229.700">  7  9 -1 -1</clus>
<clus scale="  529.998">  2  5  1 -1</clus>
</clustering>
</event>
<event>
 9    2  0.4178938E-005  0.3877819E+03  0.7546771E-02  0.1072777E+00
          2   -1    0    0  502    0 -0.00000000000E+00  0.00000000000E+00  0.18623804862E+04  0.18623804862E+04  0.00000000000E+00 0. -1.
         21   -1    0    0  501  502  0.00000000000E+00 -0.00000000000E+00 -0.52411668765E+02  0.52411668765E+02  0.00000000000E+00 0. -1.
         24    2    1    2    0    0  0.15550419710E+03  0.86242638769E+02  0.97455319544E+03  0.99376334793E+03  0.78691250438E+02 0.  0.
         23    2    1    2    0    0  0.32173940155E+02  0.67342820420E+02  0.13109284676E+03  0.17612468690E+03  0.90908486818E+02 0.  0.
        -13    1    3    3    0    0  0.24408878379E+02 -0.34358529624E+01  0.50918503150E+02  0.56571126844E+02  0.00000000000E+00 0.  1.
         14    1    3    3    0    0  0.13109531872E+03  0.89678491731E+02  0.92363469229E+03  0.93719222109E+03  0.00000000000E+00 0. -1.
        -13    1    4    4    0    0 -0.18149680411E+02  0.43795644941E+02  0.10403231565E+03  0.11432494091E+03  0.00000000000E+00 0. -1.
         13    1    4    4    0    0  0.50323620565E+02  0.23547175479E+02  0.27060531110E+02  0.61799745985E+02  0.00000000000E+00 0.  1.
          1    1    1    2  501    0 -0.18767813726E+03 -0.15358545919E+03  0.70432277524E+03  0.74490412014E+03  0.00000000000E+00 0. -1.
<scales pt_clust_5="13000.00000" pt_clust_6="13000.00000" pt_clust_7="13000.00000" pt_clust_8="13000.00000" pt_clust_9="13000.00000"></scales>
<clustering>
<clus scale="   78.691">  5  6 -1 -1</clus>
<clus scale="   90.908">  7  8 -1 -1</clus>
<clus scale="  194.452">  1  5  2 -1</clus>
<clus scale="  101.585">  7  9 -1 -1</clus>
<clus scale="  387.782">  2  5  1 -1</clus>
</clustering>
</event>
<event>
 9    2  0.4178938E-005  0.6559867E+03  0.7546771E-02  0.1021275E+00
         21   -1    0    0  501  502  0.00000000000E+00  0.00000000000E+00  0.56349926428E+02  0.56349926428E+02  0.00000000000E+00 0. -1.
          2   -1    0    0  502    0 -0.00000000000E+00 -0.00000000000E+00 -0.30997664593E+04  0.30997664593E+04  0.00000000000E+00 0. -1.
         24    2    1    2    0    0  0.99285494334E+02 -0.12136160963E+03 -0.53193133268E+03  0.56037438940E+03  0.80512507938E+02 0.  0.
         23    2    1    2    0    0  0.12992770737E+03 -0.18929860435E+03 -0.66965444068E+03  0.71388413584E+03  0.92077786278E+02 0.  0.
        -13    1    3    3    0    0  0.61529089494E+02 -0.89812871484E+02 -0.46335714316E+03  0.47597481326E+03  0.00000000000E+00 0.  1.
         14    1    3    3    0    0  0.37756404840E+02 -0.31548738148E+02 -0.68574189519E+02  0.84399576145E+02  0.00000000000E+00 0. -1.
        -11    1    4    4    0    0  0.81764808923E+02 -0.17924897954E+03 -0.56160412860E+03  0.59515953988E+03  0.00000000000E+00 0. -1.
         11    1    4    4    0    0  0.48162898450E+02 -0.10049624814E+02 -0.10805031208E+03  0.11872459596E+03  0.00000000000E+00 0.  1.
          1    1    1    2  501    0 -0.22921320171E+03  0.31066021398E+03 -0.18418307595E+04  0.18818578604E+04  0.00000000000E+00 0. -1.
<scales pt_clust_5="13000.00000" pt_clust_6="13000.00000" pt_clust_7="13000.00000" pt_clust_8="13000.00000" pt_clust_9="13000.00000"></scales>
<clustering>
<clus scale="   80.513">  5  6 -1 -1</clus>
<clus scale="   92.078">  7  8 -1 -1</clus>
<clus scale="  176.263">  2  5  1 -1</clus>
<clus scale="  271.948">  7  9 -1 -1</clus>
<clus scale="  655.987">  1  5  2 -1</clus>
</clustering>
</event>
<event>
 9    2  0.4178938E-005  0.7642677E+03  0.7546771E-02  0.1009243E+00
          2   -1    0    0  502    0 -0.00000000000E+00  0.00000000000E+00  0.27287025482E+03  0.27287025482E+03  0.00000000000E+00 0. -1.
         21   -1    0    0  501  502  0.00000000000E+00 -0.00000000000E+00 -0.82233670370E+03  0.82233670370E+03  0.00000000000E+00 0. -1.
         24    2    1    2    0    0  0.45335011975E+02 -0.13210345398E+03 -0.19462966227E+03  0.25258353530E+03  0.80069663443E+02 0.  0.
         23    2    1    2    0    0  0.22703342504E+03  0.96373206090E+02 -0.47510747250E+03  0.54274635843E+03  0.89523897541E+02 0.  0.
        -11    1    3    3    0    0  0.43942600309E+02 -0.66177574494E+02 -0.50621696700E+02  0.94196494970E+02  0.00000000000E+00 0.  1.
         12    1    3    3    0    0  0.13924116664E+01 -0.65925879490E+02 -0.14400796557E+03  0.15838704033E+03  0.00000000000E+00 0. -1.
        -13    1    4    4    0    0  0.77283784772E+02  0.33816780716E+02 -0.25961956003E+03  0.27298108725E+03  0.00000000000E+00 0.  1.
         13    1    4    4    0    0  0.14974964026E+03  0.62556425375E+02 -0.21548791247E+03  0.26976527118E+03  0.00000000000E+00 0. -1.
          1    1    1    2  501    0 -0.27236843701E+03  0.35730247893E+02  0.12027068590E+03  0.29987706478E+03  0.00000000000E+00 0. -1.
<scales pt_clust_5="13000.00000" pt_clust_6="13000.00000" pt_clust_7="13000.00000" pt_clust_8="13000.00000" pt_clust_9="13000.00000"></scales>
<clustering>
<clus scale="   80.070">  5  6 -1 -1</clus>
<clus scale="   89.524">  7  8 -1 -1</clus>
<clus scale="  160.990">  1  5  2 -1</clus>
<clus scale="  246.030">  7  9 -1 -1</clus>
<clus scale="  764.268">  2  5  1 -1</clus>
</clustering>
</event>
<event>
 9    2  0.4178938E-005  0.4649769E+03  0.7546771E-02  0.1038013E+00
          2   -1    0    0  502    0 -0.00000000000E+00  0.00000000000E+00  0.14980741365E+04  0.14980741365E+04  0.00000000000E+00 0. -1.
         21   -1    0    0  501  502  0.00000000000E+00 -0.00000000000E+00 -0.21598768269E+03  0.21598768269E+03  0.00000000000E+00 0. -1.
         24    2    1    2    0    0  0.26309839403E+03 -0.12228318027E+03  0.12058580790E+04  0.12428779392E+04  0.80485550652E+02 0.  0.
         23    2    1    2    0    0  0.58007165663E+02  0.31457515359E+02  0.78399362948E+02  0.13747323426E+03  0.91640730495E+02 0.  0.
        -11    1    3    3    0    0  0.13154966004E+03 -0.10318986121E+03  0.62194939114E+03  0.64402989500E+03  0.00000000000E+00 0.  1.
         12    1    3    3    0    0  0.13154873400E+03 -0.19093319061E+02  0.58390868787E+03  0.59884804418E+03  0.00000000000E+00 0. -1.
        -13    1    4    4    0    0 -0.21787788193E+02  0.87316053749E+01  0.39248592640E+02  0.45731834327E+02  0.00000000000E+00 0.  1.
         13    1    4    4    0    0  0.79794953855E+02  0.22725909985E+02  0.39150770308E+02  0.91741399930E+02  0.00000000000E+00 0. -1.
          1    1    1    2  501    0 -0.32110555969E+03  0.90825664908E+02 -0.21709881851E+01  0.33371064571E+03  0.00000000000E+00 0. -1.
<scales pt_clust_5="13000.00000" pt_clust_6="13000.00000" pt_clust_7="13000.00000" pt_clust_8="13000.00000" pt_clust_9="13000.00000"></scales>
<clustering>
<clus scale="   80.486">  5  6 -1 -1</clus>
<clus scale="   91.641">  7  8 -1 -1</clus>
<clus scale="  301.084">  1  5  2 -1</clus>
<clus scale="  162.627">  7  9 -1 -1</clus>
<clus scale="  464.977">  2  5  1 -1</clus>
</clustering>
</event>
<event>
 9    2  0.4178938E-005  0.4073672E+03  0.7546771E-02  0.1091541E+00
          2   -1    0    0  502    0 -0.00000000000E+00  0.00000000000E+00  0.22051573813E+03  0.22051573813E+03  0.00000000000E+00 0. -1.
         21   -1    0    0  501  502  0.00000000000E+00 -0.00000000000E+00 -0.29345093019E+03  0.29345093019E+03  0.00000000000E+00 0. -1.
         24    2    1    2    0    0 -0.47905307222E+02 -0.39261699912E+02 -0.16047889848E+02  0.10264657809E+03  0.80264473372E+02 0.  0.
         23    2    1    2    0    0 -0.12027172636E+03 -0.61249506821E+02  0.71068221170E+02  0.17731446365E+03  0.90404295869E+02 0.  0.
        -11    1    3    3    0    0 -0.54498788532E+01  0.20183085315E+02  0.12339256459E+02  0.24275818469E+02  0.00000000000E+00 0.  1.
         12    1    3    3    0    0 -0.42455428368E+02 -0.59444785228E+02 -0.28387146308E+02  0.78370759625E+02  0.00000000000E+00 0. -1.
        -13    1    4    4    0    0 -0.32645665730E+02  0.26852699010E+01 -0.17626715056E+02  0.37197462939E+02  0.00000000000E+00 0.  1.
         13    1    4    4    0    0 -0.87626060630E+02 -0.63934776722E+02  0.88694936226E+02  0.14011700071E+03  0.00000000000E+00 0. -1.
          1    1    1    2  501    0  0.16817703358E+03  0.10051120673E+03 -0.12795552338E+03  0.23400562657E+03  0.00000000000E+00 0. -1.
<scales pt_clust_5="13000.00000" pt_clust_6="13000.00000" pt_clust_7="13000.00000" pt_clust_8="13000.00000" pt_clust_9="13000.00000"></scales>
<clustering>
<clus scale="   80.264">  5  6 -1 -1</clus>
<clus scale="   90.404">  7  8 -1 -1</clus>
<clus scale="  101.384">  1  5  2 -1</clus>
<clus scale="  177.614">  7  9 -1 -1</clus>
<clus scale="  407.367">  2  5  1 -1</clus>
</clustering>
</event>
<event>
 9    2  0.4178938E-005  0.4253727E+03  0.7546771E-02  0.1082059E+00
          2   -1    0    0  502    0 -0.00000000000E+00  0.00000000000E+00  0.69887646065E+03  0.69887646065E+03  0.00000000000E+00 0. -1.
         21   -1    0    0  501  502  0.00000000000E+00 -0.00000000000E+00 -0.14647229185E+03  0.14647229185E+03  0.00000000000E+00 0. -1.
         24    2    1    2    0    0  0.28190066460E+02  0.74358119340E+02  0.36126943750E+03  0.37900719733E+03  0.82504784085E+02 0.  0.
         23    2    1    2    0    0  0.98860379131E+02 -0.37374154771E+01  0.27010782581E+03  0.30091529004E+03  0.88342692828E+02 0.  0.
        -11    1    3    3    0    0  0.44504601279E+02  0.12760038282E+02  0.10189420705E+03  0.11191920096E+03  0.00000000000E+00 0.  1.
         12    1    3    3    0    0 -0.16314534820E+02  0.61598081059E+02  0.25937523045E+03  0.26708799637E+03  0.00000000000E+00 0. -1.
        -11    1    4    4    0    0  0.78282245024E+02  0.20449526006E+02  0.10382882642E+03  0.13163099253E+03  0.00000000000E+00 0. -1.
         11    1    4    4    0    0  0.20578134107E+02 -0.24186941483E+02  0.16627899939E+03  0.16928429750E+03  0.00000000000E+00 0.  1.
          1    1    1    2  501    0 -0.12705044559E+03 -0.70620703863E+02 -0.78973094513E+02  0.16542626513E+03  0.00000000000E+00 0. -1.
<scales pt_clust_5="13000.00000" pt_clust_6="13000.00000" pt_clust_7="13000.00000" pt_clust_8="13000.00000" pt_clust_9="13000.00000"></scales>
<clustering>
<clus scale="   82.505">  5  6 -1 -1</clus>
<clus scale="   88.343">  7  8 -1 -1</clus>
<clus scale="  114.590">  1  5  2 -1</clus>
<clus scale="  137.534">  7  9 -1 -1</clus>
<clus scale="  425.373">  2  5  1 -1</clus>
</clustering>
</event>
<event>
 9    2  0.4178938E-005  0.1759744E+03  0.7546771E-02  0.1189227E+00
         21   -1    0    0  501  502  0.00000000000E+00  0.00000000000E+00  0.60847781594E+02  0.60847781594E+02  0.00000000000E+00 0.  1.
          2   -1    0    0  502    0 -0.00000000000E+00 -0.00000000000E+00 -0.39396464138E+03  0.39396464138E+03  0.00000000000E+00 0. -1.
         24    2    1    2    0    0 -0.66145392939E+02  0.60685092166E+02 -0.20562924689E+03  0.23751061649E+03  0.77910283985E+02 0.  0.
         23    2    1    2    0    0  0.62904662243E+02 -0.25554476813E+02 -0.48694444835E+02  0.13097089774E+03  0.10085732141E+03 0.  0.
        -11    1    3    3    0    0 -0.41916544055E+02  0.65193248629E+02 -0.87728677186E+02  0.11706185174E+03  0.00000000000E+00 0.  1.
         12    1    3    3    0    0 -0.24228848884E+02 -0.45081564630E+01 -0.11790056970E+03  0.12044876475E+03  0.00000000000E+00 0. -1.
        -13    1    4    4    0    0  0.51700542297E+02  0.33114491794E+02 -0.30349169596E+02  0.68487865610E+02  0.00000000000E+00 0. -1.
         13    1    4    4    0    0  0.11204119946E+02 -0.58668968607E+02 -0.18345275238E+02  0.62483032135E+02  0.00000000000E+00 0.  1.
          1    1    1    2  501    0  0.32407306963E+01 -0.35130615353E+02 -0.78793168066E+02  0.86330908743E+02  0.00000000000E+00 0. -1.
<scales pt_clust_5="13000.00000" pt_clust_6="13000.00000" pt_clust_7="13000.00000" pt_clust_8="13000.00000" pt_clust_9="13000.00000"></scales>
<clustering>
<clus scale="   77.910">  5  6 -1 -1</clus>
<clus scale="  100.857">  7  8 -1 -1</clus>
<clus scale="   35.280">  7  9 -1 -1</clus>
<clus scale="  118.861">  2  5  1 -1</clus>
<clus scale="  175.974">  1  5  2 -1</clus>
</clustering>
</event>
<event>
 9    2  0.4178938E-005  0.2764777E+03  0.7546771E-02  0.1145201E+00
          2   -1    0    0  502    0 -0.00000000000E+00  0.00000000000E+00  0.50272216869E+03  0.50272216869E+03  0.00000000000E+00 0. -1.
         21   -1    0    0  501  502  0.00000000000E+00 -0.00000000000E+00 -0.74702960562E+02  0.74702960562E+02  0.00000000000E+00 0. -1.
         24    2    1    2    0    0  0.12937707299E+01  0.25015160761E+02  0.20679950017E+03  0.22333746421E+03  0.80536684445E+02 0.  0.
         23    2    1    2    0    0  0.18409290417E+02  0.40106123676E+02 -0.20868314316E+02  0.10262076297E+03  0.90267000176E+02 0.  0.
        -13    1    3    3    0    0  0.38508583328E+02  0.98645093225E+00  0.75371081113E+02  0.84644456071E+02  0.00000000000E+00 0.  1.
         14    1    3    3    0    0 -0.37214812598E+02  0.24028709829E+02  0.13142841905E+03  0.13869300814E+03  0.00000000000E+00 0. -1.
        -13    1    4    4    0    0  0.50250229401E+02  0.43514204173E+01 -0.11370963836E+00  0.50438411399E+02  0.00000000000E+00 0.  1.
         13    1    4    4    0    0 -0.31840938984E+02  0.35754703258E+02 -0.20754604677E+02  0.52182351574E+02  0.00000000000E+00 0. -1.
          1    1    1    2  501    0 -0.19703061147E+02 -0.65121284437E+02  0.24208802228E+03  0.25146690207E+03  0.00000000000E+00 0. -1.
<scales pt_clust_5="13000.00000" pt_clust_6="13000.00000" pt_clust_7="13000.00000" pt_clust_8="13000.00000" pt_clust_9="13000.00000"></scales>
<clustering>
<clus scale="   80.537">  5  6 -1 -1</clus>
<clus scale="   84.342">  1  5  2 -1</clus>
<clus scale="   90.267">  7  8 -1 -1</clus>
<clus scale="   47.455">  7  9 -1 -1</clus>
<clus scale="  276.478">  2  5  1 -1</clus>
</clustering>
</event>
<event>
 9    2  0.4178938E-005  0.1890240E+03  0.7546771E-02  0.1195380E+00
         21   -1    0    0  501  502  0.00000000000E+00  0.00000000000E+00  0.63803790682E+02  0.63803790682E+02  0.00000000000E+00 0.  1.
         -1   -1    0    0    0  501 -0.00000000000E+00 -0.00000000000E+00 -0.30435902874E+03  0.30435902874E+03  0.00000000000E+00 0.  1.
         24    2    1    2    0    0  0.28177949039E+01 -0.14255177747E+02 -0.11077072067E+03  0.13887239513E+03  0.82487814320E+02 0.  0.
         23    2    1    2    0    0  0.19047849888E+02  0.78639303529E+02 -0.73017563352E+02  0.14071328760E+03  0.89003955548E+02 0.  0.
        -13    1    3    3    0    0 -0.26247460221E+02  0.24047955956E+02 -0.50086543357E+02  0.61448313070E+02  0.00000000000E+00 0.  1.
         14    1    3    3    0    0  0.29065255125E+02 -0.38303133703E+02 -0.60684177313E+02  0.77424082062E+02  0.00000000000E+00 0. -1.
        -13    1    4    4    0    0 -0.10445084668E+02  0.60432964911E+02 -0.16231943524E+01  0.61350450704E+02  0.00000000000E+00 0.  1.
         13    1    4    4    0    0  0.29492934556E+02  0.18206338618E+02 -0.71394368999E+02  0.79362836891E+02  0.00000000000E+00 0. -1.
         -2    1    1    2    0  502 -0.21865644791E+02 -0.64384125781E+02 -0.56766954038E+02  0.88577136698E+02  0.00000000000E+00 0.  1.
<scales pt_clust_5="13000.00000" pt_clust_6="13000.00000" pt_clust_7="13000.00000" pt_clust_8="13000.00000" pt_clust_9="13000.00000"></scales>
<clustering>
<clus scale="   82.488">  5  6 -1 -1</clus>
<clus scale="   83.758">  2  5  1 -1</clus>
<clus scale="   89.004">  7  8 -1 -1</clus>
<clus scale="   73.152">  7  9 -1 -1</clus>
<clus scale="  189.024">  1  5  2 -1</clus>
</clustering>
</event>
<event>
 9    2  0.4178938E-005  0.1913976E+03  0.7546771E-02  0.1176827E+00
         21   -1    0    0  501  502  0.00000000000E+00  0.00000000000E+00  0.96013067768E+02  0.96013067768E+02  0.00000000000E+00 0. -1.
          2   -1    0    0  502    0 -0.00000000000E+00 -0.00000000000E+00 -0.28162642630E+03  0.28162642630E+03  0.00000000000E+00 0. -1.
         24    2    1    2    0    0 -0.90851092762E+02 -0.10001226637E+02 -0.17992805485E+02  0.12321919415E+03  0.80655335642E+02 0.  0.
         23    2    1    2    0    0 -0.23716837168E+01  0.94105152360E+01 -0.53689618136E+02  0.10720925100E+03  0.92287950043E+02 0.  0.
        -13    1    3    3    0    0 -0.31202655074E+02  0.32603184024E+02 -0.21174145544E+02  0.49848949153E+02  0.00000000000E+00 0.  1.
         14    1    3    3    0    0 -0.59648437688E+02 -0.42604410661E+02  0.31813400584E+01  0.73370244997E+02  0.00000000000E+00 0. -1.
        -11    1    4    4    0    0 -0.27034312881E+02 -0.17363368078E+02 -0.62036142479E+02  0.69862891421E+02  0.00000000000E+00 0.  1.
         11    1    4    4    0    0  0.24662629164E+02  0.26773883314E+02  0.83465243431E+01  0.37346359577E+02  0.00000000000E+00 0. -1.
          1    1    1    2  501    0  0.93222776479E+02  0.59071140148E+00 -0.11393093491E+03  0.14721104892E+03  0.00000000000E+00 0. -1.
<scales pt_clust_5="13000.00000" pt_clust_6="13000.00000" pt_clust_7="13000.00000" pt_clust_8="13000.00000" pt_clust_9="13000.00000"></scales>
<clustering>
<clus scale="   80.655">  5  6 -1 -1</clus>
<clus scale="   92.288">  7  8 -1 -1</clus>
<clus scale="   93.225">  7  9 -1 -1</clus>
<clus scale="  121.898">  2  5  1 -1</clus>
<clus scale="  191.398">  1  5  2 -1</clus>
</clustering>
</event>
<event>
 9    2  0.4178938E-005  0.3161739E+03  0.7546771E-02  0.1104506E+00
         21   -1    0    0  501  502  0.00000000000E+00  0.00000000000E+00  0.10373205123E+03  0.10373205123E+03  0.00000000000E+00 0.  1.
          2   -1    0    0  502    0 -0.00000000000E+00 -0.00000000000E+00 -0.73347627902E+03  0.73347627902E+03  0.00000000000E+00 0. -1.
         24    2    1    2    0    0 -0.93722154490E+02 -0.94024351772E+02 -0.27667794587E+02  0.15716276879E+03  0.79436818092E+02 0.  0.
         23    2    1    2    0    0  0.34430701883E+02 -0.81710990567E+02 -0.20360380154E+03  0.24052442991E+03  0.92386872280E+02 0.  0.
        -11    1    3    3    0    0 -0.18259741999E+02  0.88262507859E+01  0.12009012495E+02  0.23569837969E+02  0.00000000000E+00 0.  1.
         12    1    3    3    0    0 -0.75462412491E+02 -0.10285060256E+03 -0.39676807082E+02  0.13359293082E+03  0.00000000000E+00 0. -1.
        -13    1    4    4    0    0 -0.19685857280E+02 -0.67870783330E+02 -0.95046783148E+02  0.11843929750E+03  0.00000000000E+00 0.  1.
         13    1    4    4    0    0  0.54116559162E+02 -0.13840207237E+02 -0.10855701839E+03  0.12208513240E+03  0.00000000000E+00 0. -1.
          1    1    1    2  501    0  0.59291452607E+02  0.17573534234E+03 -0.39847263166E+03  0.43952113156E+03  0.00000000000E+00 0. -1.
<scales pt_clust_5="13000.00000" pt_clust_6="13000.00000" pt_clust_7="13000.00000" pt_clust_8="13000.00000" pt_clust_9="13000.00000"></scales>
<clustering>
<clus scale="   79.437">  5  6 -1 -1</clus>
<clus scale="   92.387">  7  8 -1 -1</clus>
<clus scale="  154.708">  2  5  1 -1</clus>
<clus scale="  114.298">  7  9 -1 -1</clus>
<clus scale="  316.174">  1  5  2 -1</clus>
</clustering>
</event>
<event>
 9    2  0.4178938E-005  0.4678071E+03  0.7546771E-02  0.1061121E+00
          2   -1    0    0  502    0 -0.00000000000E+00  0.00000000000E+00  0.18995063801E+03  0.18995063801E+03  0.00000000000E+00 0. -1.
         21   -1    0    0  501  502  0.00000000000E+00 -0.00000000000E+00 -0.50915046605E+03  0.50915046605E+03  0.00000000000E+00 0. -1.
         24    2    1    2    0    0 -0.73624784994E+02 -0.10743225230E+03 -0.59060052528E+02  0.16382904167E+03  0.79934768965E+02 0.  0.
         23    2    1    2    0    0 -0.14753973105E+03 -0.99869747938E+01  0.12080694662E+01  0.17332771015E+03  0.90406436555E+02 0.  0.
        -11    1    3    3    0    0 -0.19198473152E+02 -0.95035079222E+01 -0.46365809150E+02  0.51075300218E+02  0.00000000000E+00 0.  1.
         12    1    3    3    0    0 -0.54426311842E+02 -0.97928744375E+02 -0.12694243378E+02  0.11275374145E+03  0.00000000000E+00 0. -1.
        -13    1    4    4    0    0 -0.71583280769E+02 -0.49277822892E+02 -0.82188271068E+01  0.87292720393E+02  0.00000000000E+00 0.  1.
         13    1    4    4    0    0 -0.75956450283E+02  0.39290848099E+02  0.94268965729E+01  0.86034989759E+02  0.00000000000E+00 0. -1.
          1    1    1    2  501    0  0.22116451605E+03  0.11741922709E+03 -0.26134784498E+03  0.36194435224E+03  0.00000000000E+00 0. -1.
<scales pt_clust_5="13000.00000" pt_clust_6="13000.00000" pt_clust_7="13000.00000" pt_clust_8="13000.00000" pt_clust_9="13000.00000"></scales>
<clustering>
<clus scale="   79.935">  5  6 -1 -1</clus>
<clus scale="   90.406">  7  8 -1 -1</clus>
<clus scale="  152.813">  1  5  2 -1</clus>
<clus scale="  209.373">  7  9 -1 -1</clus>
<clus scale="  467.807">  2  5  1 -1</clus>
</clustering>
</event>
<event>
 9    2  0.4178938E-005  0.2284885E+03  0.7546771E-02  0.1162081E+00
         -1   -1    0    0    0  501 -0.00000000000E+00  0.00000000000E+00  0.67448041405E+03  0.67448041405E+03  0.00000000000E+00 0.  1.
         21   -1    0    0  501  502  0.00000000000E+00 -0.00000000000E+00 -0.44203984688E+02  0.44203984688E+02  0.00000000000E+00 0. -1.
         24    2    1    2    0    0 -0.48188886518E+02 -0.34214976803E+02  0.30552659933E+03  0.32160827063E+03  0.81194478979E+02 0.  0.
         23    2    1    2    0    0 -0.27720116230E+02 -0.53210252217E+02  0.12866249778E+03  0.16935790478E+03  0.92348934976E+02 0.  0.
        -11    1    3    3    0    0  0.17504690200E+02 -0.17766756993E+02  0.14880661369E+03  0.15088233864E+03  0.00000000000E+00 0.  1.
         12    1    3    3    0    0 -0.65693576718E+02 -0.16448219811E+02  0.15671998564E+03  0.17072593200E+03  0.00000000000E+00 0. -1.
        -13    1    4    4    0    0  0.44873621834E+01 -0.56866880753E+02  0.27882573925E+02  0.63493436469E+02  0.00000000000E+00 0. -1.
         13    1    4    4    0    0 -0.32207478413E+02  0.36566285360E+01  0.10077992386E+03  0.10586446831E+03  0.00000000000E+00 0.  1.
         -2    1    1    2    0  502  0.75909002748E+02  0.87425229021E+02  0.19608733224E+03  0.22771822332E+03  0.00000000000E+00 0.  1.
<scales pt_clust_5="13000.00000" pt_clust_6="13000.00000" pt_clust_7="13000.00000" pt_clust_8="13000.00000" pt_clust_9="13000.00000"></scales>
<clustering>
<clus scale="   81.194">  5  6 -1 -1</clus>
<clus scale="   92.349">  7  8 -1 -1</clus>
<clus scale="  100.426">  1  5  2 -1</clus>
<clus scale="   82.471">  7  9 -1 -1</clus>
<clus scale="  228.489">  2  5  1 -1</clus>
</clustering>
</event>
<event>
 9    2  0.4178938E-005  0.5271725E+03  0.7546771E-02  0.1059518E+00
         21   -1    0    0  501  502  0.00000000000E+00  0.00000000000E+00  0.25081332263E+03  0.25081332263E+03  0.00000000000E+00 0. -1.
          2   -1    0    0  502    0 -0.00000000000E+00 -0.00000000000E+00 -0.47499050759E+03  0.47499050759E+03  0.00000000000E+00 0. -1.
         24    2    1    2    0    0  0.74027039604E+02 -0.16484976136E+02 -0.15945202955E+03  0.19467275392E+03  0.81980329112E+02 0.  0.
         23    2    1    2    0    0  0.11782407852E+03  0.38671160146E+02 -0.22997864824E+03  0.27695044136E+03  0.91833524476E+02 0.  0.
        -11    1    3    3    0    0 -0.47649949563E+01  0.19649295296E+02 -0.56947399390E+02  0.60430176897E+02  0.00000000000E+00 0.  1.
         12    1    3    3    0    0  0.78792034560E+02 -0.36134271433E+02 -0.10250463016E+03  0.13424257703E+03  0.00000000000E+00 0. -1.
        -13    1    4    4    0    0  0.58471215284E+02  0.21135877621E+02 -0.32816761314E+02  0.70303258550E+02  0.00000000000E+00 0.  1.
         13    1    4    4    0    0  0.59352863234E+02  0.17535282525E+02 -0.19716188692E+03  0.20664718281E+03  0.00000000000E+00 0. -1.
          1    1    1    2  501    0 -0.19185111812E+03 -0.22186184009E+02  0.16525349283E+03  0.25418063494E+03  0.00000000000E+00 0. -1.
<scales pt_clust_5="13000.00000" pt_clust_6="13000.00000" pt_clust_7="13000.00000" pt_clust_8="13000.00000" pt_clust_9="13000.00000"></scales>
<clustering>
<clus scale="   81.980">  5  6 -1 -1</clus>
<clus scale="   91.834">  7  8 -1 -1</clus>
<clus scale="  111.680">  2  5  1 -1</clus>
<clus scale="  182.475">  7  9 -1 -1</clus>
<clus scale="  527.173">  1  5  2 -1</clus>
</clustering>
</event>
<event>
 9    2  0.4178938E-005  0.3764605E+03  0.7546771E-02  0.1076886E+00
         21   -1    0    0  501  502  0.00000000000E+00  0.00000000000E+00  0.12215378923E+03  0.12215378923E+03  0.00000000000E+00 0. -1.
          2   -1    0    0  502    0 -0.00000000000E+00 -0.00000000000E+00 -0.65974121258E+03  0.65974121258E+03  0.00000000000E+00 0. -1.
         24    2    1    2    0    0 -0.30649776923E+02  0.16972254524E+03 -0.20529770380E+03  0.27976062760E+03  0.79835520792E+02 0.  0.
         23    2    1    2    0    0 -0.90435768372E+01 -0.13279566221E+02 -0.32741079383E+03  0.34066062422E+03  0.92702210423E+02 0.  0.
        -11    1    3    3    0    0 -0.15767422096E+02  0.97842852593E+02 -0.57093927384E+02  0.11437461234E+03  0.00000000000E+00 0.  1.
         12    1    3    3    0    0 -0.14882354827E+02  0.71879692652E+02 -0.14820377642E+03  0.16538601526E+03  0.00000000000E+00 0. -1.
        -11    1    4    4    0    0  0.35566627812E+02  0.52663404369E+01 -0.69346467497E+02  0.78113071312E+02  0.00000000000E+00 0.  1.
         11    1    4    4    0    0 -0.44610204650E+02 -0.18545906658E+02 -0.25806432633E+03  0.26254755291E+03  0.00000000000E+00 0. -1.
          1    1    1    2  501    0  0.39693353760E+02 -0.15644297902E+03 -0.48789257245E+01  0.16147374999E+03  0.00000000000E+00 0. -1.
<scales pt_clust_5="13000.00000" pt_clust_6="13000.00000" pt_clust_7="13000.00000" pt_clust_8="13000.00000" pt_clust_9="13000.00000"></scales>
<clustering>
<clus scale="   79.836">  5  6 -1 -1</clus>
<clus scale="   92.702">  7  8 -1 -1</clus>
<clus scale="  161.400">  7  9 -1 -1</clus>
<clus scale="  190.050">  2  5  1 -1</clus>
<clus scale="  376.460">  1  5  2 -1</clus>
</clustering>
</event>
<event>
 9    2  0.4178938E-005  0.4660046E+03  0.7546771E-02  0.1079414E+00
         21   -1    0    0  501  502  0.00000000000E+00  0.00000000000E+00  0.79954825761E+02  0.79954825761E+02  0.00000000000E+00 0. -1.
          2   -1    0    0  502    0 -0.00000000000E+00 -0.00000000000E+00 -0.10748147079E+04  0.10748147079E+04  0.00000000000E+00 0. -1.
         24    2    1    2    0    0 -0.45845695988E+02  0.11233019254E+02 -0.32892703341E+03  0.34197998075E+03  0.80804117218E+02 0.  0.
         23    2    1    2    0    0 -0.15734866966E+03  0.11886042337E+03 -0.38644609627E+03  0.44356726370E+03  0.92330536787E+02 0.  0.
        -13    1    3    3    0    0  0.14215192308E+02  0.26739579465E+02 -0.83047008961E+02  0.88396167902E+02  0.00000000000E+00 0.  1.
         14    1    3    3    0    0 -0.60060888296E+02 -0.15506560211E+02 -0.24588002445E+03  0.25358381284E+03  0.00000000000E+00 0. -1.
        -13    1    4    4    0    0 -0.12710641732E+03  0.11295281162E+03 -0.24135335037E+03  0.29523857931E+03  0.00000000000E+00 0. -1.
         13    1    4    4    0    0 -0.30242252333E+02  0.59076117561E+01 -0.14509274590E+03  0.14832868440E+03  0.00000000000E+00 0.  1.
          1    1    1    2  501    0  0.20319436564E+03 -0.13009344263E+03 -0.27948675243E+03  0.36922228918E+03  0.00000000000E+00 0. -1.
<scales pt_clust_5="13000.00000" pt_clust_6="13000.00000" pt_clust_7="13000.00000" pt_clust_8="13000.00000" pt_clust_9="13000.00000"></scales>
<clustering>
<clus scale="   80.804">  5  6 -1 -1</clus>
<clus scale="   92.331">  7  8 -1 -1</clus>
<clus scale="   93.581">  2  5  1 -1</clus>
<clus scale="  221.778">  7  9 -1 -1</clus>
<clus scale="  466.005">  1  5  2 -1</clus>
</clustering>
</event>
<event>
 9    2  0.4178938E-005  0.2634992E+03  0.7546771E-02  0.1150365E+00
         21   -1    0    0  501  502  0.00000000000E+00  0.00000000000E+00  0.12171046794E+03  0.12171046794E+03  0.00000000000E+00 0.  1.
         -1   -1    0    0    0  501 -0.00000000000E+00 -0.00000000000E+00 -0.39601731043E+03  0.39601731043E+03  0.00000000000E+00 0.  1.
         24    2    1    2    0    0 -0.24090740728E+02  0.23801388284E+02 -0.23627707850E+03  0.25149842380E+03  0.79232124040E+02 0.  0.
         23    2    1    2    0    0  0.56289811593E+02 -0.72181907851E+02  0.67065834090E+02  0.14613547639E+03  0.92081380561E+02 0.  0.
        -11    1    3    3    0    0  0.26356034793E+02  0.40593017062E+01 -0.41506811824E+02  0.49334915913E+02  0.00000000000E+00 0.  1.
         12    1    3    3    0    0 -0.50446775522E+02  0.19742086578E+02 -0.19477026667E+03  0.20216350789E+03  0.00000000000E+00 0. -1.
        -11    1    4    4    0    0  0.77095519798E+02 -0.36968687291E+02  0.60429342088E+02  0.10470008786E+03  0.00000000000E+00 0.  1.
         11    1    4    4    0    0 -0.20805708204E+02 -0.35213220559E+02  0.66364920021E+01  0.41435388524E+02  0.00000000000E+00 0. -1.
         -2    1    1    2    0  502 -0.32199070865E+02  0.48380519566E+02 -0.10509559808E+03  0.12009387817E+03  0.00000000000E+00 0.  1.
<scales pt_clust_5="13000.00000" pt_clust_6="13000.00000" pt_clust_7="13000.00000" pt_clust_8="13000.00000" pt_clust_9="13000.00000"></scales>
<clustering>
<clus scale="   79.232">  5  6 -1 -1</clus>
<clus scale="   86.166">  2  5  1 -1</clus>
<clus scale="   92.081">  7  8 -1 -1</clus>
<clus scale="   82.816">  7  9 -1 -1</clus>
<clus scale="  263.499">  1  5  2 -1</clus>
</clustering>
</event>
<event>
 9    2  0.4178938E-005  0.5071910E+03  0.7546771E-02  0.1068472E+00
         21   -1    0    0  501  502  0.00000000000E+00  0.00000000000E+00  0.24881690207E+03  0.24881690207E+03  0.00000000000E+00 0. -1.
          2   -1    0    0  502    0 -0.00000000000E+00 -0.00000000000E+00 -0.48058230420E+03  0.48058230420E+03  0.00000000000E+00 0. -1.
         24    2    1    2    0    0 -0.55924799072E+02  0.62818481710E+00 -0.19830037634E+03  0.22110538126E+03  0.80228253129E+02 0.  0.
         23    2    1    2    0    0  0.12080735226E+03  0.16336991401E+03 -0.16819837142E+03  0.28635194849E+03  0.11145672295E+03 0.  0.
        -11    1    3    3    0    0 -0.70454420410E+02 -0.14422206513E+02 -0.17789797843E+03  0.19188412161E+03  0.00000000000E+00 0.  1.
         12    1    3    3    0    0  0.14529621337E+02  0.15050391330E+02 -0.20402397908E+02  0.29221259655E+02  0.00000000000E+00 0. -1.
        -13    1    4    4    0    0  0.17861678222E+02  0.13417583515E+02  0.16004298502E+02  0.27481060147E+02  0.00000000000E+00 0.  1.
         13    1    4    4    0    0  0.10294567404E+03  0.14995233049E+03 -0.18420266992E+03  0.25887088834E+03  0.00000000000E+00 0. -1.
          1    1    1    2  501    0 -0.64882553192E+02 -0.16399809883E+03  0.13473334563E+03  0.22194187651E+03  0.00000000000E+00 0. -1.
<scales pt_clust_5="13000.00000" pt_clust_6="13000.00000" pt_clust_7="13000.00000" pt_clust_8="13000.00000" pt_clust_9="13000.00000"></scales>
<clustering>
<clus scale="   80.228">  5  6 -1 -1</clus>
<clus scale="   97.799">  2  5  1 -1</clus>
<clus scale="  111.457">  7  8 -1 -1</clus>
<clus scale="  179.781">  7  9 -1 -1</clus>
<clus scale="  507.191">  1  5  2 -1</clus>
</clustering>
</event>
<event>
 9    2  0.4178938E-005  0.1750771E+03  0.7546771E-02  0.1189086E+00
          2   -1    0    0  502    0 -0.00000000000E+00  0.00000000000E+00  0.92731957196E+03  0.92731957196E+03  0.00000000000E+00 0. -1.
         21   -1    0    0  501  502  0.00000000000E+00 -0.00000000000E+00 -0.33185699032E+02  0.33185699032E+02  0.00000000000E+00 0.  1.
         24    2    1    2    0    0 -0.88619561882E+02 -0.17336621391E+02  0.64341988209E+03  0.65471203209E+03  0.80651814013E+02 0.  0.
         23    2    1    2    0    0  0.28097123302E+02 -0.24512518492E+02  0.12241212033E+03  0.15788892505E+03  0.92487153428E+02 0.  0.
        -13    1    3    3    0    0 -0.10211629377E+03 -0.24705130472E+02  0.58124021303E+03  0.59065917937E+03  0.00000000000E+00 0.  1.
         14    1    3    3    0    0  0.13496731886E+02  0.73685090814E+01  0.62179669058E+02  0.64052852722E+02  0.00000000000E+00 0. -1.
        -11    1    4    4    0    0  0.40191409527E+02  0.14547550426E+02  0.19171553675E+02  0.46845801236E+02  0.00000000000E+00 0.  1.
         11    1    4    4    0    0 -0.12094286225E+02 -0.39060068917E+02  0.10324056666E+03  0.11104312381E+03  0.00000000000E+00 0. -1.
          1    1    1    2  501    0  0.60522438579E+02  0.41849139883E+02  0.12830187051E+03  0.14790431385E+03  0.00000000000E+00 0. -1.
<scales pt_clust_5="13000.00000" pt_clust_6="13000.00000" pt_clust_7="13000.00000" pt_clust_8="13000.00000" pt_clust_9="13000.00000"></scales>
<clustering>
<clus scale="   80.652">  5  6 -1 -1</clus>
<clus scale="   92.487">  7  8 -1 -1</clus>
<clus scale="   73.582">  7  9 -1 -1</clus>
<clus scale="  121.073">  1  5  2 -1</clus>
<clus scale="  175.077">  2  5  1 -1</clus>
</clustering>
</event>
<event>
 9    2  0.4178938E-005  0.4755447E+03  0.7546771E-02  0.1068370E+00
         21   -1    0    0  501  502  0.00000000000E+00  0.00000000000E+00  0.42337833911E+02  0.42337833911E+02  0.00000000000E+00 0.  1.
          2   -1    0    0  502    0 -0.00000000000E+00 -0.00000000000E+00 -0.22825169517E+04  0.22825169517E+04  0.00000000000E+00 0. -1.
         24    2    1    2    0    0  0.87302022177E+02 -0.17244120849E+02 -0.22724009670E+03  0.25650610492E+03  0.78983020525E+02 0.  0.
         23    2    1    2    0    0  0.16198026066E+03 -0.32777097463E+02 -0.50625764987E+03  0.54036552202E+03  0.91575904997E+02 0.  0.
        -11    1    3    3    0    0  0.13284170605E+02  0.16271800763E+02 -0.76328369412E+01  0.22349516516E+02  0.00000000000E+00 0.  1.
         12    1    3    3    0    0  0.74017851572E+02 -0.33515921611E+02 -0.21960725976E+03  0.23415658840E+03  0.00000000000E+00 0. -1.
        -13    1    4    4    0    0  0.11684839927E+03 -0.45848205847E+02 -0.24896203631E+03  0.27881481653E+03  0.00000000000E+00 0.  1.
         13    1    4    4    0    0  0.45131861385E+02  0.13071108384E+02 -0.25729561356E+03  0.26155070549E+03  0.00000000000E+00 0. -1.
          1    1    1    2  501    0 -0.24928228283E+03  0.50021218312E+02 -0.15066813713E+04  0.15279831587E+04  0.00000000000E+00 0. -1.
<scales pt_clust_5="13000.00000" pt_clust_6="13000.00000" pt_clust_7="13000.00000" pt_clust_8="13000.00000" pt_clust_9="13000.00000"></scales>
<clustering>
<clus scale="   78.983">  5  6 -1 -1</clus>
<clus scale="   91.576">  7  8 -1 -1</clus>
<clus scale="  118.985">  2  5  1 -1</clus>
<clus scale="  188.084">  7  9 -1 -1</clus>
<clus scale="  475.545">  1  5  2 -1</clus>
</clustering>
</event>
<event>
 9    2  0.4178938E-005  0.5621972E+03  0.7546771E-02  0.1033940E+00
          2   -1    0    0  502    0 -0.00000000000E+00  0.00000000000E+00  0.18715337554E+04  0.18715337554E+04  0.00000000000E+00 0. -1.
         21   -1    0    0  501  502  0.00000000000E+00 -0.00000000000E+00 -0.86739778879E+02  0.86739778879E+02  0.00000000000E+00 0.  1.
         24    2    1    2    0    0 -0.11187776280E+03 -0.13233914064E+03  0.81507017249E+03  0.83736766893E+03  0.82552679774E+02 0.  0.
         23    2    1    2    0    0  0.97321536563E+02 -0.19173709419E+03  0.43818119621E+03  0.49819017289E+03  0.99780222911E+02 0.  0.
        -13    1    3    3    0    0 -0.10047305573E+03 -0.13443417917E+03  0.80402089748E+03  0.82135070892E+03  0.00000000000E+00 0.  1.
         14    1    3    3    0    0 -0.11404707070E+02  0.20950385342E+01  0.11049275007E+02  0.16016960012E+02  0.00000000000E+00 0. -1.
        -13    1    4    4    0    0  0.36533861759E+01 -0.47145296003E+02  0.32316943117E+02  0.57274872135E+02  0.00000000000E+00 0.  1.
         13    1    4    4    0    0  0.93668150387E+02 -0.14459179818E+03  0.40586425309E+03  0.44091530075E+03  0.00000000000E+00 0. -1.
          1    1    1    2  501    0  0.14556226236E+02  0.32407623483E+03  0.53154260782E+03  0.62271569246E+03  0.00000000000E+00 0. -1.
<scales pt_clust_5="13000.00000" pt_clust_6="13000.00000" pt_clust_7="13000.00000" pt_clust_8="13000.00000" pt_clust_9="13000.00000"></scales>
<clustering>
<clus scale="   82.553">  5  6 -1 -1</clus>
<clus scale="   99.780">  7  8 -1 -1</clus>
<clus scale="  191.951">  1  5  2 -1</clus>
<clus scale="  255.412">  7  9 -1 -1</clus>
<clus scale="  562.197">  2  5  1 -1</clus>
</clustering>
</event>
<event>
 9    2  0.4178938E-005  0.1842439E+03  0.7546771E-02  0.1196467E+00
          2   -1    0    0  502    0 -0.00000000000E+00  0.00000000000E+00  0.46544913318E+03  0.46544913318E+03  0.00000000000E+00 0. -1.
         21   -1    0    0  501  502  0.00000000000E+00 -0.00000000000E+00 -0.39920844639E+02  0.39920844639E+02  0.00000000000E+00 0. -1.
         24    2    1    2    0    0  0.18220745962E+02  0.20416370002E+02  0.13303399793E+03  0.15968410708E+03  0.83977054600E+02 0.  0.
         23    2    1    2    0    0  0.74392243956E+01 -0.71880133722E+02  0.13358603005E+03  0.17669241427E+03  0.90293333942E+02 0.  0.
        -13    1    3    3    0    0  0.35828866567E+02 -0.22070882083E+02  0.69582600493E+02  0.81317709060E+02  0.00000000000E+00 0.  1.
         14    1    3    3    0    0 -0.17608120605E+02  0.42487252085E+02  0.63451397441E+02  0.78366398017E+02  0.00000000000E+00 0. -1.
        -13    1    4    4    0    0 -0.13872081925E+02 -0.83462997750E+02  0.74167041602E+02  0.11251336236E+03  0.00000000000E+00 0. -1.
         13    1    4    4    0    0  0.21311306321E+02  0.11582864028E+02  0.59418988444E+02  0.64179051908E+02  0.00000000000E+00 0.  1.
          1    1    1    2  501    0 -0.25659970358E+02  0.51463763720E+02  0.15890826056E+03  0.16899345647E+03  0.00000000000E+00 0. -1.
<scales pt_clust_5="13000.00000" pt_clust_6="13000.00000" pt_clust_7="13000.00000" pt_clust_8="13000.00000" pt_clust_9="13000.00000"></scales>
<clustering>
<clus scale="   83.977">  5  6 -1 -1</clus>
<clus scale="   88.323">  1  5  2 -1</clus>
<clus scale="   90.293">  7  8 -1 -1</clus>
<clus scale="   64.062">  7  9 -1 -1</clus>
<clus scale="  184.244">  2  5  1 -1</clus>
</clustering>
</event>
<event>
 9    2  0.4178938E-005  0.3075222E+03  0.7546771E-02  0.1127977E+00
         21   -1    0    0  501  502  0.00000000000E+00  0.00000000000E+00  0.83231102485E+02  0.83231102485E+02  0.00000000000E+00 0. -1.
          2   -1    0    0  502    0 -0.00000000000E+00 -0.00000000000E+00 -0.17416747644E+04  0.17416747644E+04  0.00000000000E+00 0. -1.
         24    2    1    2    0    0  0.45559534933E+02 -0.21289888283E+02 -0.14509399145E+04  0.14539237507E+04  0.78349899999E+02 0.  0.
         23    2    1    2    0    0 -0.11580337825E+03 -0.55715260786E+02 -0.21471244767E+03  0.26650266426E+03  0.91693086856E+02 0.  0.
        -11    1    3    3    0    0  0.40153827866E+01 -0.25250203247E+02 -0.13972983195E+03  0.14204971665E+03  0.00000000000E+00 0.  1.
         12    1    3    3    0    0  0.41544152146E+02  0.39603149642E+01 -0.13112100825E+04  0.13118740341E+04  0.00000000000E+00 0. -1.
        -11    1    4    4    0    0 -0.68535131212E+02  0.13661531859E+02 -0.12785210952E+03  0.14570471362E+03  0.00000000000E+00 0.  1.
         11    1    4    4    0    0 -0.47268247038E+02 -0.69376792645E+02 -0.86860338143E+02  0.12079795064E+03  0.00000000000E+00 0. -1.
          1    1    1    2  501    0  0.70243843317E+02  0.77005149069E+02  0.72087002736E+01  0.10447945189E+03  0.00000000000E+00 0. -1.
<scales pt_clust_5="13000.00000" pt_clust_6="13000.00000" pt_clust_7="13000.00000" pt_clust_8="13000.00000" pt_clust_9="13000.00000"></scales>
<clustering>
<clus scale="   78.350">  5  6 -1 -1</clus>
<clus scale="   91.693">  7  8 -1 -1</clus>
<clus scale="   93.100">  2  5  1 -1</clus>
<clus scale="  107.053">  7  9 -1 -1</clus>
<clus scale="  307.522">  1  5  2 -1</clus>
</clustering>
</event>
<event>
 9    2  0.5848991E-005  0.8546190E+03  0.7546771E-02  0.9864069E-01
          2   -1    0    0  502    0 -0.00000000000E+00  0.00000000000E+00  0.25196484902E+04  0.25196484902E+04  0.00000000000E+00 0. -1.
         21   -1    0    0  501  502  0.00000000000E+00 -0.00000000000E+00 -0.12496684228E+03  0.12496684228E+03  0.00000000000E+00 0.  1.
         24    2    1    2    0    0  0.21951277905E+03  0.44031072564E+02  0.30127438854E+03  0.38348118249E+03  0.78530023667E+02 0.  0.
         23    2    1    2    0    0  0.17257835319E+03  0.23937371295E+02  0.86158023814E+02  0.21481925267E+03  0.91475791951E+02 0.  0.
        -11    1    3    3    0    0  0.94708270205E+02 -0.19906955768E+02  0.13175379150E+03  0.16347784225E+03  0.00000000000E+00 0.  1.
         12    1    3    3    0    0  0.12480450884E+03  0.63938028331E+02  0.16952059704E+03  0.22000334024E+03  0.00000000000E+00 0. -1.
        -13    1    4    4    0    0  0.63299386894E+02  0.29861818756E+02  0.78414070888E+02  0.10510617067E+03  0.00000000000E+00 0. -1.
         13    1    4    4    0    0  0.10927896630E+03 -0.59244474613E+01  0.77439529261E+01  0.10971308199E+03  0.00000000000E+00 0.  1.
          1    1    1    2  501    0 -0.39209113224E+03 -0.67968443859E+02  0.20072492356E+04  0.20463148973E+04  0.00000000000E+00 0. -1.
<scales pt_clust_5="13000.00000" pt_clust_6="13000.00000" pt_clust_7="13000.00000" pt_clust_8="13000.00000" pt_clust_9="13000.00000"></scales>
<clustering>
<clus scale="   78.530">  5  6 -1 -1</clus>
<clus scale="   91.476">  7  8 -1 -1</clus>
<clus scale="  237.259">  1  5  2 -1</clus>
<clus scale="  189.679">  7  9 -1 -1</clus>
<clus scale="  854.619">  2  5  1 -1</clus>
</clustering>
</event>
<event>
 9    2  0.4178938E-005  0.3351937E+03  0.7546771E-02  0.1117561E+00
         21   -1    0    0  501  502  0.00000000000E+00  0.00000000000E+00  0.78691030458E+03  0.78691030458E+03  0.00000000000E+00 0.  1.
         -3   -1    0    0    0  501 -0.00000000000E+00 -0.00000000000E+00 -0.23654221234E+03  0.23654221234E+03  0.00000000000E+00 0.  1.
         24    2    1    2    0    0 -0.46579609709E+02  0.72969799839E+01 -0.18951808767E+03  0.21118016630E+03  0.80355778414E+02 0.  0.
         23    2    1    2    0    0 -0.42039203441E+02 -0.97319891907E+02  0.13572988165E+03  0.19505095481E+03  0.91563192458E+02 0.  0.
        -13    1    3    3    0    0 -0.33403135760E+02  0.16310101480E+02 -0.19151715503E+03  0.19509128519E+03  0.00000000000E+00 0.  1.
         14    1    3    3    0    0 -0.13176473949E+02 -0.90131214959E+01  0.19990673558E+01  0.16088881102E+02  0.00000000000E+00 0. -1.
        -11    1    4    4    0    0 -0.69480422186E+02 -0.51716939507E+02  0.78451998196E+02  0.11686268404E+03  0.00000000000E+00 0.  1.
         11    1    4    4    0    0  0.27441218745E+02 -0.45602952399E+02  0.57277883456E+02  0.78188270776E+02  0.00000000000E+00 0. -1.
         -4    1    1    2    0  502  0.88618813150E+02  0.90022911923E+02  0.60415629827E+03  0.61722139581E+03  0.00000000000E+00 0.  1.
<scales pt_clust_5="13000.00000" pt_clust_6="13000.00000" pt_clust_7="13000.00000" pt_clust_8="13000.00000" pt_clust_9="13000.00000"></scales>
<clustering>
<clus scale="   80.356">  5  6 -1 -1</clus>
<clus scale="   91.563">  7  8 -1 -1</clus>
<clus scale="   93.166">  2  5  1 -1</clus>
<clus scale="  121.560">  7  9 -1 -1</clus>
<clus scale="  335.194">  1  5  2 -1</clus>
</clustering>
</event>
<event>
 9    2  0.4178938E-005  0.3119561E+03  0.7546771E-02  0.1101928E+00
         21   -1    0    0  501  502  0.00000000000E+00  0.00000000000E+00  0.90578102147E+02  0.90578102147E+02  0.00000000000E+00 0. -1.
          2   -1    0    0  502    0 -0.00000000000E+00 -0.00000000000E+00 -0.84723228920E+03  0.84723228920E+03  0.00000000000E+00 0. -1.
         24    2    1    2    0    0  0.10377409994E+03  0.11117991730E+03 -0.51558435079E+03  0.54356269134E+03  0.80642041186E+02 0.  0.
         23    2    1    2    0    0  0.42313861251E+02  0.24940955051E+02 -0.12637521377E+03  0.16397516425E+03  0.92220636203E+02 0.  0.
        -13    1    3    3    0    0  0.95837310219E+02  0.99422241909E+02 -0.33395230906E+03  0.36137752689E+03  0.00000000000E+00 0.  1.
         14    1    3    3    0    0  0.79367897233E+01  0.11757675395E+02 -0.18163204173E+03  0.18218516445E+03  0.00000000000E+00 0. -1.
        -11    1    4    4    0    0 -0.10003070484E+02 -0.25857531478E+02 -0.56711789890E+02  0.63126068037E+02  0.00000000000E+00 0.  1.
         11    1    4    4    0    0  0.52316931735E+02  0.50798486530E+02 -0.69663423882E+02  0.10084909621E+03  0.00000000000E+00 0. -1.
          1    1    1    2  501    0 -0.14608796119E+03 -0.13612087236E+03 -0.11469462249E+03  0.23027253576E+03  0.00000000000E+00 0. -1.
<scales pt_clust_5="13000.00000" pt_clust_6="13000.00000" pt_clust_7="13000.00000" pt_clust_8="13000.00000" pt_clust_9="13000.00000"></scales>
<clustering>
<clus scale="   80.642">  5  6 -1 -1</clus>
<clus scale="   92.221">  7  8 -1 -1</clus>
<clus scale="  172.143">  2  5  1 -1</clus>
<clus scale="  117.438">  7  9 -1 -1</clus>
<clus scale="  311.956">  1  5  2 -1</clus>
</clustering>
</event>
<event>
 9    2  0.4178938E-005  0.3191915E+03  0.7546771E-02  0.1115863E+00
         -3   -1    0    0    0  501 -0.00000000000E+00  0.00000000000E+00  0.32730994072E+03  0.32730994072E+03  0.00000000000E+00 0.  1.
         21   -1    0    0  501  502  0.00000000000E+00 -0.00000000000E+00 -0.20277276356E+03  0.20277276356E+03  0.00000000000E+00 0.  1.
         24    2    1    2    0    0  0.65667304601E+02 -0.43281814325E+02 -0.91132577758E+02  0.14485982458E+03  0.80583569687E+02 0.  0.
         23    2    1    2    0    0  0.10642177344E+03  0.30857349650E+02  0.70543459714E+02  0.15976632145E+03  0.90945741363E+02 0.  0.
        -11    1    3    3    0    0  0.19290418195E+02 -0.47752794626E+02 -0.11767362117E+02  0.52829162779E+02  0.00000000000E+00 0.  1.
         12    1    3    3    0    0  0.46376886405E+02  0.44709803009E+01 -0.79365215641E+02  0.92030661800E+02  0.00000000000E+00 0. -1.
        -13    1    4    4    0    0  0.39835109963E+02  0.55213519917E+02  0.54156288631E+02  0.86995818093E+02  0.00000000000E+00 0.  1.
         13    1    4    4    0    0  0.66586663472E+02 -0.24356170267E+02  0.16387171083E+02  0.72770503355E+02  0.00000000000E+00 0. -1.
         -4    1    1    2    0  502 -0.17208907804E+03  0.12424464675E+02  0.14512629520E+03  0.22545655825E+03  0.00000000000E+00 0.  1.
<scales pt_clust_5="13000.00000" pt_clust_6="13000.00000" pt_clust_7="13000.00000" pt_clust_8="13000.00000" pt_clust_9="13000.00000"></scales>
<clustering>
<clus scale="   80.584">  5  6 -1 -1</clus>
<clus scale="   90.946">  7  8 -1 -1</clus>
<clus scale="  112.602">  1  5  2 -1</clus>
<clus scale="  132.362">  7  9 -1 -1</clus>
<clus scale="  319.192">  2  5  1 -1</clus>
</clustering>
</event>
<event>
 9    2  0.4178938E-005  0.3016014E+03  0.7546771E-02  0.1129572E+00
          2   -1    0    0  502    0 -0.00000000000E+00  0.00000000000E+00  0.14764397325E+04  0.14764397325E+04  0.00000000000E+00 0. -1.
         21   -1    0    0  501  502  0.00000000000E+00 -0.00000000000E+00 -0.34857864571E+02  0.34857864571E+02  0.00000000000E+00 0. -1.
         24    2    1    2    0    0 -0.41813480370E+02 -0.29600625893E+02  0.76084933167E+03  0.76674390309E+03  0.79874546794E+02 0.  0.
         23    2    1    2    0    0 -0.83869319916E+02 -0.71411008017E+02  0.32492453979E+03  0.35391467030E+03  0.86867959608E+02 0.  0.
        -13    1    3    3    0    0 -0.52444970351E+01 -0.21105204725E+02  0.45707318138E+02  0.50617125037E+02  0.00000000000E+00 0.  1.
         14    1    3    3    0    0 -0.36568983335E+02 -0.84954211681E+01  0.71514201354E+03  0.71612677805E+03  0.00000000000E+00 0. -1.
        -11    1    4    4    0    0 -0.91991962464E+00 -0.40656144026E+02  0.17650494694E+03  0.18112913789E+03  0.00000000000E+00 0.  1.
         11    1    4    4    0    0 -0.82949400291E+02 -0.30754863990E+02  0.14841959285E+03  0.17278553241E+03  0.00000000000E+00 0. -1.
          1    1    1    2  501    0  0.12568280029E+03  0.10101163391E+03  0.35580799645E+03  0.39063902367E+03  0.00000000000E+00 0. -1.
<scales pt_clust_5="13000.00000" pt_clust_6="13000.00000" pt_clust_7="13000.00000" pt_clust_8="13000.00000" pt_clust_9="13000.00000"></scales>
<clustering>
<clus scale="   79.875">  5  6 -1 -1</clus>
<clus scale="   86.868">  7  8 -1 -1</clus>
<clus scale="   94.892">  1  5  2 -1</clus>
<clus scale="  134.473">  7  9 -1 -1</clus>
<clus scale="  301.601">  2  5  1 -1</clus>
</clustering>
</event>
<event>
 9    2  0.4178938E-005  0.5297528E+03  0.7546771E-02  0.1066577E+00
         21   -1    0    0  501  502  0.00000000000E+00  0.00000000000E+00  0.56081688607E+02  0.56081688607E+02  0.00000000000E+00 0. -1.
          2   -1    0    0  502    0 -0.00000000000E+00 -0.00000000000E+00 -0.18311996563E+04  0.18311996563E+04  0.00000000000E+00 0. -1.
         24    2    1    2    0    0  0.15978843205E+02 -0.39945973001E+02 -0.12549563309E+03  0.15468447351E+03  0.79543247568E+02 0.  0.
         23    2    1    2    0    0  0.91633105802E+02  0.25001021624E+03 -0.10781471779E+04  0.11142998776E+04  0.91439300082E+02 0.  0.
        -11    1    3    3    0    0 -0.19158524302E+02  0.13178300778E+02 -0.54793517346E+02  0.59523492908E+02  0.00000000000E+00 0.  1.
         12    1    3    3    0    0  0.35137367507E+02 -0.53124273779E+02 -0.70702115739E+02  0.95160980606E+02  0.00000000000E+00 0. -1.
        -13    1    4    4    0    0  0.91475513178E+02  0.20018815269E+03 -0.97779486779E+03  0.10022603801E+04  0.00000000000E+00 0. -1.
         13    1    4    4    0    0  0.15759262396E+00  0.49822063543E+02 -0.10035231012E+03  0.11203949749E+03  0.00000000000E+00 0.  1.
          1    1    1    2  501    0 -0.10761194901E+03 -0.21006424324E+03 -0.57147515670E+03  0.61829699383E+03  0.00000000000E+00 0. -1.
<scales pt_clust_5="13000.00000" pt_clust_6="13000.00000" pt_clust_7="13000.00000" pt_clust_8="13000.00000" pt_clust_9="13000.00000"></scales>
<clustering>
<clus scale="   79.543">  5  6 -1 -1</clus>
<clus scale="   90.433">  2  5  1 -1</clus>
<clus scale="   91.439">  7  8 -1 -1</clus>
<clus scale="  246.232">  7  9 -1 -1</clus>
<clus scale="  529.753">  1  5  2 -1</clus>
</clustering>
</event>
<event>
 9    2  0.4178938E-005  0.2884737E+03  0.7546771E-02  0.1123281E+00
         21   -1    0    0  501  502  0.00000000000E+00  0.00000000000E+00  0.34872803255E+03  0.34872803255E+03  0.00000000000E+00 0. -1.
          2   -1    0    0  502    0 -0.00000000000E+00 -0.00000000000E+00 -0.12509241519E+03  0.12509241519E+03  0.00000000000E+00 0. -1.
         24    2    1    2    0    0  0.57016294854E+02 -0.70072169417E+02  0.92917933694E+02  0.15711208366E+03  0.88822844049E+02 0.  0.
         23    2    1    2    0    0 -0.67943001265E+02 -0.60329992997E+02 -0.49597894114E+01  0.12820771798E+03  0.90314229021E+02 0.  0.
        -11    1    3    3    0    0  0.75112345008E+02 -0.55261612344E+02  0.44460752276E+02  0.10330764088E+03  0.00000000000E+00 0.  1.
         12    1    3    3    0    0 -0.18096050154E+02 -0.14810557073E+02  0.48457181418E+02  0.53804442781E+02  0.00000000000E+00 0. -1.
        -13    1    4    4    0    0  0.15571792750E+02 -0.14854898187E+02 -0.22912724685E+02  0.31434720964E+02  0.00000000000E+00 0. -1.
         13    1    4    4    0    0 -0.83514794014E+02 -0.45475094810E+02  0.17952935274E+02  0.96772997020E+02  0.00000000000E+00 0.  1.
          1    1    1    2  501    0  0.10926706411E+02  0.13040216241E+03  0.13567747308E+03  0.18850064609E+03  0.00000000000E+00 0. -1.
<scales pt_clust_5="13000.00000" pt_clust_6="13000.00000" pt_clust_7="13000.00000" pt_clust_8="13000.00000" pt_clust_9="13000.00000"></scales>
<clustering>
<clus scale="   88.823">  5  6 -1 -1</clus>
<clus scale="   90.314">  7  8 -1 -1</clus>
<clus scale="  126.690">  2  5  1 -1</clus>
<clus scale="  113.780">  7  9 -1 -1</clus>
<clus scale="  288.474">  1  5  2 -1</clus>
</clustering>
</event>
<event>
 9    2  0.4178938E-005  0.2760496E+03  0.7546771E-02  0.1145357E+00
         -1   -1    0    0    0  501 -0.00000000000E+00  0.00000000000E+00  0.93217688892E+03  0.93217688892E+03  0.00000000000E+00 0.  1.
         21   -1    0    0  501  502  0.00000000000E+00 -0.00000000000E+00 -0.39314786017E+02  0.39314786017E+02  0.00000000000E+00 0. -1.
         24    2    1    2    0    0  0.16646586815E+02  0.12376816841E+02  0.37781173764E+03  0.38712853926E+03  0.81832159676E+02 0.  0.
         23    2    1    2    0    0 -0.88632951423E+02 -0.40752940805E+02  0.11612577110E+03  0.17800359916E+03  0.93185215226E+02 0.  0.
        -11    1    3    3    0    0 -0.21110070445E+02 -0.23979483649E+02  0.13620126904E+03  0.13989794994E+03  0.00000000000E+00 0.  1.
         12    1    3    3    0    0  0.37756657260E+02  0.36356300491E+02  0.24161046860E+03  0.24723058931E+03  0.00000000000E+00 0. -1.
        -13    1    4    4    0    0 -0.94353818083E+02 -0.19381261235E+02  0.50521044036E+02  0.10876880143E+03  0.00000000000E+00 0. -1.
         13    1    4    4    0    0  0.57208666596E+01 -0.21371679570E+02  0.65604727069E+02  0.69234797730E+02  0.00000000000E+00 0.  1.
         -2    1    1    2    0  502  0.71986364608E+02  0.28376123963E+02  0.39892459416E+03  0.40635953653E+03  0.00000000000E+00 0.  1.
<scales pt_clust_5="13000.00000" pt_clust_6="13000.00000" pt_clust_7="13000.00000" pt_clust_8="13000.00000" pt_clust_9="13000.00000"></scales>
<clustering>
<clus scale="   81.832">  5  6 -1 -1</clus>
<clus scale="   84.420">  1  5  2 -1</clus>
<clus scale="   93.185">  7  8 -1 -1</clus>
<clus scale="   92.131">  7  9 -1 -1</clus>
<clus scale="  276.050">  2  5  1 -1</clus>
</clustering>
</event>
<event>
 9    2  0.4178938E-005  0.4125194E+03  0.7546771E-02  0.1095429E+00
         21   -1    0    0  501  502  0.00000000000E+00  0.00000000000E+00  0.17478950860E+03  0.17478950860E+03  0.00000000000E+00 0. -1.
          2   -1    0    0  502    0 -0.00000000000E+00 -0.00000000000E+00 -0.48019658122E+03  0.48019658122E+03  0.00000000000E+00 0. -1.
         24    2    1    2    0    0 -0.46184392746E+01 -0.37805026676E+02 -0.21542858389E+03  0.23276769840E+03  0.79503312133E+02 0.  0.
         23    2    1    2    0    0  0.40044756234E+02 -0.20077932051E+02  0.14824027656E+03  0.17452172011E+03  0.80473258535E+02 0.  0.
        -11    1    3    3    0    0 -0.72105925388E+01  0.23691545287E+02 -0.85196818452E+02  0.88723051329E+02  0.00000000000E+00 0.  1.
         12    1    3    3    0    0  0.25921532642E+01 -0.61496571963E+02 -0.13023176543E+03  0.14404464707E+03  0.00000000000E+00 0. -1.
        -13    1    4    4    0    0  0.40441660676E+02 -0.48797989249E+02  0.10174202032E+03  0.11986747003E+03  0.00000000000E+00 0. -1.
         13    1    4    4    0    0 -0.39690444189E+00  0.28720057198E+02  0.46498256242E+02  0.54654250083E+02  0.00000000000E+00 0.  1.
          1    1    1    2  501    0 -0.35426316959E+02  0.57882958727E+02 -0.23821876529E+03  0.24769667131E+03  0.00000000000E+00 0. -1.
<scales pt_clust_5="13000.00000" pt_clust_6="13000.00000" pt_clust_7="13000.00000" pt_clust_8="13000.00000" pt_clust_9="13000.00000"></scales>
<clustering>
<clus scale="   79.503">  5  6 -1 -1</clus>
<clus scale="   80.473">  7  8 -1 -1</clus>
<clus scale="   67.864">  7  9 -1 -1</clus>
<clus scale="   88.155">  2  5  1 -1</clus>
<clus scale="  412.519">  1  5  2 -1</clus>
</clustering>
</event>
<event>
 9    2  0.4178938E-005  0.3484894E+03  0.7546771E-02  0.1078252E+00
         21   -1    0    0  501  502  0.00000000000E+00  0.00000000000E+00  0.17636794645E+03  0.17636794645E+03  0.00000000000E+00 0. -1.
          2   -1    0    0  502    0 -0.00000000000E+00 -0.00000000000E+00 -0.51902909331E+03  0.51902909331E+03  0.00000000000E+00 0. -1.
         24    2    1    2    0    0 -0.44036890767E+02  0.21160932944E+03 -0.41048899788E+02  0.23451219051E+03  0.81198517666E+02 0.  0.
         23    2    1    2    0    0 -0.32209233129E+02 -0.53939966843E+02 -0.25778721118E+03  0.28034750386E+03  0.90518075254E+02 0.  0.
        -11    1    3    3    0    0 -0.15228216406E+02  0.31592369079E+02 -0.38648382827E+02  0.52188828825E+02  0.00000000000E+00 0.  1.
         12    1    3    3    0    0 -0.28808674361E+02  0.18001696036E+03 -0.24005169614E+01  0.18232336169E+03  0.00000000000E+00 0. -1.
        -11    1    4    4    0    0  0.22013655444E+02 -0.50454518903E+02 -0.11284812296E+03  0.12555858537E+03  0.00000000000E+00 0.  1.
         11    1    4    4    0    0 -0.54222888573E+02 -0.34854479404E+01 -0.14493908822E+03  0.15478891849E+03  0.00000000000E+00 0. -1.
          1    1    1    2  501    0  0.76246123896E+02 -0.15766936260E+03 -0.43825035893E+02  0.18053734539E+03  0.00000000000E+00 0. -1.
<scales pt_clust_5="13000.00000" pt_clust_6="13000.00000" pt_clust_7="13000.00000" pt_clust_8="13000.00000" pt_clust_9="13000.00000"></scales>
<clustering>
<clus scale="   81.199">  5  6 -1 -1</clus>
<clus scale="   90.518">  7  8 -1 -1</clus>
<clus scale="  175.137">  7  9 -1 -1</clus>
<clus scale="  230.892">  2  5  1 -1</clus>
<clus scale="  348.489">  1  5  2 -1</clus>
</clustering>
</event>
<event>
 9    2  0.4178938E-005  0.2456674E+03  0.7546771E-02  0.1143624E+00
         -3   -1    0    0    0  501 -0.00000000000E+00  0.00000000000E+00  0.10574723648E+03  0.10574723648E+03  0.00000000000E+00 0.  1.
         21   -1    0    0  501  502  0.00000000000E+00 -0.00000000000E+00 -0.41934098937E+03  0.41934098937E+03  0.00000000000E+00 0. -1.
         24    2    1    2    0    0 -0.85244217649E+02 -0.43110213046E+02 -0.23680352513E+03  0.26769898363E+03  0.80385130530E+02 0.  0.
         23    2    1    2    0    0  0.26869639199E+02  0.56647605276E+01 -0.13607962360E+03  0.16614788216E+03  0.91287391052E+02 0.  0.
        -11    1    3    3    0    0 -0.52926813377E+02 -0.66464344717E+02 -0.15948043871E+03  0.18070076653E+03  0.00000000000E+00 0.  1.
         12    1    3    3    0    0 -0.32317404272E+02  0.23354131671E+02 -0.77323086424E+02  0.86998217103E+02  0.00000000000E+00 0. -1.
        -13    1    4    4    0    0  0.29526021150E+02 -0.39226142440E+02 -0.84407286425E+02  0.97647663450E+02  0.00000000000E+00 0. -1.
         13    1    4    4    0    0 -0.26563819512E+01  0.44890902968E+02 -0.51672337180E+02  0.68500218715E+02  0.00000000000E+00 0.  1.
         -4    1    1    2    0  502  0.58374578450E+02  0.37445452518E+02  0.59289395847E+02  0.91241360048E+02  0.00000000000E+00 0.  1.
<scales pt_clust_5="13000.00000" pt_clust_6="13000.00000" pt_clust_7="13000.00000" pt_clust_8="13000.00000" pt_clust_9="13000.00000"></scales>
<clustering>
<clus scale="   80.385">  5  6 -1 -1</clus>
<clus scale="   91.287">  7  8 -1 -1</clus>
<clus scale="   69.352">  7  9 -1 -1</clus>
<clus scale="  124.847">  1  5  2 -1</clus>
<clus scale="  245.667">  2  5  1 -1</clus>
</clustering>
</event>
<event>
 9    2  0.4178938E-005  0.3407905E+03  0.7546771E-02  0.1107157E+00
         21   -1    0    0  501  502  0.00000000000E+00  0.00000000000E+00  0.17319427426E+03  0.17319427426E+03  0.00000000000E+00 0. -1.
          2   -1    0    0  502    0 -0.00000000000E+00 -0.00000000000E+00 -0.43450612264E+03  0.43450612264E+03  0.00000000000E+00 0. -1.
         24    2    1    2    0    0 -0.66276479257E+02 -0.53985808287E+02 -0.23991953546E+03  0.26623908523E+03  0.77555320951E+02 0.  0.
         23    2    1    2    0    0  0.91687467768E+02 -0.10202968513E+03 -0.65886907253E+02  0.17724705697E+03  0.90877864557E+02 0.  0.
        -13    1    3    3    0    0 -0.34968499724E+02  0.27638515891E+01 -0.28771964742E+02  0.45368059289E+02  0.00000000000E+00 0.  1.
         14    1    3    3    0    0 -0.31307979533E+02 -0.56749659876E+02 -0.21114757072E+03  0.22087102594E+03  0.00000000000E+00 0. -1.
        -11    1    4    4    0    0  0.88671164268E+02 -0.58982293619E+02 -0.78484979925E+02  0.13229277534E+03  0.00000000000E+00 0. -1.
         11    1    4    4    0    0  0.30163034997E+01 -0.43047391507E+02  0.12598072672E+02  0.44954281636E+02  0.00000000000E+00 0.  1.
          1    1    1    2  501    0 -0.25410988511E+02  0.15601549341E+03  0.44494594334E+02  0.16421425470E+03  0.00000000000E+00 0. -1.
<scales pt_clust_5="13000.00000" pt_clust_6="13000.00000" pt_clust_7="13000.00000" pt_clust_8="13000.00000" pt_clust_9="13000.00000"></scales>
<clustering>
<clus scale="   77.555">  5  6 -1 -1</clus>
<clus scale="   90.878">  7  8 -1 -1</clus>
<clus scale="  115.420">  2  5  1 -1</clus>
<clus scale="  146.067">  7  9 -1 -1</clus>
<clus scale="  340.791">  1  5  2 -1</clus>
</clustering>
</event>
<event>
 9    2  0.4178938E-005  0.4189537E+03  0.7546771E-02  0.1094326E+00
         21   -1    0    0  501  502  0.00000000000E+00  0.00000000000E+00  0.35130879985E+02  0.35130879985E+02  0.00000000000E+00 0. -1.
          2   -1    0    0  502    0 -0.00000000000E+00 -0.00000000000E+00 -0.18401226806E+04  0.18401226806E+04  0.00000000000E+00 0. -1.
         24    2    1    2    0    0  0.34062382717E+02  0.47745872885E+00 -0.39215566665E+03  0.40160905146E+03  0.79644770352E+02 0.  0.
         23    2    1    2    0    0  0.50649684805E+00 -0.18845933137E+03 -0.50276155672E+03  0.54371551828E+03  0.85675000893E+02 0.  0.
        -11    1    3    3    0    0  0.13278693656E+02  0.32569383408E+02 -0.83656952489E+02  0.90750064136E+02  0.00000000000E+00 0.  1.
         12    1    3    3    0    0  0.20783689060E+02 -0.32091924679E+02 -0.30849871416E+03  0.31085898732E+03  0.00000000000E+00 0. -1.
        -11    1    4    4    0    0  0.30243847585E+02 -0.85957389598E+02 -0.15348721294E+03  0.17849842487E+03  0.00000000000E+00 0. -1.
         11    1    4    4    0    0 -0.29737350737E+02 -0.10250194177E+03 -0.34927434378E+03  0.36521709341E+03  0.00000000000E+00 0.  1.
          1    1    1    2  501    0 -0.34568879565E+02  0.18798187264E+03 -0.91007457720E+03  0.92992899080E+03  0.00000000000E+00 0. -1.
<scales pt_clust_5="13000.00000" pt_clust_6="13000.00000" pt_clust_7="13000.00000" pt_clust_8="13000.00000" pt_clust_9="13000.00000"></scales>
<clustering>
<clus scale="   79.645">  5  6 -1 -1</clus>
<clus scale="   85.675">  7  8 -1 -1</clus>
<clus scale="   86.624">  2  5  1 -1</clus>
<clus scale="  188.725">  7  9 -1 -1</clus>
<clus scale="  418.954">  1  5  2 -1</clus>
</clustering>
</event>
<event>
 9    2  0.4178938E-005  0.3428840E+03  0.7546771E-02  0.1097733E+00
          2   -1    0    0  502    0 -0.00000000000E+00  0.00000000000E+00  0.81768142561E+03  0.81768142561E+03  0.00000000000E+00 0. -1.
         21   -1    0    0  501  502  0.00000000000E+00 -0.00000000000E+00 -0.74232786220E+02  0.74232786220E+02  0.00000000000E+00 0. -1.
         24    2    1    2    0    0  0.74213445042E+02  0.95409165562E+02  0.16394823865E+03  0.21857168077E+03  0.79271750207E+02 0.  0.
         23    2    1    2    0    0 -0.59831959207E+02 -0.40892535686E+01  0.16902940772E+02  0.10320039490E+03  0.82268017865E+02 0.  0.
        -13    1    3    3    0    0  0.22463206020E+01  0.36909790298E+02  0.91119011491E+01  0.38084187252E+02  0.00000000000E+00 0.  1.
         14    1    3    3    0    0  0.71967124440E+02  0.58499375264E+02  0.15483633750E+03  0.18048749352E+03  0.00000000000E+00 0. -1.
        -13    1    4    4    0    0 -0.39185136944E+02  0.18481923044E+02  0.44423717077E+02  0.62052583151E+02  0.00000000000E+00 0.  1.
         13    1    4    4    0    0 -0.20646822263E+02 -0.22571176613E+02 -0.27520776305E+02  0.41147811749E+02  0.00000000000E+00 0. -1.
          1    1    1    2  501    0 -0.14381485835E+02 -0.91319911993E+02  0.56259745997E+03  0.57014213616E+03  0.00000000000E+00 0. -1.
<scales pt_clust_5="13000.00000" pt_clust_6="13000.00000" pt_clust_7="13000.00000" pt_clust_8="13000.00000" pt_clust_9="13000.00000"></scales>
<clustering>
<clus scale="   79.272">  5  6 -1 -1</clus>
<clus scale="   82.268">  7  8 -1 -1</clus>
<clus scale="   92.445">  7  9 -1 -1</clus>
<clus scale="  144.550">  1  5  2 -1</clus>
<clus scale="  342.884">  2  5  1 -1</clus>
</clustering>
</event>
<event>
 9    2  0.4178938E-005  0.3578687E+03  0.7546771E-02  0.1099968E+00
         -3   -1    0    0    0  501 -0.00000000000E+00  0.00000000000E+00  0.25001161522E+03  0.25001161522E+03  0.00000000000E+00 0.  1.
         21   -1    0    0  501  502  0.00000000000E+00 -0.00000000000E+00 -0.24842706227E+03  0.24842706227E+03  0.00000000000E+00 0. -1.
         24    2    1    2    0    0 -0.88916764935E+02  0.32003447970E+02  0.62746061346E+02  0.13538116503E+03  0.73895736431E+02 0.  0.
         23    2    1    2    0    0 -0.11450778448E+03  0.39107691722E+01  0.60677974878E+01  0.14582225319E+03  0.89999914088E+02 0.  0.
        -13    1    3    3    0    0 -0.50094043507E+02  0.55064103905E+02  0.44133411032E+02  0.86540318367E+02  0.00000000000E+00 0.  1.
         14    1    3    3    0    0 -0.38822721428E+02 -0.23060655936E+02  0.18612650314E+02  0.48840846666E+02  0.00000000000E+00 0. -1.
        -11    1    4    4    0    0 -0.10064966934E+03  0.36470143829E+02  0.17839735178E+02  0.10852964332E+03  0.00000000000E+00 0. -1.
         11    1    4    4    0    0 -0.13858115142E+02 -0.32559374657E+02 -0.11771937691E+02  0.37292609862E+02  0.00000000000E+00 0.  1.
         -4    1    1    2    0  502  0.20342454942E+03 -0.35914217142E+02 -0.67229305883E+02  0.21723525926E+03  0.00000000000E+00 0.  1.
<scales pt_clust_5="13000.00000" pt_clust_6="13000.00000" pt_clust_7="13000.00000" pt_clust_8="13000.00000" pt_clust_9="13000.00000"></scales>
<clustering>
<clus scale="   73.896">  5  6 -1 -1</clus>
<clus scale="   90.000">  7  8 -1 -1</clus>
<clus scale="  119.962">  1  5  2 -1</clus>
<clus scale="  160.496">  7  9 -1 -1</clus>
<clus scale="  357.869">  2  5  1 -1</clus>
</clustering>
</event>
<event>
 9    2  0.4178938E-005  0.2075512E+03  0.7546771E-02  0.1183399E+00
         -1   -1    0    0    0  501 -0.00000000000E+00  0.00000000000E+00  0.61180527256E+03  0.61180527256E+03  0.00000000000E+00 0.  1.
         21   -1    0    0  501  502  0.00000000000E+00 -0.00000000000E+00 -0.43591667796E+02  0.43591667796E+02  0.00000000000E+00 0.  1.
         24    2    1    2    0    0 -0.12693443729E+02  0.49421894075E+00  0.48261809501E+02  0.95551085013E+02  0.81482757837E+02 0.  0.
         23    2    1    2    0    0 -0.39303673001E+02  0.14983672062E+02  0.12922806602E+03  0.16537367907E+03  0.94229886674E+02 0.  0.
        -13    1    3    3    0    0 -0.25939833015E+01 -0.25952875866E+02 -0.12196448127E+02  0.28792948130E+02  0.00000000000E+00 0.  1.
         14    1    3    3    0    0 -0.10099460428E+02  0.26447094807E+02  0.60458257629E+02  0.66758136883E+02  0.00000000000E+00 0. -1.
        -11    1    4    4    0    0  0.30030997368E+01  0.23904988906E+02 -0.47805534259E+01  0.24562589311E+02  0.00000000000E+00 0. -1.
         11    1    4    4    0    0 -0.42306772738E+02 -0.89213168441E+01  0.13400861945E+03  0.14081108976E+03  0.00000000000E+00 0.  1.
         -2    1    1    2    0  502  0.51997116731E+02 -0.15477891003E+02  0.39072372925E+03  0.39447217627E+03  0.00000000000E+00 0.  1.
<scales pt_clust_5="13000.00000" pt_clust_6="13000.00000" pt_clust_7="13000.00000" pt_clust_8="13000.00000" pt_clust_9="13000.00000"></scales>
<clustering>
<clus scale="   81.483">  5  6 -1 -1</clus>
<clus scale="   82.467">  1  5  2 -1</clus>
<clus scale="   94.230">  7  8 -1 -1</clus>
<clus scale="   45.360">  7  9 -1 -1</clus>
<clus scale="  207.551">  2  5  1 -1</clus>
</clustering>
</event>
<event>
 9    2  0.4178938E-005  0.2757193E+03  0.7546771E-02  0.1117811E+00
          2   -1    0    0  502    0 -0.00000000000E+00  0.00000000000E+00  0.19399685358E+04  0.19399685358E+04  0.00000000000E+00 0. -1.
         21   -1    0    0  501  502  0.00000000000E+00 -0.00000000000E+00 -0.25195134426E+02  0.25195134426E+02  0.00000000000E+00 0. -1.
         24    2    1    2    0    0  0.12153265459E+03 -0.82021735967E+02  0.70049222803E+03  0.71997295930E+03  0.78574482455E+02 0.  0.
         23    2    1    2    0    0  0.39298302795E+02  0.24022167132E+02  0.32937661432E+03  0.34392125875E+03  0.87586854284E+02 0.  0.
        -13    1    3    3    0    0  0.45639156493E+02 -0.26084105099E+02  0.10899702887E+03  0.12101101374E+03  0.00000000000E+00 0.  1.
         14    1    3    3    0    0  0.75893498094E+02 -0.55937630867E+02  0.59149519916E+03  0.59896194556E+03  0.00000000000E+00 0. -1.
        -11    1    4    4    0    0  0.39629350942E+01 -0.22662331678E+02  0.25041585845E+02  0.34005398884E+02  0.00000000000E+00 0. -1.
         11    1    4    4    0    0  0.35335367701E+02  0.46684498810E+02  0.30433502848E+03  0.30991585987E+03  0.00000000000E+00 0.  1.
          1    1    1    2  501    0 -0.16083095738E+03  0.57999568835E+02  0.88490455900E+03  0.90126945214E+03  0.00000000000E+00 0. -1.
<scales pt_clust_5="13000.00000" pt_clust_6="13000.00000" pt_clust_7="13000.00000" pt_clust_8="13000.00000" pt_clust_9="13000.00000"></scales>
<clustering>
<clus scale="   78.574">  5  6 -1 -1</clus>
<clus scale="   87.587">  7  8 -1 -1</clus>
<clus scale="  166.348">  1  5  2 -1</clus>
<clus scale="   72.586">  7  9 -1 -1</clus>
<clus scale="  275.719">  2  5  1 -1</clus>
</clustering>
</event>
<event>
 9    2  0.4178938E-005  0.5086297E+03  0.7546771E-02  0.1049732E+00
          2   -1    0    0  502    0 -0.00000000000E+00  0.00000000000E+00  0.52588387013E+03  0.52588387013E+03  0.00000000000E+00 0. -1.
         21   -1    0    0  501  502  0.00000000000E+00 -0.00000000000E+00 -0.22740921075E+03  0.22740921075E+03  0.00000000000E+00 0.  1.
         24    2    1    2    0    0  0.87127439033E+02 -0.11311484006E+03  0.85752982899E+00  0.16398828540E+03  0.80655221258E+02 0.  0.
         23    2    1    2    0    0 -0.20583004382E+03 -0.80402818840E+01 -0.22621518382E+02  0.22692148517E+03  0.92471478129E+02 0.  0.
        -11    1    3    3    0    0  0.71587645303E+02 -0.44091387430E+02 -0.26467217298E+02  0.88143944755E+02  0.00000000000E+00 0.  1.
         12    1    3    3    0    0  0.15539793730E+02 -0.69023452626E+02  0.27324747127E+02  0.75844340640E+02  0.00000000000E+00 0. -1.
        -11    1    4    4    0    0 -0.20200883038E+03 -0.28140270527E+02 -0.27723480782E+02  0.20583496730E+03  0.00000000000E+00 0.  1.
         11    1    4    4    0    0 -0.38212134387E+01  0.20099988643E+02  0.51019624008E+01  0.21086517871E+02  0.00000000000E+00 0. -1.
          1    1    1    2  501    0  0.11870260479E+03  0.12115512194E+03  0.32023864794E+03  0.36238331031E+03  0.00000000000E+00 0. -1.
<scales pt_clust_5="13000.00000" pt_clust_6="13000.00000" pt_clust_7="13000.00000" pt_clust_8="13000.00000" pt_clust_9="13000.00000"></scales>
<clustering>
<clus scale="   80.655">  5  6 -1 -1</clus>
<clus scale="   92.471">  7  8 -1 -1</clus>
<clus scale="  163.986">  1  5  2 -1</clus>
<clus scale="  188.864">  7  9 -1 -1</clus>
<clus scale="  508.630">  2  5  1 -1</clus>
</clustering>
</event>
