<event>
 9    1  0.6296820E-005  0.2351456E+03  0.7546771E-02  0.1123070E+00
          1   -1    0    0  502    0 -0.00000000000E+00  0.00000000000E+00  0.38120331930E+03  0.38120331930E+03  0.00000000000E+00 0. -1.
         21   -1    0    0  501  502  0.00000000000E+00 -0.00000000000E+00 -0.12241365821E+03  0.12241365821E+03  0.00000000000E+00 0. -1.
        -24    2    1    2    0    0  0.52116893664E+02  0.53229966748E+02  0.11608152572E+03  0.15952072204E+03  0.80139504491E+02 0.  0.
         23    2    1    2    0    0  0.79972950834E+02  0.37410584310E+02  0.13387007615E+03  0.18365452834E+03  0.89512925361E+02 0.  0.
         13    1    3    3    0    0  0.54153146338E+02  0.72231947128E+02  0.94407966762E+02  0.13062496558E+03  0.00000000000E+00 0. -1.
        -14    1    3    3    0    0 -0.20362526741E+01 -0.19001980380E+02  0.21673558962E+02  0.28895756460E+02  0.00000000000E+00 0.  1.
        -11    1    4    4    0    0  0.48286755693E+02  0.43724351937E+02  0.13649133333E+03  0.15123926012E+03  0.00000000000E+00 0. -1.
         11    1    4    4    0    0  0.31686195142E+02 -0.63137676270E+01 -0.26212571823E+01  0.32415268214E+02  0.00000000000E+00 0.  1.
          2    1    1    2  501    0 -0.13208984450E+03 -0.90640551058E+02  0.88380592144E+01  0.16044172714E+03  0.00000000000E+00 0. -1.
<scales pt_clust_5="13000.00000" pt_clust_6="13000.00000" pt_clust_7="13000.00000" pt_clust_8="13000.00000" pt_clust_9="160.19812"></scales>
<clustering>
<clus scale="   80.140">  5  6 -1 -1</clus>
<clus scale="   89.513">  7  8 -1 -1</clus>
<clus scale="   93.373">  5  7 -1 -1</clus>
<clus scale="  160.198">  2  9  1 -1</clus>
<clus scale="  160.198">  2  5  1 -1</clus>
</clustering>
</event>
<event>
 9    1  0.6296820E-005  0.1300619E+03  0.7546771E-02  0.1243525E+00
          1   -1    0    0  502    0 -0.00000000000E+00  0.00000000000E+00  0.38915783096E+03  0.38915783096E+03  0.00000000000E+00 0. -1.
         21   -1    0    0  501  502  0.00000000000E+00 -0.00000000000E+00 -0.55768833646E+03  0.55768833646E+03  0.00000000000E+00 0. -1.
         23    2    1    2    0    0  0.25074192322E+02  0.49999613286E+00  0.32481728135E+03  0.33798946563E+03  0.90009152296E+02 0.  0.
        -24    2    1    2    0    0 -0.81871353586E+02 -0.78083231668E+02 -0.43232513490E+02  0.14858630813E+03  0.86075148180E+02 0.  0.
         11    1    4    4    0    0 -0.52934100919E+02 -0.88538735449E+02 -0.10541152653E+02  0.10369302105E+03  0.00000000000E+00 0. -1.
        -12    1    4    4    0    0 -0.28937252667E+02  0.10455503781E+02 -0.32691360837E+02  0.44893287077E+02  0.00000000000E+00 0.  1.
        -11    1    3    3    0    0  0.57953406109E+02  0.10683343776E+02  0.21203675431E+03  0.22007343387E+03  0.00000000000E+00 0. -1.
         11    1    3    3    0    0 -0.32879213787E+02 -0.10183347643E+02  0.11278052704E+03  0.11791603177E+03  0.00000000000E+00 0.  1.
          2    1    1    2  501    0  0.56797161263E+02  0.77583235535E+02 -0.45011527336E+03  0.46027039366E+03  0.00000000000E+00 0. -1.
<scales pt_clust_5="13000.00000" pt_clust_6="13000.00000" pt_clust_7="13000.00000" pt_clust_8="13000.00000" pt_clust_9="97.50471"></scales>
<clustering>
<clus scale="   86.075">  5  6 -1 -1</clus>
<clus scale="   90.009">  7  8 -1 -1</clus>
<clus scale="   93.438">  1  7  2 -1</clus>
<clus scale="   97.505">  2  9  1 -1</clus>
<clus scale="   97.505">  2  5  1 -1</clus>
</clustering>
</event>
<event>
 9    1  0.6296820E-005  0.8883408E+02  0.7546771E-02  0.1311364E+00
          1   -1    0    0  502    0 -0.00000000000E+00  0.00000000000E+00  0.42505027363E+03  0.42505027363E+03  0.00000000000E+00 0. -1.
         21   -1    0    0  501  502  0.00000000000E+00 -0.00000000000E+00 -0.41879779641E+02  0.41879779641E+02  0.00000000000E+00 0. -1.
        -24    2    1    2    0    0  0.18735078221E+02 -0.10301718914E+02  0.11928377079E+03  0.14505765144E+03  0.79724373297E+02 0.  0.
         23    2    1    2    0    0  0.17987729947E+02 -0.82455025863E+01  0.48923127478E+02  0.10300734855E+03  0.88461826295E+02 0.  0.
         13    1    3    3    0    0  0.35291552456E+02 -0.36469294333E+02  0.63853264335E+02  0.81564345582E+02  0.00000000000E+00 0. -1.
        -14    1    3    3    0    0 -0.16556474235E+02  0.26167575419E+02  0.55430506457E+02  0.63493305856E+02  0.00000000000E+00 0.  1.
        -13    1    4    4    0    0  0.40691475911E+02 -0.30869667236E+00  0.63104196632E+02  0.75086823998E+02  0.00000000000E+00 0.  1.
         13    1    4    4    0    0 -0.22703745964E+02 -0.79368059140E+01 -0.14181069154E+02  0.27920524552E+02  0.00000000000E+00 0. -1.
          2    1    1    2  501    0 -0.36722808168E+02  0.18547221501E+02  0.21496359572E+03  0.21886505328E+03  0.00000000000E+00 0. -1.
<scales pt_clust_5="13000.00000" pt_clust_6="13000.00000" pt_clust_7="13000.00000" pt_clust_8="13000.00000" pt_clust_9="41.14080"></scales>
<clustering>
<clus scale="   41.141">  2  9  1 -1</clus>
<clus scale="   79.724">  5  6 -1 -1</clus>
<clus scale="   80.137">  1  5  2 -1</clus>
<clus scale="   88.462">  7  8 -1 -1</clus>
<clus scale="   41.141">  2  5  1 -1</clus>
</clustering>
</event>
<event>
 9    1  0.6296820E-005  0.1286191E+03  0.7546771E-02  0.1232998E+00
         21   -1    0    0  501  502  0.00000000000E+00  0.00000000000E+00  0.18474796262E+03  0.18474796262E+03  0.00000000000E+00 0. -1.
          3   -1    0    0  502    0 -0.00000000000E+00 -0.00000000000E+00 -0.14953229096E+03  0.14953229096E+03  0.00000000000E+00 0. -1.
        -24    2    1    2    0    0 -0.65879947837E+02  0.80349290197E+02  0.17498002825E+02  0.13182244645E+03  0.79213643543E+02 0.  0.
         23    2    1    2    0    0  0.21124122146E+02 -0.71441663627E+02  0.66337777686E+02  0.13577688984E+03  0.92111471757E+02 0.  0.
         13    1    3    3    0    0 -0.73463689726E+02  0.57130917692E+02 -0.11653680174E+02  0.93790531111E+02  0.00000000000E+00 0. -1.
        -14    1    3    3    0    0  0.75837418881E+01  0.23218372505E+02  0.29151682999E+02  0.38031915341E+02  0.00000000000E+00 0.  1.
        -13    1    4    4    0    0 -0.28442237116E+02 -0.42944845143E+02  0.47289079094E+01  0.51726039347E+02  0.00000000000E+00 0.  1.
         13    1    4    4    0    0  0.49566359261E+02 -0.28496818484E+02  0.61608869776E+02  0.84050850497E+02  0.00000000000E+00 0. -1.
          4    1    1    2  501    0  0.44755825692E+02 -0.89076265704E+01 -0.48620108858E+02  0.66680917284E+02  0.00000000000E+00 0. -1.
<scales pt_clust_5="13000.00000" pt_clust_6="13000.00000" pt_clust_7="13000.00000" pt_clust_8="13000.00000" pt_clust_9="45.63367"></scales>
<clustering>
<clus scale="   45.634">  1  9  2 -1</clus>
<clus scale="   79.214">  5  6 -1 -1</clus>
<clus scale="   92.111">  7  8 -1 -1</clus>
<clus scale="  119.721">  2  5  1 -1</clus>
<clus scale="   45.634">  1  5  2 -1</clus>
</clustering>
</event>
<event>
 9    1  0.6296820E-005  0.1084384E+03  0.7546771E-02  0.1268755E+00
         21   -1    0    0  501  502  0.00000000000E+00  0.00000000000E+00  0.37851020685E+03  0.37851020685E+03  0.00000000000E+00 0.  1.
          1   -1    0    0  502    0 -0.00000000000E+00 -0.00000000000E+00 -0.76557147239E+02  0.76557147239E+02  0.00000000000E+00 0. -1.
        -24    2    1    2    0    0  0.39524590301E+01 -0.51360893336E+02  0.20095868767E+02  0.98274644736E+02  0.81243452412E+02 0.  0.
         23    2    1    2    0    0 -0.87031503162E+02  0.43779688093E+02  0.18107448657E+03  0.22596168961E+03  0.93699369536E+02 0.  0.
         11    1    3    3    0    0  0.13260564959E+02 -0.69352051378E+02  0.12685813096E+01  0.70619819540E+02  0.00000000000E+00 0. -1.
        -12    1    3    3    0    0 -0.93081059285E+01  0.17991158041E+02  0.18827287457E+02  0.27654825196E+02  0.00000000000E+00 0.  1.
        -13    1    4    4    0    0 -0.91232620858E+02  0.65685184600E+02  0.14386234336E+03  0.18257685621E+03  0.00000000000E+00 0.  1.
         13    1    4    4    0    0  0.42011176961E+01 -0.21905496507E+02  0.37212143210E+02  0.43384833403E+02  0.00000000000E+00 0. -1.
          2    1    1    2  501    0  0.83079044132E+02  0.75812052436E+01  0.10078270427E+03  0.13083101974E+03  0.00000000000E+00 0. -1.
<scales pt_clust_5="13000.00000" pt_clust_6="13000.00000" pt_clust_7="13000.00000" pt_clust_8="13000.00000" pt_clust_9="83.42423"></scales>
<clustering>
<clus scale="   81.243">  5  6 -1 -1</clus>
<clus scale="   83.424">  1  9  2 -1</clus>
<clus scale="   93.699">  7  8 -1 -1</clus>
<clus scale="   97.877">  2  5  1 -1</clus>
<clus scale="   83.424">  1  5  2 -1</clus>
</clustering>
</event>
<event>
 9    1  0.6296820E-005  0.1089843E+03  0.7546771E-02  0.1266036E+00
          1   -1    0    0  502    0 -0.00000000000E+00  0.00000000000E+00  0.39602450316E+03  0.39602450316E+03  0.00000000000E+00 0. -1.
         21   -1    0    0  501  502  0.00000000000E+00 -0.00000000000E+00 -0.11519767499E+03  0.11519767499E+03  0.00000000000E+00 0.  1.
         23    2    1    2    0    0  0.41830487171E+02 -0.51768102892E+02  0.33814520062E+03  0.35612445279E+03  0.89736965824E+02 0.  0.
        -24    2    1    2    0    0 -0.33213777532E+02 -0.33795154503E+00 -0.53083217418E+02  0.10211447204E+03  0.80661441842E+02 0.  0.
         13    1    4    4    0    0 -0.82266392212E+00 -0.27791513207E+02  0.68780374423E+01  0.28641794310E+02  0.00000000000E+00 0. -1.
        -14    1    4    4    0    0 -0.32391113610E+02  0.27453561662E+02 -0.59961254860E+02  0.73472677733E+02  0.00000000000E+00 0.  1.
        -11    1    3    3    0    0 -0.27012613008E+02 -0.78409557076E+01  0.60508255242E+02  0.66726387587E+02  0.00000000000E+00 0.  1.
         11    1    3    3    0    0  0.68843100179E+02 -0.43927147185E+02  0.27763694538E+03  0.28939806520E+03  0.00000000000E+00 0. -1.
          2    1    1    2  501    0 -0.86167096385E+01  0.52106054437E+02 -0.42351550318E+01  0.52983253318E+02  0.00000000000E+00 0. -1.
<scales pt_clust_5="13000.00000" pt_clust_6="13000.00000" pt_clust_7="13000.00000" pt_clust_8="13000.00000" pt_clust_9="52.81372"></scales>
<clustering>
<clus scale="   52.814">  2  9  1 -1</clus>
<clus scale="   80.661">  5  6 -1 -1</clus>
<clus scale="   89.737">  7  8 -1 -1</clus>
<clus scale="  101.642">  2  5  1 -1</clus>
<clus scale="   52.814">  2  5  1 -1</clus>
</clustering>
</event>
<event>
 9    1  0.6296820E-005  0.1007905E+03  0.7546771E-02  0.1281195E+00
         21   -1    0    0  501  502  0.00000000000E+00  0.00000000000E+00  0.66620904165E+02  0.66620904165E+02  0.00000000000E+00 0. -1.
          1   -1    0    0  502    0 -0.00000000000E+00 -0.00000000000E+00 -0.39523014915E+03  0.39523014915E+03  0.00000000000E+00 0. -1.
        -24    2    1    2    0    0 -0.44595707622E+02 -0.27994617478E+02 -0.27417657417E+03  0.29138122836E+03  0.83413132478E+02 0.  0.
         23    2    1    2    0    0  0.36231508109E+02  0.69495137135E+01 -0.87721010060E+02  0.13020855628E+03  0.88872237517E+02 0.  0.
         11    1    3    3    0    0 -0.61158687603E+02 -0.44083413585E+02 -0.21670104387E+03  0.22944078721E+03  0.00000000000E+00 0. -1.
        -12    1    3    3    0    0  0.16562979981E+02  0.16088796106E+02 -0.57475530304E+02  0.61940441149E+02  0.00000000000E+00 0.  1.
        -13    1    4    4    0    0  0.13859616960E+02 -0.31915756538E+02 -0.76410459566E+02  0.83959888213E+02  0.00000000000E+00 0. -1.
         13    1    4    4    0    0  0.22371891149E+02  0.38865270251E+02 -0.11310550494E+02  0.46248668065E+02  0.00000000000E+00 0.  1.
          2    1    1    2  501    0  0.83641995135E+01  0.21045103765E+02  0.33288339245E+02  0.40261268679E+02  0.00000000000E+00 0. -1.
<scales pt_clust_5="13000.00000" pt_clust_6="13000.00000" pt_clust_7="13000.00000" pt_clust_8="13000.00000" pt_clust_9="22.64633"></scales>
<clustering>
<clus scale="   22.646">  1  9  2 -1</clus>
<clus scale="   83.413">  5  6 -1 -1</clus>
<clus scale="   88.872">  7  8 -1 -1</clus>
<clus scale="   96.011">  2  5  1 -1</clus>
<clus scale="   22.646">  1  5  2 -1</clus>
</clustering>
</event>
<event>
 9    1  0.6296820E-005  0.8636851E+02  0.7546771E-02  0.1314258E+00
         21   -1    0    0  501  502  0.00000000000E+00  0.00000000000E+00  0.29361463146E+02  0.29361463146E+02  0.00000000000E+00 0.  1.
          1   -1    0    0  502    0 -0.00000000000E+00 -0.00000000000E+00 -0.62275744234E+03  0.62275744234E+03  0.00000000000E+00 0. -1.
        -24    2    1    2    0    0 -0.10363459213E+02  0.16859099202E+01 -0.16124097522E+03  0.18132401434E+03  0.82276986511E+02 0.  0.
         23    2    1    2    0    0 -0.40550217168E+02 -0.53713716430E+01 -0.11364163693E+03  0.14821691599E+03  0.85910772282E+02 0.  0.
         13    1    3    3    0    0  0.28292347602E+02  0.74067697379E+01 -0.12379234789E+03  0.12720008871E+03  0.00000000000E+00 0. -1.
        -14    1    3    3    0    0 -0.38655806815E+02 -0.57208598177E+01 -0.37448627327E+02  0.54123925636E+02  0.00000000000E+00 0.  1.
        -13    1    4    4    0    0 -0.11698617980E+02 -0.44369774143E+02 -0.64578367226E+02  0.79220578348E+02  0.00000000000E+00 0.  1.
         13    1    4    4    0    0 -0.28851599188E+02  0.38998402500E+02 -0.49063269708E+02  0.68996337640E+02  0.00000000000E+00 0. -1.
          2    1    1    2  501    0  0.50913676381E+02  0.36854617228E+01 -0.31851336704E+03  0.32257797516E+03  0.00000000000E+00 0. -1.
<scales pt_clust_5="13000.00000" pt_clust_6="13000.00000" pt_clust_7="13000.00000" pt_clust_8="13000.00000" pt_clust_9="51.04692"></scales>
<clustering>
<clus scale="   51.047">  1  9  2 -1</clus>
<clus scale="   82.277">  5  6 -1 -1</clus>
<clus scale="   82.755">  2  5  1 -1</clus>
<clus scale="   85.911">  7  8 -1 -1</clus>
<clus scale="   51.047">  1  5  2 -1</clus>
</clustering>
</event>
<event>
 9    1  0.6296820E-005  0.1548520E+03  0.7546771E-02  0.1195945E+00
         21   -1    0    0  501  502  0.00000000000E+00  0.00000000000E+00  0.33270902729E+02  0.33270902729E+02  0.00000000000E+00 0. -1.
         -2   -1    0    0    0  501 -0.00000000000E+00 -0.00000000000E+00 -0.98690535377E+03  0.98690535377E+03  0.00000000000E+00 0.  1.
        -24    2    1    2    0    0  0.11577709847E+03 -0.30520933204E+02 -0.38173476609E+03  0.40892281173E+03  0.84620153711E+02 0.  0.
         23    2    1    2    0    0 -0.13322734282E+03 -0.18809985613E+02 -0.44759139380E+03  0.47638090558E+03  0.92181185511E+02 0.  0.
         11    1    3    3    0    0  0.90424676613E+02 -0.23012847397E+02 -0.15697102844E+03  0.18260919215E+03  0.00000000000E+00 0. -1.
        -12    1    3    3    0    0  0.25352421862E+02 -0.75080858069E+01 -0.22476373764E+03  0.22631361958E+03  0.00000000000E+00 0.  1.
        -13    1    4    4    0    0 -0.80778754139E+02  0.32857169950E+02 -0.20272088744E+03  0.22068203130E+03  0.00000000000E+00 0.  1.
         13    1    4    4    0    0 -0.52448588686E+02 -0.51667155564E+02 -0.24487050636E+03  0.25569887428E+03  0.00000000000E+00 0. -1.
         -1    1    1    2    0  502  0.17450244350E+02  0.49330918817E+02 -0.12430829115E+03  0.13487253919E+03  0.00000000000E+00 0.  1.
<scales pt_clust_5="13000.00000" pt_clust_6="13000.00000" pt_clust_7="13000.00000" pt_clust_8="13000.00000" pt_clust_9="52.32639"></scales>
<clustering>
<clus scale="   52.326">  1  9  2 -1</clus>
<clus scale="   84.620">  5  6 -1 -1</clus>
<clus scale="   92.181">  7  8 -1 -1</clus>
<clus scale="  150.474">  2  5  1 -1</clus>
<clus scale="   52.326">  1  5  2 -1</clus>
</clustering>
</event>
<event>
 9    1  0.6296820E-005  0.1002676E+03  0.7546771E-02  0.1286510E+00
          1   -1    0    0  502    0 -0.00000000000E+00  0.00000000000E+00  0.60670937303E+03  0.60670937303E+03  0.00000000000E+00 0. -1.
         21   -1    0    0  501  502  0.00000000000E+00 -0.00000000000E+00 -0.29061985480E+02  0.29061985480E+02  0.00000000000E+00 0.  1.
         23    2    1    2    0    0  0.18440510735E+02  0.34366279410E+02  0.46266621971E+03  0.47318119965E+03  0.91210324251E+02 0.  0.
        -24    2    1    2    0    0 -0.88469502165E+01 -0.52578832653E+02  0.96928818482E+02  0.13521095477E+03  0.77743194341E+02 0.  0.
         13    1    4    4    0    0  0.28292260144E+02 -0.22087194705E+02  0.73402512632E+02  0.81708169816E+02  0.00000000000E+00 0. -1.
        -14    1    4    4    0    0 -0.37139210361E+02 -0.30491637947E+02  0.23526305850E+02  0.53502784954E+02  0.00000000000E+00 0.  1.
        -11    1    3    3    0    0  0.19599409086E+02 -0.27569391699E+02  0.10890661459E+03  0.11403884819E+03  0.00000000000E+00 0.  1.
         11    1    3    3    0    0 -0.11588983509E+01  0.61935671109E+02  0.35375960512E+03  0.35914235146E+03  0.00000000000E+00 0. -1.
          2    1    1    2  501    0 -0.95935605187E+01  0.18212553243E+02  0.18052349367E+02  0.27379204092E+02  0.00000000000E+00 0. -1.
<scales pt_clust_5="13000.00000" pt_clust_6="13000.00000" pt_clust_7="13000.00000" pt_clust_8="13000.00000" pt_clust_9="20.58479"></scales>
<clustering>
<clus scale="   20.585">  2  9  1 -1</clus>
<clus scale="   77.743">  5  6 -1 -1</clus>
<clus scale="   88.195">  2  5  1 -1</clus>
<clus scale="   91.210">  7  8 -1 -1</clus>
<clus scale="   20.585">  2  5  1 -1</clus>
</clustering>
</event>
<event>
 9    1  0.6296820E-005  0.1016949E+03  0.7546771E-02  0.1281380E+00
         21   -1    0    0  501  502  0.00000000000E+00  0.00000000000E+00  0.42335046733E+02  0.42335046733E+02  0.00000000000E+00 0. -1.
          1   -1    0    0  502    0 -0.00000000000E+00 -0.00000000000E+00 -0.60100387975E+03  0.60100387975E+03  0.00000000000E+00 0. -1.
        -24    2    1    2    0    0 -0.39137393800E+02 -0.27703096685E+02 -0.46053237610E+03  0.47025997605E+03  0.82189892820E+02 0.  0.
         23    2    1    2    0    0  0.18744222964E+02  0.22865159581E+02 -0.11212788811E+03  0.14787880760E+03  0.91767734134E+02 0.  0.
         13    1    3    3    0    0 -0.62291567505E+02 -0.22190808362E+02 -0.25822666126E+03  0.26655896148E+03  0.00000000000E+00 0. -1.
        -14    1    3    3    0    0  0.23154173706E+02 -0.55122883236E+01 -0.20230571484E+03  0.20370101457E+03  0.00000000000E+00 0.  1.
        -13    1    4    4    0    0  0.50728234248E+02  0.33178118923E+02 -0.56360560387E+02  0.82768678208E+02  0.00000000000E+00 0.  1.
         13    1    4    4    0    0 -0.31984011284E+02 -0.10312959341E+02 -0.55767327720E+02  0.65110129390E+02  0.00000000000E+00 0. -1.
          2    1    1    2  501    0  0.20393170836E+02  0.48379371042E+01  0.13991431187E+02  0.25200142834E+02  0.00000000000E+00 0. -1.
<scales pt_clust_5="13000.00000" pt_clust_6="13000.00000" pt_clust_7="13000.00000" pt_clust_8="13000.00000" pt_clust_9="20.95918"></scales>
<clustering>
<clus scale="   20.959">  1  9  2 -1</clus>
<clus scale="   82.190">  5  6 -1 -1</clus>
<clus scale="   91.768">  7  8 -1 -1</clus>
<clus scale="   93.143">  2  5  1 -1</clus>
<clus scale="   20.959">  1  5  2 -1</clus>
</clustering>
</event>
<event>
 9    1  0.6296820E-005  0.1917777E+03  0.7546771E-02  0.1185028E+00
          1   -1    0    0  502    0 -0.00000000000E+00  0.00000000000E+00  0.59751909795E+03  0.59751909795E+03  0.00000000000E+00 0. -1.
         21   -1    0    0  501  502  0.00000000000E+00 -0.00000000000E+00 -0.11995264038E+03  0.11995264038E+03  0.00000000000E+00 0. -1.
         23    2    1    2    0    0  0.38392789981E+02  0.18648414651E+02 -0.65025996818E+00  0.10080729008E+03  0.91323147145E+02 0.  0.
        -24    2    1    2    0    0 -0.14690053328E+02 -0.18528266979E+03  0.35061046447E+03  0.40544856216E+03  0.83158723944E+02 0.  0.
         11    1    4    4    0    0  0.57438105771E+01 -0.18129096996E+03  0.29789385114E+03  0.34876948504E+03  0.00000000000E+00 0. -1.
        -12    1    4    4    0    0 -0.20433863905E+02 -0.39916998289E+01  0.52716613327E+02  0.56679077113E+02  0.00000000000E+00 0.  1.
        -11    1    3    3    0    0 -0.26399358629E+02  0.18876716480E+02  0.12348305165E+02  0.34723726781E+02  0.00000000000E+00 0.  1.
         11    1    3    3    0    0  0.64792148610E+02 -0.22830182890E+00 -0.12998565134E+02  0.66083563302E+02  0.00000000000E+00 0. -1.
          2    1    1    2  501    0 -0.23702736652E+02  0.16663425514E+03  0.12760625308E+03  0.21121588609E+03  0.00000000000E+00 0. -1.
<scales pt_clust_5="13000.00000" pt_clust_6="13000.00000" pt_clust_7="13000.00000" pt_clust_8="13000.00000" pt_clust_9="172.81002"></scales>
<clustering>
<clus scale="   83.159">  5  6 -1 -1</clus>
<clus scale="   91.323">  7  8 -1 -1</clus>
<clus scale="  100.805">  1  7  2 -1</clus>
<clus scale="  172.810">  2  9  1 -1</clus>
<clus scale="  172.810">  2  5  1 -1</clus>
</clustering>
</event>
<event>
 9    1  0.6296820E-005  0.2423529E+03  0.7546771E-02  0.1147497E+00
          1   -1    0    0  502    0 -0.00000000000E+00  0.00000000000E+00  0.20763650493E+03  0.20763650493E+03  0.00000000000E+00 0. -1.
         21   -1    0    0  501  502  0.00000000000E+00 -0.00000000000E+00 -0.67357816051E+03  0.67357816051E+03  0.00000000000E+00 0. -1.
        -24    2    1    2    0    0  0.81498897647E+02  0.24093981802E+02  0.56223345080E+02  0.13120641401E+03  0.82652696676E+02 0.  0.
         23    2    1    2    0    0  0.20228339395E+03  0.44324713850E+01 -0.35798424162E+03  0.42091636580E+03  0.89886881577E+02 0.  0.
         13    1    3    3    0    0  0.48080243499E+02  0.15132543909E+02  0.76118600007E+02  0.91294824427E+02  0.00000000000E+00 0. -1.
        -14    1    3    3    0    0  0.33418654148E+02  0.89614378924E+01 -0.19895254927E+02  0.39911589580E+02  0.00000000000E+00 0.  1.
        -13    1    4    4    0    0  0.95952009707E+02 -0.13839065205E+02 -0.25058284202E+03  0.26868209581E+03  0.00000000000E+00 0.  1.
         13    1    4    4    0    0  0.10633138424E+03  0.18271536590E+02 -0.10740139960E+03  0.15223426999E+03  0.00000000000E+00 0. -1.
          2    1    1    2  501    0 -0.28378229160E+03 -0.28526453187E+02 -0.16418075904E+03  0.32909188564E+03  0.00000000000E+00 0. -1.
<scales pt_clust_5="13000.00000" pt_clust_6="13000.00000" pt_clust_7="13000.00000" pt_clust_8="13000.00000" pt_clust_9="225.06742"></scales>
<clustering>
<clus scale="   82.653">  5  6 -1 -1</clus>
<clus scale="   89.887">  7  8 -1 -1</clus>
<clus scale="  118.550">  1  5  2 -1</clus>
<clus scale="  225.067">  2  9  1 -1</clus>
<clus scale="  225.067">  2  5  1 -1</clus>
</clustering>
</event>
<event>
 9    1  0.6296820E-005  0.9940139E+02  0.7546771E-02  0.1286944E+00
         21   -1    0    0  501  502  0.00000000000E+00  0.00000000000E+00  0.41757525936E+02  0.41757525936E+02  0.00000000000E+00 0.  1.
          1   -1    0    0  502    0 -0.00000000000E+00 -0.00000000000E+00 -0.47936403129E+03  0.47936403129E+03  0.00000000000E+00 0. -1.
         23    2    1    2    0    0 -0.16391244681E+02 -0.20606735091E+02 -0.26802003525E+03  0.28445776617E+03  0.91586958722E+02 0.  0.
        -24    2    1    2    0    0  0.38125745977E+02  0.66923750007E+02 -0.98019352323E+02  0.14868932450E+03  0.81045425347E+02 0.  0.
         13    1    4    4    0    0  0.23973062487E+02  0.43315032664E+02 -0.10848015244E+03  0.11924279120E+03  0.00000000000E+00 0. -1.
        -14    1    4    4    0    0  0.14152683490E+02  0.23608717343E+02  0.10460800115E+02  0.29446533304E+02  0.00000000000E+00 0.  1.
        -11    1    3    3    0    0 -0.12995798865E+02 -0.56690290178E+02 -0.18344793922E+03  0.19244694384E+03  0.00000000000E+00 0.  1.
         11    1    3    3    0    0 -0.33954458168E+01  0.36083555087E+02 -0.84572096024E+02  0.92010822331E+02  0.00000000000E+00 0. -1.
          2    1    1    2  501    0 -0.21734501296E+02 -0.46317014916E+02 -0.71567117787E+02  0.87974466555E+02  0.00000000000E+00 0. -1.
<scales pt_clust_5="13000.00000" pt_clust_6="13000.00000" pt_clust_7="13000.00000" pt_clust_8="13000.00000" pt_clust_9="51.16302"></scales>
<clustering>
<clus scale="   51.163">  1  9  2 -1</clus>
<clus scale="   81.045">  5  6 -1 -1</clus>
<clus scale="   89.782">  1  5  2 -1</clus>
<clus scale="   91.587">  7  8 -1 -1</clus>
<clus scale="   51.163">  1  5  2 -1</clus>
</clustering>
</event>
<event>
 9    1  0.6296820E-005  0.1057590E+03  0.7546771E-02  0.1270772E+00
         21   -1    0    0  501  502  0.00000000000E+00  0.00000000000E+00  0.89251772482E+02  0.89251772482E+02  0.00000000000E+00 0.  1.
          1   -1    0    0  502    0 -0.00000000000E+00 -0.00000000000E+00 -0.27886926877E+03  0.27886926877E+03  0.00000000000E+00 0. -1.
        -24    2    1    2    0    0  0.23960386147E+02  0.40320285125E+02 -0.20792148900E+03  0.23310516912E+03  0.94376102820E+02 0.  0.
         23    2    1    2    0    0 -0.48660129422E+02 -0.30122566023E+02  0.20410244352E+02  0.10821088960E+03  0.89542399866E+02 0.  0.
         11    1    3    3    0    0  0.13979269055E+02  0.71161889538E+02 -0.13340681257E+03  0.15184469739E+03  0.00000000000E+00 0. -1.
        -12    1    3    3    0    0  0.99811170917E+01 -0.30841604414E+02 -0.74514676434E+02  0.81260471727E+02  0.00000000000E+00 0.  1.
        -13    1    4    4    0    0 -0.66733515976E+02 -0.46456796227E+02  0.20474551365E+02  0.83849885652E+02  0.00000000000E+00 0.  1.
         13    1    4    4    0    0  0.18073386554E+02  0.16334230203E+02 -0.64307013245E-01  0.24361003946E+02  0.00000000000E+00 0. -1.
          2    1    1    2  501    0  0.24699743275E+02 -0.10197719101E+02 -0.21062516356E+01  0.26804982535E+02  0.00000000000E+00 0. -1.
<scales pt_clust_5="13000.00000" pt_clust_6="13000.00000" pt_clust_7="13000.00000" pt_clust_8="13000.00000" pt_clust_9="26.72210"></scales>
<clustering>
<clus scale="   26.722">  1  9  2 -1</clus>
<clus scale="   89.542">  7  8 -1 -1</clus>
<clus scale="   94.376">  5  6 -1 -1</clus>
<clus scale="  101.469">  1  7  2 -1</clus>
<clus scale="   26.722">  1  5  2 -1</clus>
</clustering>
</event>
<event>
 9    1  0.6296820E-005  0.1124316E+03  0.7546771E-02  0.1259590E+00
         21   -1    0    0  501  502  0.00000000000E+00  0.00000000000E+00  0.20287927207E+02  0.20287927207E+02  0.00000000000E+00 0. -1.
          1   -1    0    0  502    0 -0.00000000000E+00 -0.00000000000E+00 -0.92576273935E+03  0.92576273935E+03  0.00000000000E+00 0. -1.
        -24    2    1    2    0    0  0.19639744433E+02  0.51730233403E+02 -0.34209102554E+03  0.35557483912E+03  0.79658394717E+02 0.  0.
         23    2    1    2    0    0 -0.23754808885E+02 -0.89000387867E+02 -0.32889602922E+03  0.35300897389E+03  0.89204134598E+02 0.  0.
         13    1    3    3    0    0  0.35635137076E+02  0.60305219643E+02 -0.19177550106E+03  0.20416764023E+03  0.00000000000E+00 0. -1.
        -14    1    3    3    0    0 -0.15995392643E+02 -0.85749862406E+01 -0.15031552448E+03  0.15140719889E+03  0.00000000000E+00 0.  1.
        -13    1    4    4    0    0 -0.17926483413E+02  0.14873450795E+02 -0.77828913362E+02  0.81239879993E+02  0.00000000000E+00 0.  1.
         13    1    4    4    0    0 -0.58283254717E+01 -0.10387383866E+03 -0.25106711585E+03  0.27176909390E+03  0.00000000000E+00 0. -1.
          2    1    1    2  501    0  0.41150644521E+01  0.37270154464E+02 -0.23448775739E+03  0.23746685355E+03  0.00000000000E+00 0. -1.
<scales pt_clust_5="13000.00000" pt_clust_6="13000.00000" pt_clust_7="13000.00000" pt_clust_8="13000.00000" pt_clust_9="37.49666"></scales>
<clustering>
<clus scale="   37.497">  1  9  2 -1</clus>
<clus scale="   79.658">  5  6 -1 -1</clus>
<clus scale="   89.204">  7  8 -1 -1</clus>
<clus scale="  105.019">  2  5  1 -1</clus>
<clus scale="   37.497">  1  5  2 -1</clus>
</clustering>
</event>
<event>
 9    1  0.6296820E-005  0.1306953E+03  0.7546771E-02  0.1227763E+00
         21   -1    0    0  501  502  0.00000000000E+00  0.00000000000E+00  0.30716279412E+03  0.30716279412E+03  0.00000000000E+00 0. -1.
          3   -1    0    0  502    0 -0.00000000000E+00 -0.00000000000E+00 -0.14162503245E+03  0.14162503245E+03  0.00000000000E+00 0. -1.
         23    2    1    2    0    0  0.46131575382E+02 -0.89860846548E+02 -0.80575171677E+02  0.15557364546E+03  0.86647024654E+02 0.  0.
        -24    2    1    2    0    0 -0.62409577895E+02  0.55557475917E+02  0.21328464188E+03  0.24302064245E+03  0.81160986034E+02 0.  0.
         11    1    4    4    0    0 -0.54957084462E+02  0.35596268128E+02  0.21176790630E+03  0.22165969768E+03  0.00000000000E+00 0. -1.
        -12    1    4    4    0    0 -0.74524934331E+01  0.19961207788E+02  0.15167355774E+01  0.21360944772E+02  0.00000000000E+00 0.  1.
        -13    1    3    3    0    0  0.40990786385E+02 -0.64026726283E+02 -0.97970360998E+02  0.12400749123E+03  0.00000000000E+00 0. -1.
         13    1    3    3    0    0  0.51407889963E+01 -0.25834120265E+02  0.17395189321E+02  0.31566154230E+02  0.00000000000E+00 0.  1.
          4    1    1    2  501    0  0.16278002513E+02  0.34303370631E+02  0.32828291467E+02  0.50193538659E+02  0.00000000000E+00 0. -1.
<scales pt_clust_5="13000.00000" pt_clust_6="13000.00000" pt_clust_7="13000.00000" pt_clust_8="13000.00000" pt_clust_9="37.96965"></scales>
<clustering>
<clus scale="   37.970">  1  9  2 -1</clus>
<clus scale="   81.161">  5  6 -1 -1</clus>
<clus scale="   86.647">  7  8 -1 -1</clus>
<clus scale="  127.125">  1  5  2 -1</clus>
<clus scale="   37.970">  1  5  2 -1</clus>
</clustering>
</event>
<event>
 9    1  0.6296820E-005  0.9979185E+02  0.7546771E-02  0.1287892E+00
         21   -1    0    0  501  502  0.00000000000E+00  0.00000000000E+00  0.22322138623E+03  0.22322138623E+03  0.00000000000E+00 0. -1.
          1   -1    0    0  502    0 -0.00000000000E+00 -0.00000000000E+00 -0.11235942760E+03  0.11235942760E+03  0.00000000000E+00 0. -1.
         23    2    1    2    0    0  0.16733377725E+02  0.45609379491E+01 -0.40202704057E+02  0.10454590348E+03  0.94935664716E+02 0.  0.
        -24    2    1    2    0    0 -0.54903170175E+02 -0.28912464417E+02  0.38100229905E+02  0.10933489816E+03  0.81561043041E+02 0.  0.
         11    1    4    4    0    0 -0.42354907780E+02 -0.21450952327E+02 -0.18445885502E+02  0.50934588059E+02  0.00000000000E+00 0. -1.
        -12    1    4    4    0    0 -0.12548262395E+02 -0.74615120900E+01  0.56546115407E+02  0.58400310096E+02  0.00000000000E+00 0.  1.
        -11    1    3    3    0    0  0.34062787439E+02  0.41834691114E+02 -0.31693656841E+02  0.62569183731E+02  0.00000000000E+00 0.  1.
         11    1    3    3    0    0 -0.17329409714E+02 -0.37273753165E+02 -0.85090472158E+01  0.41976719745E+02  0.00000000000E+00 0. -1.
          2    1    1    2  501    0  0.38169792450E+02  0.24351526468E+02  0.11296443278E+03  0.12170001220E+03  0.00000000000E+00 0. -1.
<scales pt_clust_5="13000.00000" pt_clust_6="13000.00000" pt_clust_7="13000.00000" pt_clust_8="13000.00000" pt_clust_9="45.27615"></scales>
<clustering>
<clus scale="   45.276">  1  9  2 -1</clus>
<clus scale="   81.561">  5  6 -1 -1</clus>
<clus scale="   87.166">  1  5  2 -1</clus>
<clus scale="   94.936">  7  8 -1 -1</clus>
<clus scale="   45.276">  1  5  2 -1</clus>
</clustering>
</event>
<event>
 9    1  0.6296820E-005  0.1279200E+03  0.7546771E-02  0.1232036E+00
          1   -1    0    0  502    0 -0.00000000000E+00  0.00000000000E+00  0.57706499009E+02  0.57706499009E+02  0.00000000000E+00 0. -1.
         21   -1    0    0  501  502  0.00000000000E+00 -0.00000000000E+00 -0.41126387367E+03  0.41126387367E+03  0.00000000000E+00 0. -1.
        -24    2    1    2    0    0  0.81553365251E+02  0.67777870326E+02 -0.12721951957E+03  0.19096813369E+03  0.95074869624E+02 0.  0.
         23    2    1    2    0    0 -0.62808780977E+02 -0.22477334218E+02 -0.14769106618E+03  0.18532637688E+03  0.89905736298E+02 0.  0.
         11    1    3    3    0    0  0.50352327618E+02  0.19413495140E+02 -0.29833746781E+01  0.54047582875E+02  0.00000000000E+00 0. -1.
        -12    1    3    3    0    0  0.31201037633E+02  0.48364375185E+02 -0.12423614490E+03  0.13692055081E+03  0.00000000000E+00 0.  1.
        -13    1    4    4    0    0 -0.71051735763E+02  0.14558846598E+02 -0.82067050244E+02  0.10952310215E+03  0.00000000000E+00 0. -1.
         13    1    4    4    0    0  0.82429547861E+01 -0.37036180816E+02 -0.65624015933E+02  0.75803274733E+02  0.00000000000E+00 0.  1.
          2    1    1    2  501    0 -0.18744584275E+02 -0.45300536108E+02 -0.78646788907E+02  0.92675862104E+02  0.00000000000E+00 0. -1.
<scales pt_clust_5="13000.00000" pt_clust_6="13000.00000" pt_clust_7="13000.00000" pt_clust_8="13000.00000" pt_clust_9="49.02548"></scales>
<clustering>
<clus scale="   49.025">  2  9  1 -1</clus>
<clus scale="   89.906">  7  8 -1 -1</clus>
<clus scale="   95.075">  5  6 -1 -1</clus>
<clus scale="  124.126">  2  7  1 -1</clus>
<clus scale="   49.025">  2  5  1 -1</clus>
</clustering>
</event>
<event>
 9    1  0.6296820E-005  0.1367980E+03  0.7546771E-02  0.1218979E+00
         21   -1    0    0  501  502  0.00000000000E+00  0.00000000000E+00  0.62343340242E+02  0.62343340242E+02  0.00000000000E+00 0. -1.
         -2   -1    0    0    0  501 -0.00000000000E+00 -0.00000000000E+00 -0.38618453496E+03  0.38618453496E+03  0.00000000000E+00 0.  1.
        -24    2    1    2    0    0  0.24809414967E+01 -0.11173589979E+03 -0.23048420437E+03  0.26996302055E+03  0.85240821364E+02 0.  0.
         23    2    1    2    0    0 -0.46673142487E+01  0.86416304750E+02 -0.86071942215E+02  0.15212749387E+03  0.90801066100E+02 0.  0.
         13    1    3    3    0    0 -0.18540350506E+02 -0.73218106791E+02 -0.20666533648E+03  0.22003453607E+03  0.00000000000E+00 0. -1.
        -14    1    3    3    0    0  0.21021292003E+02 -0.38517793002E+02 -0.23818867888E+02  0.49928484483E+02  0.00000000000E+00 0.  1.
        -13    1    4    4    0    0 -0.35970940759E+02  0.28672880027E+01 -0.27972356766E+02  0.45657230125E+02  0.00000000000E+00 0.  1.
         13    1    4    4    0    0  0.31303626511E+02  0.83549016748E+02 -0.58099585449E+02  0.10647026374E+03  0.00000000000E+00 0. -1.
         -1    1    1    2    0  502  0.21863727520E+01  0.25319595043E+02 -0.72850481332E+01  0.26437360785E+02  0.00000000000E+00 0.  1.
<scales pt_clust_5="13000.00000" pt_clust_6="13000.00000" pt_clust_7="13000.00000" pt_clust_8="13000.00000" pt_clust_9="25.41382"></scales>
<clustering>
<clus scale="   25.414">  1  9  2 -1</clus>
<clus scale="   85.241">  5  6 -1 -1</clus>
<clus scale="   90.801">  7  8 -1 -1</clus>
<clus scale="  133.172">  2  5  1 -1</clus>
<clus scale="   25.414">  1  5  2 -1</clus>
</clustering>
</event>
<event>
 9    1  0.6296820E-005  0.1025118E+03  0.7546771E-02  0.1278349E+00
          1   -1    0    0  502    0 -0.00000000000E+00  0.00000000000E+00  0.52049434938E+03  0.52049434938E+03  0.00000000000E+00 0. -1.
         21   -1    0    0  501  502  0.00000000000E+00 -0.00000000000E+00 -0.28648264611E+02  0.28648264611E+02  0.00000000000E+00 0.  1.
        -24    2    1    2    0    0  0.16121105307E+02 -0.42716358779E+02  0.30600273948E+03  0.32004575483E+03  0.81896466791E+02 0.  0.
         23    2    1    2    0    0 -0.69001581769E+01  0.63562255430E+02  0.16560437731E+03  0.19861419035E+03  0.89078697363E+02 0.  0.
         11    1    3    3    0    0 -0.29370809958E+02 -0.23983312215E+02  0.19464750229E+03  0.19830656542E+03  0.00000000000E+00 0. -1.
        -12    1    3    3    0    0  0.45491915265E+02 -0.18733046564E+02  0.11135523719E+03  0.12173918941E+03  0.00000000000E+00 0.  1.
        -11    1    4    4    0    0 -0.21215177468E+02  0.26730729425E+02  0.65815975091E+01  0.34755331625E+02  0.00000000000E+00 0.  1.
         11    1    4    4    0    0  0.14315019291E+02  0.36831526005E+02  0.15902277980E+03  0.16385885872E+03  0.00000000000E+00 0. -1.
          2    1    1    2  501    0 -0.92209471299E+01 -0.20845896652E+02  0.20238967976E+02  0.30482668812E+02  0.00000000000E+00 0. -1.
<scales pt_clust_5="13000.00000" pt_clust_6="13000.00000" pt_clust_7="13000.00000" pt_clust_8="13000.00000" pt_clust_9="22.79424"></scales>
<clustering>
<clus scale="   22.794">  2  9  1 -1</clus>
<clus scale="   81.896">  5  6 -1 -1</clus>
<clus scale="   89.079">  7  8 -1 -1</clus>
<clus scale="   96.336">  1  5  2 -1</clus>
<clus scale="   22.794">  2  5  1 -1</clus>
</clustering>
</event>
<event>
 9    1  0.6296820E-005  0.9989057E+02  0.7546771E-02  0.1286767E+00
         21   -1    0    0  501  502  0.00000000000E+00  0.00000000000E+00  0.35914637460E+03  0.35914637460E+03  0.00000000000E+00 0. -1.
          3   -1    0    0  502    0 -0.00000000000E+00 -0.00000000000E+00 -0.10346455004E+03  0.10346455004E+03  0.00000000000E+00 0. -1.
         23    2    1    2    0    0  0.17021328280E+01  0.33511520334E+02 -0.55816349342E+02  0.11373211861E+03  0.93239533994E+02 0.  0.
        -24    2    1    2    0    0  0.45564507838E+02 -0.50491956085E+02  0.19257910748E+03  0.21978885725E+03  0.81208787271E+02 0.  0.
         13    1    4    4    0    0  0.52650667840E+02 -0.35092960409E+02  0.19271556522E+03  0.20283712129E+03  0.00000000000E+00 0. -1.
        -14    1    4    4    0    0 -0.70861600020E+01 -0.15398995676E+02 -0.13645774131E+00  0.16951735961E+02  0.00000000000E+00 0.  1.
        -11    1    3    3    0    0  0.27134288269E+02  0.35759994182E+02 -0.71019704739E+02  0.84016934275E+02  0.00000000000E+00 0. -1.
         11    1    3    3    0    0 -0.25432155441E+02 -0.22484738480E+01  0.15203355397E+02  0.29715184340E+02  0.00000000000E+00 0.  1.
          4    1    1    2  501    0 -0.47266640666E+02  0.16980435751E+02  0.11891906642E+03  0.12908994878E+03  0.00000000000E+00 0. -1.
<scales pt_clust_5="13000.00000" pt_clust_6="13000.00000" pt_clust_7="13000.00000" pt_clust_8="13000.00000" pt_clust_9="50.22420"></scales>
<clustering>
<clus scale="   50.224">  1  9  2 -1</clus>
<clus scale="   81.209">  5  6 -1 -1</clus>
<clus scale="   88.766">  1  5  2 -1</clus>
<clus scale="   93.240">  7  8 -1 -1</clus>
<clus scale="   50.224">  1  5  2 -1</clus>
</clustering>
</event>
<event>
 9    1  0.6296820E-005  0.1087588E+03  0.7546771E-02  0.1268735E+00
         21   -1    0    0  501  502  0.00000000000E+00  0.00000000000E+00  0.38318595282E+03  0.38318595282E+03  0.00000000000E+00 0. -1.
         -4   -1    0    0    0  501 -0.00000000000E+00 -0.00000000000E+00 -0.13932529775E+03  0.13932529775E+03  0.00000000000E+00 0.  1.
         23    2    1    2    0    0 -0.55768634293E+02  0.18680458241E+02 -0.10115401284E+03  0.14960456507E+03  0.93221732901E+02 0.  0.
        -24    2    1    2    0    0  0.24209535791E+02 -0.38489942798E+02  0.16065901911E+03  0.18482319972E+03  0.79250977376E+02 0.  0.
         13    1    4    4    0    0  0.34536821027E+02 -0.35529122140E+02  0.16570454117E+03  0.17295405602E+03  0.00000000000E+00 0. -1.
        -14    1    4    4    0    0 -0.10327285236E+02 -0.29608206579E+01 -0.50455220692E+01  0.11869143704E+02  0.00000000000E+00 0.  1.
        -11    1    3    3    0    0 -0.79914656999E+02  0.48795895822E+01 -0.60517049226E+02  0.10036172600E+03  0.00000000000E+00 0.  1.
         11    1    3    3    0    0  0.24146022706E+02  0.13800868659E+02 -0.40636963614E+02  0.49242839074E+02  0.00000000000E+00 0. -1.
         -3    1    1    2    0  502  0.31559098501E+02  0.19809484557E+02  0.18435564881E+03  0.18808348578E+03  0.00000000000E+00 0.  1.
<scales pt_clust_5="13000.00000" pt_clust_6="13000.00000" pt_clust_7="13000.00000" pt_clust_8="13000.00000" pt_clust_9="37.26114"></scales>
<clustering>
<clus scale="   37.261">  1  9  2 -1</clus>
<clus scale="   79.251">  5  6 -1 -1</clus>
<clus scale="   93.222">  7  8 -1 -1</clus>
<clus scale="   97.051">  1  5  2 -1</clus>
<clus scale="   37.261">  1  5  2 -1</clus>
</clustering>
</event>
<event>
 9    1  0.6296820E-005  0.9634346E+02  0.7546771E-02  0.1298321E+00
         21   -1    0    0  501  502  0.00000000000E+00  0.00000000000E+00  0.14552835615E+03  0.14552835615E+03  0.00000000000E+00 0. -1.
         -2   -1    0    0    0  501 -0.00000000000E+00 -0.00000000000E+00 -0.22801335904E+03  0.22801335904E+03  0.00000000000E+00 0.  1.
        -24    2    1    2    0    0  0.40120735274E+00 -0.17967566480E+02 -0.17138384348E+03  0.18874665335E+03  0.77005733108E+02 0.  0.
         23    2    1    2    0    0 -0.28245448838E+01  0.38402161982E+02  0.87347207027E+01  0.10203195790E+03  0.94082522230E+02 0.  0.
         13    1    3    3    0    0 -0.24632965273E+02  0.45891064875E+01 -0.15951335695E+02  0.29703332926E+02  0.00000000000E+00 0. -1.
        -14    1    3    3    0    0  0.25034172626E+02 -0.22556672968E+02 -0.15543250778E+03  0.15904332042E+03  0.00000000000E+00 0.  1.
        -13    1    4    4    0    0 -0.39780417244E+02 -0.81718732719E+01 -0.52654244626E+01  0.40951017126E+02  0.00000000000E+00 0.  1.
         13    1    4    4    0    0  0.36955872360E+02  0.46574035254E+02  0.14000145165E+02  0.61080940778E+02  0.00000000000E+00 0. -1.
         -1    1    1    2    0  502  0.24233375311E+01 -0.20434595501E+02  0.80164119884E+02  0.82763103946E+02  0.00000000000E+00 0.  1.
<scales pt_clust_5="13000.00000" pt_clust_6="13000.00000" pt_clust_7="13000.00000" pt_clust_8="13000.00000" pt_clust_9="20.57779"></scales>
<clustering>
<clus scale="   20.578">  1  9  2 -1</clus>
<clus scale="   77.006">  5  6 -1 -1</clus>
<clus scale="   79.752">  2  5  1 -1</clus>
<clus scale="   94.083">  7  8 -1 -1</clus>
<clus scale="   20.578">  1  5  2 -1</clus>
</clustering>
</event>
<event>
 9    1  0.6296820E-005  0.1049538E+03  0.7546771E-02  0.1276850E+00
          1   -1    0    0  502    0 -0.00000000000E+00  0.00000000000E+00  0.13898336481E+03  0.13898336481E+03  0.00000000000E+00 0. -1.
         21   -1    0    0  501  502  0.00000000000E+00 -0.00000000000E+00 -0.14042990730E+03  0.14042990730E+03  0.00000000000E+00 0.  1.
         23    2    1    2    0    0  0.42117934421E+02 -0.11645811495E+02  0.60926869012E+02  0.11980278444E+03  0.93440240079E+02 0.  0.
        -24    2    1    2    0    0 -0.45556726237E+02  0.34845685399E+02 -0.51873514865E+01  0.97801872596E+02  0.79048469760E+02 0.  0.
         13    1    4    4    0    0 -0.31981028583E+02  0.20629548929E+01  0.32774737103E+02  0.45839124821E+02  0.00000000000E+00 0. -1.
        -14    1    4    4    0    0 -0.13575697654E+02  0.32782730506E+02 -0.37962088590E+02  0.51962747775E+02  0.00000000000E+00 0.  1.
        -11    1    3    3    0    0 -0.14181906931E+02  0.27702484416E+02  0.56387205795E+01  0.31628298987E+02  0.00000000000E+00 0.  1.
         11    1    3    3    0    0  0.56299841353E+02 -0.39348295911E+02  0.55288148433E+02  0.88174485451E+02  0.00000000000E+00 0. -1.
          2    1    1    2  501    0  0.34387918159E+01 -0.23199873904E+02 -0.57186060011E+02  0.61808615078E+02  0.00000000000E+00 0. -1.
<scales pt_clust_5="13000.00000" pt_clust_6="13000.00000" pt_clust_7="13000.00000" pt_clust_8="13000.00000" pt_clust_9="23.45335"></scales>
<clustering>
<clus scale="   23.453">  2  9  1 -1</clus>
<clus scale="   79.048">  5  6 -1 -1</clus>
<clus scale="   92.374">  2  5  1 -1</clus>
<clus scale="   93.440">  7  8 -1 -1</clus>
<clus scale="   23.453">  2  5  1 -1</clus>
</clustering>
</event>
<event>
 9    1  0.6296820E-005  0.9231432E+02  0.7546771E-02  0.1316854E+00
          3   -1    0    0  502    0 -0.00000000000E+00  0.00000000000E+00  0.22614258430E+03  0.22614258430E+03  0.00000000000E+00 0. -1.
         21   -1    0    0  501  502  0.00000000000E+00 -0.00000000000E+00 -0.91153417872E+02  0.91153417872E+02  0.00000000000E+00 0.  1.
         23    2    1    2    0    0 -0.67397985717E+01  0.41919808886E+01  0.18755271384E+03  0.20911709206E+03  0.92146297465E+02 0.  0.
        -24    2    1    2    0    0 -0.18484405426E+02 -0.70600760026E+01 -0.47035866175E+02  0.82197345552E+02  0.64439995281E+02 0.  0.
         11    1    4    4    0    0 -0.40637782182E+02  0.55174297265E+01 -0.22264889688E+02  0.46664726338E+02  0.00000000000E+00 0. -1.
        -12    1    4    4    0    0  0.22153376756E+02 -0.12577505729E+02 -0.24770976487E+02  0.35532619214E+02  0.00000000000E+00 0.  1.
        -13    1    3    3    0    0 -0.23524727051E+01  0.33784831393E+02  0.20891248068E+02  0.39791873617E+02  0.00000000000E+00 0.  1.
         13    1    3    3    0    0 -0.43873258666E+01 -0.29592850505E+02  0.16666146577E+03  0.16932521844E+03  0.00000000000E+00 0. -1.
          4    1    1    2  501    0  0.25224203997E+02  0.28680951140E+01 -0.55276812358E+01  0.25981564555E+02  0.00000000000E+00 0. -1.
<scales pt_clust_5="13000.00000" pt_clust_6="13000.00000" pt_clust_7="13000.00000" pt_clust_8="13000.00000" pt_clust_9="25.38674"></scales>
<clustering>
<clus scale="   25.387">  2  9  1 -1</clus>
<clus scale="   64.440">  5  6 -1 -1</clus>
<clus scale="   64.680">  2  5  1 -1</clus>
<clus scale="   92.146">  7  8 -1 -1</clus>
<clus scale="   25.387">  2  5  1 -1</clus>
</clustering>
</event>
<event>
 9    1  0.6296820E-005  0.1297590E+03  0.7546771E-02  0.1251514E+00
         21   -1    0    0  501  502  0.00000000000E+00  0.00000000000E+00  0.51779467891E+02  0.51779467891E+02  0.00000000000E+00 0.  1.
          1   -1    0    0  502    0 -0.00000000000E+00 -0.00000000000E+00 -0.76598673244E+03  0.76598673244E+03  0.00000000000E+00 0. -1.
        -24    2    1    2    0    0  0.21970487125E+02 -0.28912758471E+01 -0.18163536993E+03  0.19853750200E+03  0.77036811418E+02 0.  0.
         23    2    1    2    0    0  0.30739628386E+02 -0.82479828770E+02 -0.70609173070E+02  0.14649607000E+03  0.93421605083E+02 0.  0.
         13    1    3    3    0    0 -0.25772911487E+02 -0.99895561447E+01 -0.99512283605E+02  0.10327985664E+03  0.00000000000E+00 0. -1.
        -14    1    3    3    0    0  0.47743398612E+02  0.70982802975E+01 -0.82123086320E+02  0.95257645368E+02  0.00000000000E+00 0.  1.
        -11    1    4    4    0    0  0.47664873540E+02 -0.46343100595E+02 -0.12674701837E+01  0.66492327549E+02  0.00000000000E+00 0.  1.
         11    1    4    4    0    0 -0.16925245154E+02 -0.36136728176E+02 -0.69341702886E+02  0.80003742450E+02  0.00000000000E+00 0. -1.
          2    1    1    2  501    0 -0.52710115511E+02  0.85371104617E+02 -0.46196272155E+03  0.47273262833E+03  0.00000000000E+00 0. -1.
<scales pt_clust_5="13000.00000" pt_clust_6="13000.00000" pt_clust_7="13000.00000" pt_clust_8="13000.00000" pt_clust_9="90.05445"></scales>
<clustering>
<clus scale="   77.037">  5  6 -1 -1</clus>
<clus scale="   80.161">  2  5  1 -1</clus>
<clus scale="   90.054">  1  9  2 -1</clus>
<clus scale="   93.422">  7  8 -1 -1</clus>
<clus scale="   90.054">  1  5  2 -1</clus>
</clustering>
</event>
<event>
 9    1  0.6296820E-005  0.9404587E+02  0.7546771E-02  0.1299194E+00
         21   -1    0    0  501  502  0.00000000000E+00  0.00000000000E+00  0.41301361375E+02  0.41301361375E+02  0.00000000000E+00 0.  1.
         -2   -1    0    0    0  501 -0.00000000000E+00 -0.00000000000E+00 -0.28705324192E+03  0.28705324192E+03  0.00000000000E+00 0.  1.
         23    2    1    2    0    0 -0.31881200776E+01 -0.10595532384E+02 -0.10608704432E+03  0.13982875908E+03  0.90416765468E+02 0.  0.
        -24    2    1    2    0    0  0.15463816389E+02  0.40650785878E+02 -0.83984101193E+02  0.12407155625E+03  0.80304456963E+02 0.  0.
         13    1    4    4    0    0  0.11452402406E+02 -0.17734722888E+02  0.71199100306E+00  0.21123088031E+02  0.00000000000E+00 0. -1.
        -14    1    4    4    0    0  0.40114139831E+01  0.58385508766E+02 -0.84696092196E+02  0.10294846822E+03  0.00000000000E+00 0.  1.
        -11    1    3    3    0    0  0.26960978758E+02 -0.38670891449E+00  0.21105163037E+01  0.27046223368E+02  0.00000000000E+00 0. -1.
         11    1    3    3    0    0 -0.30149098836E+02 -0.10208823469E+02 -0.10819756062E+03  0.11278253571E+03  0.00000000000E+00 0.  1.
         -1    1    1    2    0  502 -0.12275696311E+02 -0.30055253494E+02 -0.55680735033E+02  0.64454287959E+02  0.00000000000E+00 0.  1.
<scales pt_clust_5="13000.00000" pt_clust_6="13000.00000" pt_clust_7="13000.00000" pt_clust_8="13000.00000" pt_clust_9="32.46555"></scales>
<clustering>
<clus scale="   32.466">  1  9  2 -1</clus>
<clus scale="   80.304">  5  6 -1 -1</clus>
<clus scale="   84.370">  1  5  2 -1</clus>
<clus scale="   90.417">  7  8 -1 -1</clus>
<clus scale="   32.466">  1  5  2 -1</clus>
</clustering>
</event>
<event>
 9    1  0.6296820E-005  0.1042145E+03  0.7546771E-02  0.1276157E+00
          1   -1    0    0  502    0 -0.00000000000E+00  0.00000000000E+00  0.56367223752E+03  0.56367223752E+03  0.00000000000E+00 0. -1.
         21   -1    0    0  501  502  0.00000000000E+00 -0.00000000000E+00 -0.37241377645E+03  0.37241377645E+03  0.00000000000E+00 0.  1.
         23    2    1    2    0    0 -0.41860838469E+02  0.27850896451E+02  0.54645976483E+03  0.55627348289E+03  0.91070911683E+02 0.  0.
        -24    2    1    2    0    0  0.63750578071E+02 -0.33028570571E+02 -0.25374973369E+03  0.27589722866E+03  0.81088413197E+02 0.  0.
         11    1    4    4    0    0  0.69996808519E+02 -0.12645973542E+00 -0.12942375680E+03  0.14713965482E+03  0.00000000000E+00 0. -1.
        -12    1    4    4    0    0 -0.62462304472E+01 -0.32902110836E+02 -0.12432597689E+03  0.12875757384E+03  0.00000000000E+00 0.  1.
        -13    1    3    3    0    0  0.22788274480E+02 -0.14156869728E+02  0.13052237216E+03  0.13325093639E+03  0.00000000000E+00 0.  1.
         13    1    3    3    0    0 -0.64649112949E+02  0.42007766179E+02  0.41593739267E+03  0.42302254650E+03  0.00000000000E+00 0. -1.
          2    1    1    2  501    0 -0.21889739602E+02  0.51776741204E+01 -0.10145157007E+03  0.10391530243E+03  0.00000000000E+00 0. -1.
<scales pt_clust_5="13000.00000" pt_clust_6="13000.00000" pt_clust_7="13000.00000" pt_clust_8="13000.00000" pt_clust_9="22.49375"></scales>
<clustering>
<clus scale="   22.494">  2  9  1 -1</clus>
<clus scale="   81.088">  5  6 -1 -1</clus>
<clus scale="   91.071">  7  8 -1 -1</clus>
<clus scale="   95.614">  2  5  1 -1</clus>
<clus scale="   22.494">  2  5  1 -1</clus>
</clustering>
</event>
<event>
 9    1  0.6296820E-005  0.1664162E+03  0.7546771E-02  0.1211347E+00
          3   -1    0    0  502    0 -0.00000000000E+00  0.00000000000E+00  0.11917482973E+03  0.11917482973E+03  0.00000000000E+00 0. -1.
         21   -1    0    0  501  502  0.00000000000E+00 -0.00000000000E+00 -0.32269732991E+03  0.32269732991E+03  0.00000000000E+00 0.  1.
        -24    2    1    2    0    0 -0.15039835599E+02 -0.42589381443E+02 -0.52957353677E+02  0.10180113278E+03  0.74289550137E+02 0.  0.
         23    2    1    2    0    0 -0.93615251886E+02  0.10962451183E+03 -0.10874640396E+03  0.20572652950E+03  0.98571170145E+02 0.  0.
         13    1    3    3    0    0 -0.42696652405E+02 -0.23839133041E+02 -0.14821218287E+02  0.51097719149E+02  0.00000000000E+00 0. -1.
        -14    1    3    3    0    0  0.27656816806E+02 -0.18750248402E+02 -0.38136135391E+02  0.50703413628E+02  0.00000000000E+00 0.  1.
        -11    1    4    4    0    0 -0.10490626841E+03  0.92932438081E+02 -0.59015633126E+02  0.15206777487E+03  0.00000000000E+00 0.  1.
         11    1    4    4    0    0  0.11291016526E+02  0.16692073753E+02 -0.49730770838E+02  0.53658754631E+02  0.00000000000E+00 0. -1.
          4    1    1    2  501    0  0.10865508749E+03 -0.67035130391E+02 -0.41818742545E+02  0.13434449736E+03  0.00000000000E+00 0. -1.
<scales pt_clust_5="13000.00000" pt_clust_6="13000.00000" pt_clust_7="13000.00000" pt_clust_8="13000.00000" pt_clust_9="134.08247"></scales>
<clustering>
<clus scale="   74.290">  5  6 -1 -1</clus>
<clus scale="   86.942">  1  5  2 -1</clus>
<clus scale="   98.571">  7  8 -1 -1</clus>
<clus scale="  134.082">  2  9  1 -1</clus>
<clus scale="  134.082">  2  5  1 -1</clus>
</clustering>
</event>
<event>
 9    1  0.6296820E-005  0.1063356E+03  0.7546771E-02  0.1278936E+00
         -2   -1    0    0    0  501 -0.00000000000E+00  0.00000000000E+00  0.22610830451E+03  0.22610830451E+03  0.00000000000E+00 0.  1.
         21   -1    0    0  501  502  0.00000000000E+00 -0.00000000000E+00 -0.13485983008E+03  0.13485983008E+03  0.00000000000E+00 0. -1.
         23    2    1    2    0    0 -0.23795286791E+02  0.24009755856E+02  0.80464116988E+01  0.10083845526E+03  0.94662375150E+02 0.  0.
        -24    2    1    2    0    0  0.70428602179E+02 -0.31956126345E+02 -0.52121658952E+02  0.11677584938E+03  0.70274815192E+02 0.  0.
         11    1    4    4    0    0  0.76384460567E+02 -0.39123791693E+02 -0.59882848594E+02  0.10464804082E+03  0.00000000000E+00 0. -1.
        -12    1    4    4    0    0 -0.59558583878E+01  0.71676653483E+01  0.77611896421E+01  0.12127808555E+02  0.00000000000E+00 0.  1.
        -11    1    3    3    0    0  0.35104098033E+02  0.20902386623E+02  0.90600900640E+01  0.41848449161E+02  0.00000000000E+00 0.  1.
         11    1    3    3    0    0 -0.58899384824E+02  0.31073692334E+01 -0.10136783652E+01  0.58990006103E+02  0.00000000000E+00 0. -1.
         -1    1    1    2    0  502 -0.46633315388E+02  0.79463704885E+01  0.13532372169E+03  0.14335382994E+03  0.00000000000E+00 0.  1.
<scales pt_clust_5="13000.00000" pt_clust_6="13000.00000" pt_clust_7="13000.00000" pt_clust_8="13000.00000" pt_clust_9="47.30553"></scales>
<clustering>
<clus scale="   47.306">  2  9  1 -1</clus>
<clus scale="   70.275">  5  6 -1 -1</clus>
<clus scale="   85.351">  2  5  1 -1</clus>
<clus scale="   94.662">  7  8 -1 -1</clus>
<clus scale="   47.306">  2  5  1 -1</clus>
</clustering>
</event>
<event>
 9    1  0.6296820E-005  0.1100089E+03  0.7546771E-02  0.1261844E+00
          1   -1    0    0  502    0 -0.00000000000E+00  0.00000000000E+00  0.27449405034E+03  0.27449405034E+03  0.00000000000E+00 0. -1.
         21   -1    0    0  501  502  0.00000000000E+00 -0.00000000000E+00 -0.99984922867E+02  0.99984922867E+02  0.00000000000E+00 0.  1.
         23    2    1    2    0    0 -0.29818787606E+02  0.58784487169E+02  0.21407405157E+03  0.24180320679E+03  0.91084110759E+02 0.  0.
        -24    2    1    2    0    0  0.18124982811E+02 -0.40553657154E+02 -0.14271924685E+02  0.99376456326E+02  0.87743251177E+02 0.  0.
         11    1    4    4    0    0  0.48147550876E+02 -0.35778006303E+01  0.38094644328E+01  0.48430355481E+02  0.00000000000E+00 0. -1.
        -12    1    4    4    0    0 -0.30022568065E+02 -0.36975856524E+02 -0.18081389118E+02  0.50946100845E+02  0.00000000000E+00 0.  1.
        -13    1    3    3    0    0  0.94662147750E+01  0.38460811864E+02  0.18424408175E+03  0.18845350867E+03  0.00000000000E+00 0. -1.
         13    1    3    3    0    0 -0.39285002381E+02  0.20323675305E+02  0.29829969825E+02  0.53349698122E+02  0.00000000000E+00 0.  1.
          2    1    1    2  501    0  0.11693804795E+02 -0.18230830015E+02 -0.25292999408E+02  0.33299310093E+02  0.00000000000E+00 0. -1.
<scales pt_clust_5="13000.00000" pt_clust_6="13000.00000" pt_clust_7="13000.00000" pt_clust_8="13000.00000" pt_clust_9="21.65891"></scales>
<clustering>
<clus scale="   21.659">  2  9  1 -1</clus>
<clus scale="   87.743">  5  6 -1 -1</clus>
<clus scale="   91.084">  7  8 -1 -1</clus>
<clus scale="  107.259">  2  5  1 -1</clus>
<clus scale="   21.659">  2  5  1 -1</clus>
</clustering>
</event>
<event>
 9    1  0.6296820E-005  0.9697315E+02  0.7546771E-02  0.1293419E+00
          1   -1    0    0  502    0 -0.00000000000E+00  0.00000000000E+00  0.12472349453E+03  0.12472349453E+03  0.00000000000E+00 0. -1.
         21   -1    0    0  501  502  0.00000000000E+00 -0.00000000000E+00 -0.14986662753E+03  0.14986662753E+03  0.00000000000E+00 0.  1.
         23    2    1    2    0    0  0.22368933159E+02 -0.35572331550E+02  0.36397091045E+02  0.10758879314E+03  0.92113192490E+02 0.  0.
        -24    2    1    2    0    0 -0.30201434011E+02 -0.69588887708E+01  0.67556346426E+01  0.86164597884E+02  0.80113335843E+02 0.  0.
         13    1    4    4    0    0 -0.36411754367E+02  0.26415598435E+02  0.20632583625E+02  0.49490435478E+02  0.00000000000E+00 0. -1.
        -14    1    4    4    0    0  0.62103203557E+01 -0.33374487206E+02 -0.13876948982E+02  0.36674162406E+02  0.00000000000E+00 0.  1.
        -13    1    3    3    0    0 -0.19723216943E+02 -0.12298941137E+02 -0.21951998358E+02  0.31971228809E+02  0.00000000000E+00 0.  1.
         13    1    3    3    0    0  0.42092150102E+02 -0.23273390413E+02  0.58349089402E+02  0.75617564333E+02  0.00000000000E+00 0. -1.
          2    1    1    2  501    0  0.78325008526E+01  0.42531220321E+02 -0.68295858685E+02  0.80836731039E+02  0.00000000000E+00 0. -1.
<scales pt_clust_5="13000.00000" pt_clust_6="13000.00000" pt_clust_7="13000.00000" pt_clust_8="13000.00000" pt_clust_9="43.24642"></scales>
<clustering>
<clus scale="   43.246">  2  9  1 -1</clus>
<clus scale="   80.113">  5  6 -1 -1</clus>
<clus scale="   85.657">  2  5  1 -1</clus>
<clus scale="   92.113">  7  8 -1 -1</clus>
<clus scale="   43.246">  2  5  1 -1</clus>
</clustering>
</event>
<event>
 9    1  0.6296820E-005  0.9666850E+02  0.7546771E-02  0.1291090E+00
          1   -1    0    0  502    0 -0.00000000000E+00  0.00000000000E+00  0.13683984241E+03  0.13683984241E+03  0.00000000000E+00 0. -1.
         21   -1    0    0  501  502  0.00000000000E+00 -0.00000000000E+00 -0.11592609514E+03  0.11592609514E+03  0.00000000000E+00 0.  1.
         23    2    1    2    0    0  0.20383950089E+02  0.38808035382E+02  0.73932350614E+02  0.12343665667E+03  0.88594845855E+02 0.  0.
        -24    2    1    2    0    0 -0.27670121807E+01 -0.22600009829E+02 -0.60657137087E+02  0.10420153144E+03  0.81610379701E+02 0.  0.
         11    1    4    4    0    0 -0.32609278014E+02  0.33163188293E+01 -0.11921628043E+01  0.32799149918E+02  0.00000000000E+00 0. -1.
        -12    1    4    4    0    0  0.29842265833E+02 -0.25916328658E+02 -0.59464974283E+02  0.71402381527E+02  0.00000000000E+00 0.  1.
        -11    1    3    3    0    0 -0.12233817419E+02  0.54722101151E+02  0.65413363429E+02  0.86157314015E+02  0.00000000000E+00 0.  1.
         11    1    3    3    0    0  0.32617767507E+02 -0.15914065769E+02  0.85189871842E+01  0.37279342659E+02  0.00000000000E+00 0. -1.
          2    1    1    2  501    0 -0.17616937908E+02 -0.16208025553E+02  0.76385337385E+01  0.25127749427E+02  0.00000000000E+00 0. -1.
<scales pt_clust_5="13000.00000" pt_clust_6="13000.00000" pt_clust_7="13000.00000" pt_clust_8="13000.00000" pt_clust_9="23.93861"></scales>
<clustering>
<clus scale="   23.939">  2  9  1 -1</clus>
<clus scale="   81.610">  5  6 -1 -1</clus>
<clus scale="   88.595">  7  8 -1 -1</clus>
<clus scale="   90.311">  2  5  1 -1</clus>
<clus scale="   23.939">  2  5  1 -1</clus>
</clustering>
</event>
<event>
 9    1  0.6296820E-005  0.1330234E+03  0.7546771E-02  0.1225074E+00
         -4   -1    0    0    0  501 -0.00000000000E+00  0.00000000000E+00  0.26651516418E+03  0.26651516418E+03  0.00000000000E+00 0.  1.
         21   -1    0    0  501  502  0.00000000000E+00 -0.00000000000E+00 -0.13868817258E+03  0.13868817258E+03  0.00000000000E+00 0.  1.
         23    2    1    2    0    0  0.54703354456E+02  0.28913717523E+02 -0.26671391533E+01  0.10836833029E+03  0.88927618486E+02 0.  0.
        -24    2    1    2    0    0 -0.75267668849E+02 -0.12372115883E+03  0.57187964203E+02  0.17524086184E+03  0.80416100965E+02 0.  0.
         11    1    4    4    0    0 -0.27876762678E+02 -0.36849193958E+02 -0.19394276068E+02  0.50111026102E+02  0.00000000000E+00 0. -1.
        -12    1    4    4    0    0 -0.47390906171E+02 -0.86871964870E+02  0.76582240271E+02  0.12512983574E+03  0.00000000000E+00 0.  1.
        -13    1    3    3    0    0  0.21290403889E+02  0.49839752208E+02 -0.28500403083E+02  0.61233611471E+02  0.00000000000E+00 0.  1.
         13    1    3    3    0    0  0.33412950566E+02 -0.20926034685E+02  0.25833263929E+02  0.47134718822E+02  0.00000000000E+00 0. -1.
         -3    1    1    2    0  502  0.20564314393E+02  0.94807441305E+02  0.73306166548E+02  0.12159414463E+03  0.00000000000E+00 0.  1.
<scales pt_clust_5="13000.00000" pt_clust_6="13000.00000" pt_clust_7="13000.00000" pt_clust_8="13000.00000" pt_clust_9="97.01212"></scales>
<clustering>
<clus scale="   80.416">  5  6 -1 -1</clus>
<clus scale="   88.928">  7  8 -1 -1</clus>
<clus scale="   97.012">  2  9  1 -1</clus>
<clus scale="  127.491">  2  5  1 -1</clus>
<clus scale="   97.012">  2  5  1 -1</clus>
</clustering>
</event>
<event>
 9    1  0.6296820E-005  0.1384624E+03  0.7546771E-02  0.1222851E+00
          1   -1    0    0  502    0 -0.00000000000E+00  0.00000000000E+00  0.46417317990E+03  0.46417317990E+03  0.00000000000E+00 0. -1.
         21   -1    0    0  501  502  0.00000000000E+00 -0.00000000000E+00 -0.13839390976E+03  0.13839390976E+03  0.00000000000E+00 0. -1.
         23    2    1    2    0    0 -0.58837803594E+02 -0.53392261912E+02  0.31957091065E+03  0.34660263583E+03  0.10814434552E+03 0.  0.
        -24    2    1    2    0    0  0.89594778099E+02  0.55613104961E+02  0.94080503324E+02  0.16283853216E+03  0.80902439671E+02 0.  0.
         11    1    4    4    0    0  0.47933774552E+02  0.28125719210E+02  0.98117015584E+02  0.11276369793E+03  0.00000000000E+00 0. -1.
        -12    1    4    4    0    0  0.41661003548E+02  0.27487385751E+02 -0.40365122601E+01  0.50074834231E+02  0.00000000000E+00 0.  1.
        -11    1    3    3    0    0 -0.94716776958E+01 -0.71696072061E+02  0.24405543151E+03  0.25454487439E+03  0.00000000000E+00 0.  1.
         11    1    3    3    0    0 -0.49366125898E+02  0.18303810149E+02  0.75515479138E+02  0.92057761441E+02  0.00000000000E+00 0. -1.
          2    1    1    2  501    0 -0.30756974506E+02 -0.22208430493E+01 -0.87872143836E+02  0.93125921671E+02  0.00000000000E+00 0. -1.
<scales pt_clust_5="13000.00000" pt_clust_6="13000.00000" pt_clust_7="13000.00000" pt_clust_8="13000.00000" pt_clust_9="30.83705"></scales>
<clustering>
<clus scale="   30.837">  2  9  1 -1</clus>
<clus scale="   80.902">  5  6 -1 -1</clus>
<clus scale="  108.144">  7  8 -1 -1</clus>
<clus scale="  118.414">  2  5  1 -1</clus>
<clus scale="   30.837">  2  5  1 -1</clus>
</clustering>
</event>
<event>
 9    1  0.6296820E-005  0.1283562E+03  0.7546771E-02  0.1233349E+00
         21   -1    0    0  501  502  0.00000000000E+00  0.00000000000E+00  0.15026631624E+03  0.15026631624E+03  0.00000000000E+00 0.  1.
          1   -1    0    0  502    0 -0.00000000000E+00 -0.00000000000E+00 -0.43673560704E+03  0.43673560704E+03  0.00000000000E+00 0. -1.
         23    2    1    2    0    0 -0.58938095421E+02 -0.79074826816E+02 -0.26977591154E+03  0.30192827164E+03  0.93032851401E+02 0.  0.
        -24    2    1    2    0    0  0.53247854281E+00  0.84025034987E+02 -0.11945455087E+03  0.16677073946E+03  0.80514593573E+02 0.  0.
         11    1    4    4    0    0 -0.22531851466E+02  0.18698561108E+02 -0.83979817527E+02  0.88937788762E+02  0.00000000000E+00 0. -1.
        -12    1    4    4    0    0  0.23064330009E+02  0.65326473879E+02 -0.35474733338E+02  0.77832950693E+02  0.00000000000E+00 0.  1.
        -11    1    3    3    0    0 -0.44408586833E+02 -0.94412940607E+02 -0.25667085907E+03  0.27706651879E+03  0.00000000000E+00 0. -1.
         11    1    3    3    0    0 -0.14529508588E+02  0.15338113791E+02 -0.13105052468E+02  0.24861752848E+02  0.00000000000E+00 0.  1.
          2    1    1    2  501    0  0.58405616879E+02 -0.49502081707E+01  0.10276117160E+03  0.11830291219E+03  0.00000000000E+00 0. -1.
<scales pt_clust_5="13000.00000" pt_clust_6="13000.00000" pt_clust_7="13000.00000" pt_clust_8="13000.00000" pt_clust_9="58.61502"></scales>
<clustering>
<clus scale="   58.615">  1  9  2 -1</clus>
<clus scale="   80.515">  5  6 -1 -1</clus>
<clus scale="   93.033">  7  8 -1 -1</clus>
<clus scale="  119.594">  1  5  2 -1</clus>
<clus scale="   58.615">  1  5  2 -1</clus>
</clustering>
</event>
<event>
 9    1  0.6296820E-005  0.9581383E+02  0.7546771E-02  0.1297066E+00
         -4   -1    0    0    0  501 -0.00000000000E+00  0.00000000000E+00  0.37982468785E+03  0.37982468785E+03  0.00000000000E+00 0.  1.
         21   -1    0    0  501  502  0.00000000000E+00 -0.00000000000E+00 -0.49225853160E+02  0.49225853160E+02  0.00000000000E+00 0.  1.
         23    2    1    2    0    0  0.33634550124E+02 -0.48475171244E+02  0.18761821828E+03  0.21741669278E+03  0.92673066646E+02 0.  0.
        -24    2    1    2    0    0 -0.49558206502E+01 -0.13194751065E+02  0.10914557184E+03  0.13567031037E+03  0.79341134667E+02 0.  0.
         11    1    4    4    0    0  0.14920334976E+02  0.28649767285E+02  0.30677790214E+02  0.44548315049E+02  0.00000000000E+00 0. -1.
        -12    1    4    4    0    0 -0.19876155626E+02 -0.41844518350E+02  0.78467781629E+02  0.91121995326E+02  0.00000000000E+00 0.  1.
        -11    1    3    3    0    0  0.34238353332E+02 -0.14136590875E+02  0.17791247702E+03  0.18172770158E+03  0.00000000000E+00 0.  1.
         11    1    3    3    0    0 -0.60380320855E+00 -0.34338580369E+02  0.97057412588E+01  0.35688991208E+02  0.00000000000E+00 0. -1.
         -3    1    1    2    0  502 -0.28678729474E+02  0.61669922309E+02  0.33835044566E+02  0.75963537849E+02  0.00000000000E+00 0.  1.
<scales pt_clust_5="13000.00000" pt_clust_6="13000.00000" pt_clust_7="13000.00000" pt_clust_8="13000.00000" pt_clust_9="68.01212"></scales>
<clustering>
<clus scale="   68.012">  2  9  1 -1</clus>
<clus scale="   79.341">  5  6 -1 -1</clus>
<clus scale="   82.988">  2  5  1 -1</clus>
<clus scale="   92.673">  7  8 -1 -1</clus>
<clus scale="   68.012">  2  5  1 -1</clus>
</clustering>
</event>
<event>
 9    1  0.6296820E-005  0.9064426E+02  0.7546771E-02  0.1307109E+00
         21   -1    0    0  501  502  0.00000000000E+00  0.00000000000E+00  0.22679041216E+03  0.22679041216E+03  0.00000000000E+00 0. -1.
         -4   -1    0    0    0  501 -0.00000000000E+00 -0.00000000000E+00 -0.87997445543E+02  0.87997445543E+02  0.00000000000E+00 0.  1.
        -24    2    1    2    0    0 -0.19057271476E+01  0.81594293164E+01 -0.38885411849E+02  0.90492036696E+02  0.81280534988E+02 0.  0.
         23    2    1    2    0    0  0.22825396467E+02  0.25681552027E+02  0.13298795125E+03  0.16446206074E+03  0.90451276427E+02 0.  0.
         13    1    3    3    0    0  0.33168142511E+02  0.21500546083E+02 -0.34946539056E+02  0.52760399463E+02  0.00000000000E+00 0. -1.
        -14    1    3    3    0    0 -0.35073869659E+02 -0.13341116767E+02 -0.39388727933E+01  0.37731637233E+02  0.00000000000E+00 0.  1.
        -11    1    4    4    0    0  0.23947825532E+01  0.51255062909E+02  0.11757227436E+03  0.12828116056E+03  0.00000000000E+00 0. -1.
         11    1    4    4    0    0  0.20430613914E+02 -0.25573510882E+02  0.15415676890E+02  0.36180900178E+02  0.00000000000E+00 0.  1.
         -3    1    1    2    0  502 -0.20919669319E+02 -0.33840981343E+02  0.44690427216E+02  0.59833760265E+02  0.00000000000E+00 0.  1.
<scales pt_clust_5="13000.00000" pt_clust_6="13000.00000" pt_clust_7="13000.00000" pt_clust_8="13000.00000" pt_clust_9="39.78498"></scales>
<clustering>
<clus scale="   39.785">  1  9  2 -1</clus>
<clus scale="   81.281">  5  6 -1 -1</clus>
<clus scale="   81.495">  2  5  1 -1</clus>
<clus scale="   90.451">  7  8 -1 -1</clus>
<clus scale="   39.785">  1  5  2 -1</clus>
</clustering>
</event>
<event>
 9    1  0.6296820E-005  0.9862438E+02  0.7546771E-02  0.1288168E+00
          3   -1    0    0  502    0 -0.00000000000E+00  0.00000000000E+00  0.11192753120E+03  0.11192753120E+03  0.00000000000E+00 0. -1.
         21   -1    0    0  501  502  0.00000000000E+00 -0.00000000000E+00 -0.16971929067E+03  0.16971929067E+03  0.00000000000E+00 0.  1.
         23    2    1    2    0    0  0.18719439854E+02  0.16059629831E+02  0.20618434868E+02  0.95935515613E+02  0.90389015709E+02 0.  0.
        -24    2    1    2    0    0 -0.75312691482E+02 -0.17178483230E+02 -0.50437252580E+02  0.12257230537E+03  0.80702861238E+02 0.  0.
         11    1    4    4    0    0 -0.41544087318E+02  0.90221189200E+01  0.14425873526E+02  0.44893380892E+02  0.00000000000E+00 0. -1.
        -12    1    4    4    0    0 -0.33768604164E+02 -0.26200602150E+02 -0.64863126105E+02  0.77678924480E+02  0.00000000000E+00 0.  1.
        -13    1    3    3    0    0 -0.17184877003E+02  0.43137615660E+02 -0.69635780854E-01  0.46434671654E+02  0.00000000000E+00 0. -1.
         13    1    3    3    0    0  0.35904316857E+02 -0.27077985829E+02  0.20688070649E+02  0.49500843959E+02  0.00000000000E+00 0.  1.
          4    1    1    2  501    0  0.56593251628E+02  0.11188533985E+01 -0.27972941757E+02  0.63139000890E+02  0.00000000000E+00 0. -1.
<scales pt_clust_5="13000.00000" pt_clust_6="13000.00000" pt_clust_7="13000.00000" pt_clust_8="13000.00000" pt_clust_9="56.60431"></scales>
<clustering>
<clus scale="   56.604">  2  9  1 -1</clus>
<clus scale="   80.703">  5  6 -1 -1</clus>
<clus scale="   89.831">  2  5  1 -1</clus>
<clus scale="   90.389">  7  8 -1 -1</clus>
<clus scale="   56.604">  2  5  1 -1</clus>
</clustering>
</event>
<event>
 9    1  0.6296820E-005  0.9250265E+02  0.7546771E-02  0.1303953E+00
          1   -1    0    0  502    0 -0.00000000000E+00  0.00000000000E+00  0.56339623698E+03  0.56339623698E+03  0.00000000000E+00 0. -1.
         21   -1    0    0  501  502  0.00000000000E+00 -0.00000000000E+00 -0.28206167098E+02  0.28206167098E+02  0.00000000000E+00 0. -1.
         23    2    1    2    0    0 -0.34532695599E+01  0.68113661723E+01  0.37582369993E+03  0.38709518938E+03  0.92417057040E+02 0.  0.
        -24    2    1    2    0    0 -0.69505592595E+00  0.23388302636E+02  0.15081686267E+03  0.17284773467E+03  0.81136412987E+02 0.  0.
         11    1    4    4    0    0 -0.73383465845E+01  0.37274218409E+02  0.23643882412E+02  0.44746529073E+02  0.00000000000E+00 0. -1.
        -12    1    4    4    0    0  0.66432906585E+01 -0.13885915773E+02  0.12717298026E+03  0.12810120560E+03  0.00000000000E+00 0.  1.
        -11    1    3    3    0    0  0.41251099627E+02  0.15809059489E+02  0.13665699891E+03  0.14362003667E+03  0.00000000000E+00 0.  1.
         11    1    3    3    0    0 -0.44704369187E+02 -0.89976933166E+01  0.23916670103E+03  0.24347515272E+03  0.00000000000E+00 0. -1.
          2    1    1    2  501    0  0.41483254858E+01 -0.30199668808E+02  0.85495072725E+01  0.31659480019E+02  0.00000000000E+00 0. -1.
<scales pt_clust_5="13000.00000" pt_clust_6="13000.00000" pt_clust_7="13000.00000" pt_clust_8="13000.00000" pt_clust_9="30.48325"></scales>
<clustering>
<clus scale="   30.483">  2  9  1 -1</clus>
<clus scale="   81.136">  5  6 -1 -1</clus>
<clus scale="   81.234">  2  5  1 -1</clus>
<clus scale="   92.417">  7  8 -1 -1</clus>
<clus scale="   30.483">  2  5  1 -1</clus>
</clustering>
</event>
<event>
 9    1  0.6296820E-005  0.9715580E+02  0.7546771E-02  0.1291569E+00
         21   -1    0    0  501  502  0.00000000000E+00  0.00000000000E+00  0.13467085278E+03  0.13467085278E+03  0.00000000000E+00 0.  1.
          1   -1    0    0  502    0 -0.00000000000E+00 -0.00000000000E+00 -0.11563917091E+03  0.11563917091E+03  0.00000000000E+00 0. -1.
        -24    2    1    2    0    0  0.42352241368E+02  0.13802267140E+01 -0.60735747297E+02  0.10892871925E+03  0.79881271287E+02 0.  0.
         23    2    1    2    0    0 -0.19449112221E+02 -0.84140273388E+01  0.57280297824E+02  0.10852253466E+03  0.89705318619E+02 0.  0.
         13    1    3    3    0    0  0.21953392011E+02 -0.13490220646E+02 -0.75436988520E+02  0.79716226145E+02  0.00000000000E+00 0. -1.
        -14    1    3    3    0    0  0.20398849357E+02  0.14870447360E+02  0.14701241223E+02  0.29212493103E+02  0.00000000000E+00 0.  1.
        -11    1    4    4    0    0  0.26439968889E+02  0.11758054862E+02  0.50138218396E+02  0.57889245573E+02  0.00000000000E+00 0.  1.
         11    1    4    4    0    0 -0.45889081111E+02 -0.20172082201E+02  0.71420794283E+01  0.50633289090E+02  0.00000000000E+00 0. -1.
          2    1    1    2  501    0 -0.22903129147E+02  0.70338006248E+01  0.22487131343E+02  0.32858769788E+02  0.00000000000E+00 0. -1.
<scales pt_clust_5="13000.00000" pt_clust_6="13000.00000" pt_clust_7="13000.00000" pt_clust_8="13000.00000" pt_clust_9="23.95887"></scales>
<clustering>
<clus scale="   23.959">  1  9  2 -1</clus>
<clus scale="   79.881">  5  6 -1 -1</clus>
<clus scale="   88.166">  2  5  1 -1</clus>
<clus scale="   89.705">  7  8 -1 -1</clus>
<clus scale="   23.959">  1  5  2 -1</clus>
</clustering>
</event>
<event>
 9    1  0.6296820E-005  0.9992960E+02  0.7546771E-02  0.1285820E+00
          1   -1    0    0  502    0 -0.00000000000E+00  0.00000000000E+00  0.26302103851E+03  0.26302103851E+03  0.00000000000E+00 0. -1.
         21   -1    0    0  501  502  0.00000000000E+00 -0.00000000000E+00 -0.44645986171E+02  0.44645986171E+02  0.00000000000E+00 0.  1.
         23    2    1    2    0    0 -0.10996489075E+02 -0.32947373156E+02  0.10913392185E+03  0.14667819646E+03  0.91639665261E+02 0.  0.
        -24    2    1    2    0    0 -0.67209882845E+01  0.46579665934E+02  0.99354683021E+02  0.13654521445E+03  0.80983983542E+02 0.  0.
         13    1    4    4    0    0 -0.24411991652E+02  0.30349458895E+02  0.10490644421E+03  0.11190351660E+03  0.00000000000E+00 0. -1.
        -14    1    4    4    0    0  0.17691003368E+02  0.16230207039E+02 -0.55517611887E+01  0.24641697851E+02  0.00000000000E+00 0.  1.
        -13    1    3    3    0    0  0.12408130173E+02  0.17357141776E+02 -0.30220566045E+01  0.21549127387E+02  0.00000000000E+00 0.  1.
         13    1    3    3    0    0 -0.23404619248E+02 -0.50304514932E+02  0.11215597845E+03  0.12512906907E+03  0.00000000000E+00 0. -1.
          2    1    1    2  501    0  0.17717477359E+02 -0.13632292777E+02  0.98864474719E+01  0.24443613766E+02  0.00000000000E+00 0. -1.
<scales pt_clust_5="13000.00000" pt_clust_6="13000.00000" pt_clust_7="13000.00000" pt_clust_8="13000.00000" pt_clust_9="22.35505"></scales>
<clustering>
<clus scale="   22.355">  2  9  1 -1</clus>
<clus scale="   80.984">  5  6 -1 -1</clus>
<clus scale="   90.258">  2  5  1 -1</clus>
<clus scale="   91.640">  7  8 -1 -1</clus>
<clus scale="   22.355">  2  5  1 -1</clus>
</clustering>
</event>
<event>
 9    1  0.6296820E-005  0.4267728E+03  0.7546771E-02  0.1078546E+00
         21   -1    0    0  501  502  0.00000000000E+00  0.00000000000E+00  0.70046518949E+03  0.70046518949E+03  0.00000000000E+00 0. -1.
          1   -1    0    0  502    0 -0.00000000000E+00 -0.00000000000E+00 -0.38831859481E+03  0.38831859481E+03  0.00000000000E+00 0. -1.
         23    2    1    2    0    0  0.36011816307E+02 -0.82557161707E+02  0.26594572914E+02  0.12752339398E+03  0.86269396898E+02 0.  0.
        -24    2    1    2    0    0 -0.32279041982E+03 -0.25426455554E+03  0.30553691543E+03  0.51843962227E+03  0.81133938108E+02 0.  0.
         13    1    4    4    0    0 -0.29696003928E+03 -0.24180865129E+03  0.25423009193E+03  0.45966251578E+03  0.00000000000E+00 0. -1.
        -14    1    4    4    0    0 -0.25830380539E+02 -0.12455904250E+02  0.51306823499E+02  0.58777106487E+02  0.00000000000E+00 0.  1.
        -11    1    3    3    0    0  0.60286634420E+02 -0.60986266400E+02  0.37038404400E+02  0.93411168388E+02  0.00000000000E+00 0.  1.
         11    1    3    3    0    0 -0.24274818113E+02 -0.21570895307E+02 -0.10443831486E+02  0.34112225593E+02  0.00000000000E+00 0. -1.
          2    1    1    2  501    0  0.28677860351E+03  0.33682171725E+03 -0.19984893668E+02  0.44282076805E+03  0.00000000000E+00 0. -1.
<scales pt_clust_5="13000.00000" pt_clust_6="13000.00000" pt_clust_7="13000.00000" pt_clust_8="13000.00000" pt_clust_9="418.98980"></scales>
<clustering>
<clus scale="   81.134">  5  6 -1 -1</clus>
<clus scale="   86.269">  7  8 -1 -1</clus>
<clus scale="  124.719">  2  7  1 -1</clus>
<clus scale="  418.990">  1  9  2 -1</clus>
<clus scale="  418.990">  1  5  2 -1</clus>
</clustering>
</event>
<event>
 9    1  0.6296820E-005  0.5430205E+03  0.7546771E-02  0.1029482E+00
         21   -1    0    0  501  502  0.00000000000E+00  0.00000000000E+00  0.65934489154E+03  0.65934489154E+03  0.00000000000E+00 0. -1.
          1   -1    0    0  502    0 -0.00000000000E+00 -0.00000000000E+00 -0.81626282317E+03  0.81626282317E+03  0.00000000000E+00 0. -1.
         23    2    1    2    0    0 -0.19895531238E+03  0.10659681326E+03 -0.26774516618E+03  0.36159289078E+03  0.90087999943E+02 0.  0.
        -24    2    1    2    0    0  0.42666300210E+03  0.37491352307E+03  0.21240152995E+02  0.57389553975E+03  0.79394453840E+02 0.  0.
         13    1    4    4    0    0  0.34713835144E+03  0.31308908356E+03  0.47274517357E+02  0.46985603037E+03  0.00000000000E+00 0. -1.
        -14    1    4    4    0    0  0.79524650667E+02  0.61824439506E+02 -0.26034364362E+02  0.10403950938E+03  0.00000000000E+00 0.  1.
        -11    1    3    3    0    0 -0.26428796702E+02 -0.82531669133E+01 -0.69398558645E+02  0.74717842590E+02  0.00000000000E+00 0.  1.
         11    1    3    3    0    0 -0.17252651567E+03  0.11484998018E+03 -0.19834660753E+03  0.28687504819E+03  0.00000000000E+00 0. -1.
          2    1    1    2  501    0 -0.22770768973E+03 -0.48151033633E+03  0.89587081544E+02  0.54011928417E+03  0.00000000000E+00 0. -1.
<scales pt_clust_5="13000.00000" pt_clust_6="13000.00000" pt_clust_7="13000.00000" pt_clust_8="13000.00000" pt_clust_9="537.18506"></scales>
<clustering>
<clus scale="   79.394">  5  6 -1 -1</clus>
<clus scale="   90.088">  7  8 -1 -1</clus>
<clus scale="  243.027">  2  7  1 -1</clus>
<clus scale="  537.185">  1  9  2 -1</clus>
<clus scale="  537.185">  1  5  2 -1</clus>
</clustering>
</event>
<event>
 9    1  0.6296820E-005  0.2172151E+03  0.7546771E-02  0.1136889E+00
         21   -1    0    0  501  502  0.00000000000E+00  0.00000000000E+00  0.20734338580E+03  0.20734338580E+03  0.00000000000E+00 0. -1.
          1   -1    0    0  502    0 -0.00000000000E+00 -0.00000000000E+00 -0.11317861638E+04  0.11317861638E+04  0.00000000000E+00 0. -1.
         23    2    1    2    0    0  0.16117962211E+03  0.11022875323E+03 -0.85668090348E+03  0.88349616330E+03  0.92379930533E+02 0.  0.
        -24    2    1    2    0    0 -0.67207128577E+02 -0.25315792159E+03 -0.76004821047E+02  0.28438058229E+03  0.80559613738E+02 0.  0.
         11    1    4    4    0    0 -0.42955578783E+02 -0.21467370657E+03 -0.90120831302E+02  0.23675250004E+03  0.00000000000E+00 0. -1.
        -12    1    4    4    0    0 -0.24251549795E+02 -0.38484215018E+02  0.14116010255E+02  0.47628082247E+02  0.00000000000E+00 0.  1.
        -13    1    3    3    0    0  0.87814731428E+02  0.62313550023E+01 -0.38600053211E+03  0.39591244945E+03  0.00000000000E+00 0.  1.
         13    1    3    3    0    0  0.73364890683E+02  0.10399739823E+03 -0.47068037137E+03  0.48758371385E+03  0.00000000000E+00 0. -1.
          2    1    1    2  501    0 -0.93972493533E+02  0.14292916836E+03  0.82429465347E+01  0.17125280400E+03  0.00000000000E+00 0. -1.
<scales pt_clust_5="13000.00000" pt_clust_6="13000.00000" pt_clust_7="13000.00000" pt_clust_8="13000.00000" pt_clust_9="171.05431"></scales>
<clustering>
<clus scale="   80.560">  5  6 -1 -1</clus>
<clus scale="   92.380">  7  8 -1 -1</clus>
<clus scale="  171.054">  1  9  2 -1</clus>
<clus scale="  212.458">  1  5  2 -1</clus>
<clus scale="  171.054">  1  5  2 -1</clus>
</clustering>
</event>
<event>
 9    1  0.6296820E-005  0.3393824E+03  0.7546771E-02  0.1067059E+00
         21   -1    0    0  501  502  0.00000000000E+00  0.00000000000E+00  0.18292347861E+03  0.18292347861E+03  0.00000000000E+00 0. -1.
          1   -1    0    0  502    0 -0.00000000000E+00 -0.00000000000E+00 -0.89286085618E+03  0.89286085618E+03  0.00000000000E+00 0. -1.
        -24    2    1    2    0    0  0.10666869363E+03  0.15792711269E+03 -0.46487456138E+03  0.50827285198E+03  0.76900917552E+02 0.  0.
         23    2    1    2    0    0  0.75218322290E+02  0.59925744479E+02 -0.25064682991E+03  0.28365599996E+03  0.91586036661E+02 0.  0.
         13    1    3    3    0    0  0.38775940633E+02  0.10970371034E+03 -0.20923415311E+03  0.23941054375E+03  0.00000000000E+00 0. -1.
        -14    1    3    3    0    0  0.67892752997E+02  0.48223402349E+02 -0.25564040827E+03  0.26886230823E+03  0.00000000000E+00 0.  1.
        -13    1    4    4    0    0 -0.11839774131E+02  0.29820799734E+02 -0.27551339522E+02  0.42291094308E+02  0.00000000000E+00 0.  1.
         13    1    4    4    0    0  0.87058096420E+02  0.30104944745E+02 -0.22309549039E+03  0.24136490566E+03  0.00000000000E+00 0. -1.
          2    1    1    2  501    0 -0.18188701592E+03 -0.21785285716E+03  0.55840137230E+01  0.28385548285E+03  0.00000000000E+00 0. -1.
<scales pt_clust_5="13000.00000" pt_clust_6="13000.00000" pt_clust_7="13000.00000" pt_clust_8="13000.00000" pt_clust_9="283.80055"></scales>
<clustering>
<clus scale="   76.901">  5  6 -1 -1</clus>
<clus scale="   91.586">  7  8 -1 -1</clus>
<clus scale="   96.124">  5  7 -1 -1</clus>
<clus scale="  283.801">  1  9  2 -1</clus>
<clus scale="  283.801">  1  5  2 -1</clus>
</clustering>
</event>
<event>
 9    1  0.6296820E-005  0.9804239E+02  0.7546771E-02  0.1288275E+00
         21   -1    0    0  501  502  0.00000000000E+00  0.00000000000E+00  0.13984999691E+03  0.13984999691E+03  0.00000000000E+00 0. -1.
          1   -1    0    0  502    0 -0.00000000000E+00 -0.00000000000E+00 -0.11582855126E+03  0.11582855126E+03  0.00000000000E+00 0. -1.
         23    2    1    2    0    0  0.14811481454E+02  0.11514630114E+02 -0.94463744015E+01  0.97257246878E+02  0.94961947070E+02 0.  0.
        -24    2    1    2    0    0  0.26796593071E+02 -0.43728915290E+02  0.27591456496E+02  0.10547298985E+03  0.87937407762E+02 0.  0.
         11    1    4    4    0    0  0.28967208644E+02  0.18765153127E+02  0.25488940878E+02  0.42905900009E+02  0.00000000000E+00 0. -1.
        -12    1    4    4    0    0 -0.21706155738E+01 -0.62494068417E+02  0.21025156185E+01  0.62567089842E+02  0.00000000000E+00 0.  1.
        -13    1    3    3    0    0  0.25917140422E+02 -0.91171603303E+01  0.36498138717E+02  0.45682982717E+02  0.00000000000E+00 0. -1.
         13    1    3    3    0    0 -0.11105658967E+02  0.20631790444E+02 -0.45944513118E+02  0.51574264161E+02  0.00000000000E+00 0.  1.
          2    1    1    2  501    0 -0.41608074525E+02  0.32214285176E+02  0.58763635580E+01  0.52948311434E+02  0.00000000000E+00 0. -1.
<scales pt_clust_5="13000.00000" pt_clust_6="13000.00000" pt_clust_7="13000.00000" pt_clust_8="13000.00000" pt_clust_9="52.62121"></scales>
<clustering>
<clus scale="   52.621">  1  9  2 -1</clus>
<clus scale="   87.937">  5  6 -1 -1</clus>
<clus scale="   91.255">  1  5  2 -1</clus>
<clus scale="   94.962">  7  8 -1 -1</clus>
<clus scale="   52.621">  1  5  2 -1</clus>
</clustering>
</event>
<event>
 9    1  0.6296820E-005  0.2677251E+03  0.7546771E-02  0.1103096E+00
          1   -1    0    0  502    0 -0.00000000000E+00  0.00000000000E+00  0.90057847940E+03  0.90057847940E+03  0.00000000000E+00 0. -1.
         21   -1    0    0  501  502  0.00000000000E+00 -0.00000000000E+00 -0.14279469856E+03  0.14279469856E+03  0.00000000000E+00 0. -1.
        -24    2    1    2    0    0 -0.29005045328E+03  0.21104310825E+02  0.31396338463E+03  0.43564514908E+03  0.81480253089E+02 0.  0.
         23    2    1    2    0    0  0.20450089217E+03  0.53026313007E+02  0.11029268622E+03  0.25551387508E+03  0.92143686484E+02 0.  0.
         13    1    3    3    0    0 -0.18408329518E+03  0.50797371236E+02  0.18180290850E+03  0.26366518547E+03  0.00000000000E+00 0. -1.
        -14    1    3    3    0    0 -0.10596715811E+03 -0.29693060412E+02  0.13216047613E+03  0.17197996362E+03  0.00000000000E+00 0.  1.
        -11    1    4    4    0    0  0.33521026198E+02 -0.15003842062E+02  0.49660873863E+02  0.61765499001E+02  0.00000000000E+00 0.  1.
         11    1    4    4    0    0  0.17097986597E+03  0.68030155069E+02  0.60631812358E+02  0.19374837608E+03  0.00000000000E+00 0. -1.
          2    1    1    2  501    0  0.85549561117E+02 -0.74130623832E+02  0.33352770999E+03  0.35221415378E+03  0.00000000000E+00 0. -1.
<scales pt_clust_5="13000.00000" pt_clust_6="13000.00000" pt_clust_7="13000.00000" pt_clust_8="13000.00000" pt_clust_9="113.19934"></scales>
<clustering>
<clus scale="   81.480">  5  6 -1 -1</clus>
<clus scale="   92.144">  7  8 -1 -1</clus>
<clus scale="  113.199">  2  9  1 -1</clus>
<clus scale="  264.245">  1  5  2 -1</clus>
<clus scale="  113.199">  2  5  1 -1</clus>
</clustering>
</event>
<event>
 9    1  0.6296820E-005  0.2324836E+03  0.7546771E-02  0.1124904E+00
         -2   -1    0    0    0  501 -0.00000000000E+00  0.00000000000E+00  0.10782506864E+03  0.10782506864E+03  0.00000000000E+00 0.  1.
         21   -1    0    0  501  502  0.00000000000E+00 -0.00000000000E+00 -0.52175742743E+03  0.52175742743E+03  0.00000000000E+00 0.  1.
        -24    2    1    2    0    0  0.38278394670E+02  0.92002731879E+02  0.77680678293E+01  0.12813322710E+03  0.80175076156E+02 0.  0.
         23    2    1    2    0    0 -0.19006162085E+02  0.28134215746E+02 -0.47189212120E+02  0.10766893057E+03  0.90625650762E+02 0.  0.
         11    1    3    3    0    0  0.32065179510E+02  0.47196909744E+01 -0.17791477197E+02  0.36972799201E+02  0.00000000000E+00 0. -1.
        -12    1    3    3    0    0  0.62132151602E+01  0.87283040905E+02  0.25559545026E+02  0.91160427896E+02  0.00000000000E+00 0.  1.
        -13    1    4    4    0    0 -0.57704616068E+00  0.52558052155E+02 -0.55014634309E+02  0.76087395912E+02  0.00000000000E+00 0.  1.
         13    1    4    4    0    0 -0.18429115924E+02 -0.24423836410E+02  0.78254221885E+01  0.31581534655E+02  0.00000000000E+00 0. -1.
         -1    1    1    2    0  502 -0.19272232585E+02 -0.12013694763E+03 -0.37451121450E+03  0.39378033841E+03  0.00000000000E+00 0.  1.
<scales pt_clust_5="13000.00000" pt_clust_6="13000.00000" pt_clust_7="13000.00000" pt_clust_8="13000.00000" pt_clust_9="121.67294"></scales>
<clustering>
<clus scale="   80.175">  5  6 -1 -1</clus>
<clus scale="   90.626">  7  8 -1 -1</clus>
<clus scale="   96.436">  5  7 -1 -1</clus>
<clus scale="  121.673">  2  9  1 -1</clus>
<clus scale="  121.673">  2  5  1 -1</clus>
</clustering>
</event>
<event>
 9    1  0.6296820E-005  0.9976369E+02  0.7546771E-02  0.1282150E+00
         21   -1    0    0  501  502  0.00000000000E+00  0.00000000000E+00  0.87744773267E+02  0.87744773267E+02  0.00000000000E+00 0. -1.
          1   -1    0    0  502    0 -0.00000000000E+00 -0.00000000000E+00 -0.28695451982E+03  0.28695451982E+03  0.00000000000E+00 0. -1.
         23    2    1    2    0    0 -0.49367878822E+01 -0.17679738944E+01 -0.76702840872E+02  0.11935404656E+03  0.91293838926E+02 0.  0.
        -24    2    1    2    0    0  0.16881724054E+02  0.83105877707E+02 -0.12226676621E+03  0.17313457956E+03  0.88514637225E+02 0.  0.
         13    1    4    4    0    0 -0.12735866659E+02  0.31675191914E+02  0.32496900095E+01  0.34294031078E+02  0.00000000000E+00 0. -1.
        -14    1    4    4    0    0  0.29617590713E+02  0.51430685792E+02 -0.12551645622E+03  0.13884054848E+03  0.00000000000E+00 0.  1.
        -13    1    3    3    0    0  0.21214748763E+02 -0.74035810534E+01  0.12854429545E+02  0.25886578307E+02  0.00000000000E+00 0.  1.
         13    1    3    3    0    0 -0.26151536646E+02  0.56356071590E+01 -0.89557270417E+02  0.93467468252E+02  0.00000000000E+00 0. -1.
          2    1    1    2  501    0 -0.11944936171E+02 -0.81337903812E+02 -0.24013947278E+00  0.82210666970E+02  0.00000000000E+00 0. -1.
<scales pt_clust_5="13000.00000" pt_clust_6="13000.00000" pt_clust_7="13000.00000" pt_clust_8="13000.00000" pt_clust_9="82.21032"></scales>
<clustering>
<clus scale="   82.210">  1  9  2 -1</clus>
<clus scale="   88.515">  5  6 -1 -1</clus>
<clus scale="   91.294">  7  8 -1 -1</clus>
<clus scale="   97.227">  1  5  2 -1</clus>
<clus scale="   82.210">  1  5  2 -1</clus>
</clustering>
</event>
<event>
 9    1  0.6296820E-005  0.9508828E+02  0.7546771E-02  0.1299756E+00
          1   -1    0    0  502    0 -0.00000000000E+00  0.00000000000E+00  0.71964535632E+02  0.71964535632E+02  0.00000000000E+00 0. -1.
         21   -1    0    0  501  502  0.00000000000E+00 -0.00000000000E+00 -0.31135068641E+03  0.31135068641E+03  0.00000000000E+00 0.  1.
         23    2    1    2    0    0  0.10761668764E+02 -0.50624040952E+01 -0.66794413615E+02  0.11629883787E+03  0.94458904024E+02 0.  0.
        -24    2    1    2    0    0  0.13409050205E+02 -0.44223228407E+02 -0.18843608752E+03  0.20988197541E+03  0.80042413543E+02 0.  0.
         11    1    4    4    0    0  0.12626834621E+02  0.19827702490E+02 -0.85239421082E+02  0.88421341570E+02  0.00000000000E+00 0. -1.
        -12    1    4    4    0    0  0.78221558410E+00 -0.64050930897E+02 -0.10319666644E+03  0.12146063384E+03  0.00000000000E+00 0.  1.
        -13    1    3    3    0    0 -0.10755613121E+02  0.23134539003E+02 -0.75569866772E+02  0.79760233653E+02  0.00000000000E+00 0.  1.
         13    1    3    3    0    0  0.21517281886E+02 -0.28196943099E+02  0.87754531564E+01  0.36538604215E+02  0.00000000000E+00 0. -1.
          2    1    1    2  501    0 -0.24170718969E+02  0.49285632503E+02  0.15844350354E+02  0.57134408764E+02  0.00000000000E+00 0. -1.
<scales pt_clust_5="13000.00000" pt_clust_6="13000.00000" pt_clust_7="13000.00000" pt_clust_8="13000.00000" pt_clust_9="54.89354"></scales>
<clustering>
<clus scale="   54.894">  2  9  1 -1</clus>
<clus scale="   80.042">  5  6 -1 -1</clus>
<clus scale="   80.784">  2  5  1 -1</clus>
<clus scale="   94.459">  7  8 -1 -1</clus>
<clus scale="   54.894">  2  5  1 -1</clus>
</clustering>
</event>
<event>
 9    1  0.6296820E-005  0.1130229E+03  0.7546771E-02  0.1257858E+00
          1   -1    0    0  502    0 -0.00000000000E+00  0.00000000000E+00  0.99248805462E+02  0.99248805462E+02  0.00000000000E+00 0. -1.
         21   -1    0    0  501  502  0.00000000000E+00 -0.00000000000E+00 -0.37924539678E+03  0.37924539678E+03  0.00000000000E+00 0. -1.
        -24    2    1    2    0    0  0.53279254628E+02  0.40900172838E+02  0.25351163661E+02  0.11136993130E+03  0.85141511532E+02 0.  0.
         23    2    1    2    0    0  0.39663573775E+01 -0.83666100385E+02 -0.14369126472E+03  0.19037924133E+03  0.92635455557E+02 0.  0.
         13    1    3    3    0    0  0.55363062230E+02  0.56684996256E+01  0.44463989673E+02  0.71233748498E+02  0.00000000000E+00 0. -1.
        -14    1    3    3    0    0 -0.20838076013E+01  0.35231673213E+02 -0.19112826012E+02  0.40136182799E+02  0.00000000000E+00 0.  1.
        -11    1    4    4    0    0 -0.32315480843E+02 -0.21990215929E+02 -0.12667548518E+02  0.41089252660E+02  0.00000000000E+00 0.  1.
         11    1    4    4    0    0  0.36281838220E+02 -0.61675884456E+02 -0.13102371621E+03  0.14928998867E+03  0.00000000000E+00 0. -1.
          2    1    1    2  501    0 -0.57245612006E+02  0.42765927546E+02 -0.16165649025E+03  0.17674502962E+03  0.00000000000E+00 0. -1.
<scales pt_clust_5="13000.00000" pt_clust_6="13000.00000" pt_clust_7="13000.00000" pt_clust_8="13000.00000" pt_clust_9="71.45617"></scales>
<clustering>
<clus scale="   71.456">  2  9  1 -1</clus>
<clus scale="   85.142">  5  6 -1 -1</clus>
<clus scale="   92.635">  7  8 -1 -1</clus>
<clus scale="  106.967">  1  5  2 -1</clus>
<clus scale="   71.456">  2  5  1 -1</clus>
</clustering>
</event>
<event>
 9    1  0.6296820E-005  0.1062871E+03  0.7546771E-02  0.1272878E+00
         21   -1    0    0  501  502  0.00000000000E+00  0.00000000000E+00  0.59879667035E+02  0.59879667035E+02  0.00000000000E+00 0. -1.
          1   -1    0    0  502    0 -0.00000000000E+00 -0.00000000000E+00 -0.62048942675E+03  0.62048942675E+03  0.00000000000E+00 0. -1.
         23    2    1    2    0    0  0.51932308990E+02  0.40257570174E+02 -0.47675865597E+03  0.48970572709E+03  0.90527600356E+02 0.  0.
        -24    2    1    2    0    0  0.25833008299E+02 -0.44047088043E+02 -0.46104445772E+02  0.10413813796E+03  0.78176988788E+02 0.  0.
         13    1    4    4    0    0  0.32765029692E+02 -0.51243918117E+02 -0.61038468548E+02  0.86169489713E+02  0.00000000000E+00 0. -1.
        -14    1    4    4    0    0 -0.69320213932E+01  0.71968300742E+01  0.14934022776E+02  0.17968648252E+02  0.00000000000E+00 0.  1.
        -13    1    3    3    0    0  0.44158552104E+02  0.65717940178E+02 -0.41450631044E+03  0.42200036348E+03  0.00000000000E+00 0. -1.
         13    1    3    3    0    0  0.77737568855E+01 -0.25460370004E+02 -0.62252345538E+02  0.67705363612E+02  0.00000000000E+00 0.  1.
          2    1    1    2  501    0 -0.77765317288E+02  0.37895178682E+01 -0.37746657966E+02  0.86525228727E+02  0.00000000000E+00 0. -1.
<scales pt_clust_5="13000.00000" pt_clust_6="13000.00000" pt_clust_7="13000.00000" pt_clust_8="13000.00000" pt_clust_9="77.85759"></scales>
<clustering>
<clus scale="   77.858">  1  9  2 -1</clus>
<clus scale="   78.177">  5  6 -1 -1</clus>
<clus scale="   90.528">  7  8 -1 -1</clus>
<clus scale="   95.986">  1  5  2 -1</clus>
<clus scale="   77.858">  1  5  2 -1</clus>
</clustering>
</event>
<event>
 9    1  0.6296820E-005  0.1408640E+03  0.7546771E-02  0.1235331E+00
         21   -1    0    0  501  502  0.00000000000E+00  0.00000000000E+00  0.99099833140E+02  0.99099833140E+02  0.00000000000E+00 0. -1.
          1   -1    0    0  502    0 -0.00000000000E+00 -0.00000000000E+00 -0.37396067318E+03  0.37396067318E+03  0.00000000000E+00 0. -1.
        -24    2    1    2    0    0  0.27023974015E+02  0.26280012308E+01 -0.44462867452E+02  0.97595425443E+02  0.82527079939E+02 0.  0.
         23    2    1    2    0    0 -0.33742265947E+01 -0.10018849731E+03 -0.23594076152E+03  0.27492611601E+03  0.99333810539E+02 0.  0.
         11    1    3    3    0    0  0.28974081511E+02 -0.28900978875E+02  0.24963544480E+01  0.40999948352E+02  0.00000000000E+00 0. -1.
        -12    1    3    3    0    0 -0.19501074959E+01  0.31528980105E+02 -0.46959221900E+02  0.56595477091E+02  0.00000000000E+00 0.  1.
        -11    1    4    4    0    0  0.38812084739E+02 -0.63519003628E+02 -0.18454756185E+03  0.19899458367E+03  0.00000000000E+00 0. -1.
         11    1    4    4    0    0 -0.42186311334E+02 -0.36669493685E+02 -0.51393199672E+02  0.75931532340E+02  0.00000000000E+00 0.  1.
          2    1    1    2  501    0 -0.23649747420E+02  0.97560496082E+02  0.55427889309E+01  0.10053896487E+03  0.00000000000E+00 0. -1.
<scales pt_clust_5="13000.00000" pt_clust_6="13000.00000" pt_clust_7="13000.00000" pt_clust_8="13000.00000" pt_clust_9="99.87726"></scales>
<clustering>
<clus scale="   82.527">  5  6 -1 -1</clus>
<clus scale="   86.879">  2  5  1 -1</clus>
<clus scale="   99.334">  7  8 -1 -1</clus>
<clus scale="   99.877">  1  9  2 -1</clus>
<clus scale="   99.877">  1  5  2 -1</clus>
</clustering>
</event>
<event>
 9    1  0.6296820E-005  0.1481772E+03  0.7546771E-02  0.1208487E+00
         21   -1    0    0  501  502  0.00000000000E+00  0.00000000000E+00  0.25053486842E+03  0.25053486842E+03  0.00000000000E+00 0. -1.
          1   -1    0    0  502    0 -0.00000000000E+00 -0.00000000000E+00 -0.36161641556E+03  0.36161641556E+03  0.00000000000E+00 0. -1.
         23    2    1    2    0    0  0.16116424704E+02 -0.92116241189E+02  0.23017005790E+02  0.13292708403E+03  0.91622519492E+02 0.  0.
        -24    2    1    2    0    0 -0.11578514335E+03 -0.39880291508E+02  0.11092392141E+03  0.18360121191E+03  0.80054054243E+02 0.  0.
         11    1    4    4    0    0 -0.90242716033E+02 -0.51924806976E+02  0.48032641261E+02  0.11466066458E+03  0.00000000000E+00 0. -1.
        -12    1    4    4    0    0 -0.25542427322E+02  0.12044515468E+02  0.62891280152E+02  0.68940547325E+02  0.00000000000E+00 0.  1.
        -11    1    3    3    0    0 -0.26024522418E+02  0.13967027384E+01 -0.51375207664E+01  0.26563521326E+02  0.00000000000E+00 0.  1.
         11    1    3    3    0    0  0.42140947122E+02 -0.93512943927E+02  0.28154526556E+02  0.10636356271E+03  0.00000000000E+00 0. -1.
          2    1    1    2  501    0  0.99668718650E+02  0.13199653270E+03 -0.24502247434E+03  0.29562298803E+03  0.00000000000E+00 0. -1.
<scales pt_clust_5="13000.00000" pt_clust_6="13000.00000" pt_clust_7="13000.00000" pt_clust_8="13000.00000" pt_clust_9="124.69097"></scales>
<clustering>
<clus scale="   80.054">  5  6 -1 -1</clus>
<clus scale="   91.623">  7  8 -1 -1</clus>
<clus scale="  130.919">  2  7  1 -1</clus>
<clus scale="  124.691">  1  9  2 -1</clus>
<clus scale="  124.691">  1  5  2 -1</clus>
</clustering>
</event>
<event>
 9    1  0.6296820E-005  0.1349937E+03  0.7546771E-02  0.1238015E+00
          1   -1    0    0  502    0 -0.00000000000E+00  0.00000000000E+00  0.14890217003E+03  0.14890217003E+03  0.00000000000E+00 0. -1.
         21   -1    0    0  501  502  0.00000000000E+00 -0.00000000000E+00 -0.24012316863E+03  0.24012316863E+03  0.00000000000E+00 0. -1.
         23    2    1    2    0    0 -0.31328472285E+02 -0.12002913834E+01 -0.60788945833E+01  0.93645469160E+02  0.88031852530E+02 0.  0.
        -24    2    1    2    0    0 -0.39168684141E+02 -0.88320889572E+02  0.35365620365E+02  0.12953053263E+03  0.78693496733E+02 0.  0.
         13    1    4    4    0    0 -0.45492778539E+02 -0.49649234258E+02  0.53831886203E+02  0.86212013860E+02  0.00000000000E+00 0. -1.
        -14    1    4    4    0    0  0.63240943975E+01 -0.38671655314E+02 -0.18466265838E+02  0.43318518773E+02  0.00000000000E+00 0.  1.
        -11    1    3    3    0    0  0.20180246406E+02 -0.24844029345E+02 -0.16514609280E+02  0.36016669180E+02  0.00000000000E+00 0.  1.
         11    1    3    3    0    0 -0.51508718691E+02  0.23643737962E+02  0.10435714697E+02  0.57628799981E+02  0.00000000000E+00 0. -1.
          2    1    1    2  501    0  0.70497156426E+02  0.89521180955E+02 -0.12050772438E+03  0.16584933687E+03  0.00000000000E+00 0. -1.
<scales pt_clust_5="13000.00000" pt_clust_6="13000.00000" pt_clust_7="13000.00000" pt_clust_8="13000.00000" pt_clust_9="109.68421"></scales>
<clustering>
<clus scale="   78.693">  5  6 -1 -1</clus>
<clus scale="   88.032">  7  8 -1 -1</clus>
<clus scale="   93.448">  1  7  2 -1</clus>
<clus scale="  109.684">  2  9  1 -1</clus>
<clus scale="  109.684">  2  5  1 -1</clus>
</clustering>
</event>
<event>
 9    1  0.6296820E-005  0.9065838E+02  0.7546771E-02  0.1307351E+00
          1   -1    0    0  502    0 -0.00000000000E+00  0.00000000000E+00  0.41888140417E+02  0.41888140417E+02  0.00000000000E+00 0. -1.
         21   -1    0    0  501  502  0.00000000000E+00 -0.00000000000E+00 -0.79601696377E+03  0.79601696377E+03  0.00000000000E+00 0.  1.
         23    2    1    2    0    0  0.38050859892E+01  0.37372838400E+01 -0.51301482145E+02  0.10430311354E+03  0.90657881364E+02 0.  0.
        -24    2    1    2    0    0  0.33534518967E+02  0.34213087798E+02 -0.65591195001E+03  0.66264051704E+03  0.81097899571E+02 0.  0.
         13    1    4    4    0    0  0.47994793243E+02  0.25857687760E+02 -0.22892002359E+03  0.23532211412E+03  0.00000000000E+00 0. -1.
        -14    1    4    4    0    0 -0.14460274275E+02  0.83554000382E+01 -0.42699192642E+03  0.42731840292E+03  0.00000000000E+00 0.  1.
        -11    1    3    3    0    0  0.28972002004E+02  0.28840587823E+02 -0.55040001746E+02  0.68560616963E+02  0.00000000000E+00 0. -1.
         11    1    3    3    0    0 -0.25166916015E+02 -0.25103303983E+02  0.37385196014E+01  0.35742496575E+02  0.00000000000E+00 0.  1.
          2    1    1    2  501    0 -0.37339604957E+02 -0.37950371638E+02 -0.46915391196E+02  0.70961473609E+02  0.00000000000E+00 0. -1.
<scales pt_clust_5="13000.00000" pt_clust_6="13000.00000" pt_clust_7="13000.00000" pt_clust_8="13000.00000" pt_clust_9="53.23983"></scales>
<clustering>
<clus scale="   53.240">  2  9  1 -1</clus>
<clus scale="   81.098">  5  6 -1 -1</clus>
<clus scale="   81.098">  2  5  1 -1</clus>
<clus scale="   90.658">  7  8 -1 -1</clus>
<clus scale="   53.240">  2  5  1 -1</clus>
</clustering>
</event>
<event>
 9    1  0.6296820E-005  0.1108802E+03  0.7546771E-02  0.1267390E+00
         21   -1    0    0  501  502  0.00000000000E+00  0.00000000000E+00  0.62424543765E+02  0.62424543765E+02  0.00000000000E+00 0. -1.
          3   -1    0    0  502    0 -0.00000000000E+00 -0.00000000000E+00 -0.23130852830E+03  0.23130852830E+03  0.00000000000E+00 0. -1.
        -24    2    1    2    0    0  0.83455843588E+01 -0.48869959984E+02 -0.93970497929E+02  0.13300033587E+03  0.80004456712E+02 0.  0.
         23    2    1    2    0    0 -0.35683868114E+02  0.40647183519E+02 -0.53706297504E+02  0.12516954341E+03  0.99285025223E+02 0.  0.
         11    1    3    3    0    0 -0.23009182680E+02 -0.17758821611E+02 -0.82347267233E+02  0.87326231187E+02  0.00000000000E+00 0. -1.
        -12    1    3    3    0    0  0.31354767039E+02 -0.31111138373E+02 -0.11623230696E+02  0.45674104685E+02  0.00000000000E+00 0.  1.
        -11    1    4    4    0    0  0.15298342762E+02  0.56578251630E+02 -0.36531244409E+02  0.69062795099E+02  0.00000000000E+00 0.  1.
         11    1    4    4    0    0 -0.50982210876E+02 -0.15931068111E+02 -0.17175053095E+02  0.56106748309E+02  0.00000000000E+00 0. -1.
          4    1    1    2  501    0  0.27338283755E+02  0.82227764651E+01 -0.21207189099E+02  0.35563192784E+02  0.00000000000E+00 0. -1.
<scales pt_clust_5="13000.00000" pt_clust_6="13000.00000" pt_clust_7="13000.00000" pt_clust_8="13000.00000" pt_clust_9="28.54815"></scales>
<clustering>
<clus scale="   28.548">  1  9  2 -1</clus>
<clus scale="   80.004">  5  6 -1 -1</clus>
<clus scale="   94.009">  2  5  1 -1</clus>
<clus scale="   99.285">  7  8 -1 -1</clus>
<clus scale="   28.548">  1  5  2 -1</clus>
</clustering>
</event>
<event>
 9    1  0.6296820E-005  0.1072568E+03  0.7546771E-02  0.1270673E+00
         21   -1    0    0  501  502  0.00000000000E+00  0.00000000000E+00  0.32803371668E+02  0.32803371668E+02  0.00000000000E+00 0. -1.
          1   -1    0    0  502    0 -0.00000000000E+00 -0.00000000000E+00 -0.88600828050E+03  0.88600828050E+03  0.00000000000E+00 0. -1.
         23    2    1    2    0    0 -0.53431478841E+02  0.27230722569E+02 -0.47318389125E+03  0.48574722028E+03  0.91928950250E+02 0.  0.
        -24    2    1    2    0    0  0.35019271785E+02 -0.39533305708E+02 -0.39487445417E+03  0.40640008305E+03  0.80286744161E+02 0.  0.
         11    1    4    4    0    0  0.19852225413E+01 -0.38390487427E+02 -0.70105681618E+02  0.79953594219E+02  0.00000000000E+00 0. -1.
        -12    1    4    4    0    0  0.33034049243E+02 -0.11428182805E+01 -0.32476877256E+03  0.32644648883E+03  0.00000000000E+00 0.  1.
        -13    1    3    3    0    0 -0.71360810076E+02  0.42955421777E+02 -0.40601459760E+03  0.41447000728E+03  0.00000000000E+00 0. -1.
         13    1    3    3    0    0  0.17929331234E+02 -0.15724699208E+02 -0.67169293650E+02  0.71277213001E+02  0.00000000000E+00 0.  1.
          2    1    1    2  501    0  0.18412207056E+02  0.12302583139E+02  0.14853436585E+02  0.26664348838E+02  0.00000000000E+00 0. -1.
<scales pt_clust_5="13000.00000" pt_clust_6="13000.00000" pt_clust_7="13000.00000" pt_clust_8="13000.00000" pt_clust_9="22.14414"></scales>
<clustering>
<clus scale="   22.144">  1  9  2 -1</clus>
<clus scale="   80.287">  5  6 -1 -1</clus>
<clus scale="   91.929">  7  8 -1 -1</clus>
<clus scale="   97.463">  1  5  2 -1</clus>
<clus scale="   22.144">  1  5  2 -1</clus>
</clustering>
</event>
<event>
 9    1  0.6296820E-005  0.2613318E+03  0.7546771E-02  0.1106762E+00
         21   -1    0    0  501  502  0.00000000000E+00  0.00000000000E+00  0.40117868112E+03  0.40117868112E+03  0.00000000000E+00 0. -1.
          1   -1    0    0  502    0 -0.00000000000E+00 -0.00000000000E+00 -0.31420258867E+03  0.31420258867E+03  0.00000000000E+00 0. -1.
         23    2    1    2    0    0 -0.37295854492E+02 -0.27868838400E+03  0.30207425661E+02  0.29720152686E+03  0.91422441785E+02 0.  0.
        -24    2    1    2    0    0  0.13380645849E+03  0.16887325531E+03  0.11157206397E+03  0.26204815896E+03  0.98987713703E+02 0.  0.
         11    1    4    4    0    0  0.65103398591E+02  0.44582093152E+02 -0.39156781367E+01  0.79002202964E+02  0.00000000000E+00 0. -1.
        -12    1    4    4    0    0  0.68703059895E+02  0.12429116216E+03  0.11548774211E+03  0.18304595599E+03  0.00000000000E+00 0.  1.
        -11    1    3    3    0    0 -0.42847294570E+02 -0.50201127328E+02 -0.39021951606E+01  0.66115587905E+02  0.00000000000E+00 0.  1.
         11    1    3    3    0    0  0.55514400775E+01 -0.22848725667E+03  0.34109620822E+02  0.23108593895E+03  0.00000000000E+00 0. -1.
          2    1    1    2  501    0 -0.96510603993E+02  0.10981512869E+03 -0.54803397178E+02  0.15613158398E+03  0.00000000000E+00 0. -1.
<scales pt_clust_5="13000.00000" pt_clust_6="13000.00000" pt_clust_7="13000.00000" pt_clust_8="13000.00000" pt_clust_9="146.19740"></scales>
<clustering>
<clus scale="   91.422">  7  8 -1 -1</clus>
<clus scale="   98.988">  5  6 -1 -1</clus>
<clus scale="  146.197">  1  9  2 -1</clus>
<clus scale="  258.561">  2  7  1 -1</clus>
<clus scale="  146.197">  1  5  2 -1</clus>
</clustering>
</event>
<event>
 9    1  0.6296820E-005  0.1083708E+03  0.7546771E-02  0.1267475E+00
          1   -1    0    0  502    0 -0.00000000000E+00  0.00000000000E+00  0.10885625250E+03  0.10885625250E+03  0.00000000000E+00 0. -1.
         21   -1    0    0  501  502  0.00000000000E+00 -0.00000000000E+00 -0.31532552346E+03  0.31532552346E+03  0.00000000000E+00 0. -1.
         23    2    1    2    0    0 -0.22574636487E+02  0.62554290186E+02  0.36780593372E+02  0.11874914673E+03  0.91246338925E+02 0.  0.
        -24    2    1    2    0    0 -0.35686567656E+02 -0.26732910699E+02 -0.20927615496E+03  0.22906672018E+03  0.81773306365E+02 0.  0.
         13    1    4    4    0    0 -0.61790245054E+02 -0.11599931236E+02 -0.13643119920E+03  0.15022005493E+03  0.00000000000E+00 0. -1.
        -14    1    4    4    0    0  0.26103677399E+02 -0.15132979463E+02 -0.72844955763E+02  0.78846665252E+02  0.00000000000E+00 0.  1.
        -11    1    3    3    0    0 -0.38533010699E+02  0.32087873268E+02 -0.18662993061E+02  0.53504502936E+02  0.00000000000E+00 0.  1.
         11    1    3    3    0    0  0.15958374212E+02  0.30466416919E+02  0.55443586433E+02  0.65244643795E+02  0.00000000000E+00 0. -1.
          2    1    1    2  501    0  0.58261204142E+02 -0.35821379487E+02 -0.33973709371E+02  0.76365909049E+02  0.00000000000E+00 0. -1.
<scales pt_clust_5="13000.00000" pt_clust_6="13000.00000" pt_clust_7="13000.00000" pt_clust_8="13000.00000" pt_clust_9="68.39257"></scales>
<clustering>
<clus scale="   68.393">  2  9  1 -1</clus>
<clus scale="   81.773">  5  6 -1 -1</clus>
<clus scale="   91.246">  7  8 -1 -1</clus>
<clus scale="  100.525">  2  5  1 -1</clus>
<clus scale="   68.393">  2  5  1 -1</clus>
</clustering>
</event>
<event>
 9    1  0.6296820E-005  0.9595707E+02  0.7546771E-02  0.1294290E+00
         21   -1    0    0  501  502  0.00000000000E+00  0.00000000000E+00  0.63671680879E+02  0.63671680879E+02  0.00000000000E+00 0.  1.
          1   -1    0    0  502    0 -0.00000000000E+00 -0.00000000000E+00 -0.25594763007E+03  0.25594763007E+03  0.00000000000E+00 0. -1.
         23    2    1    2    0    0 -0.23145180554E+02 -0.36764501292E+02 -0.17198206145E+03  0.19844060900E+03  0.88957955790E+02 0.  0.
        -24    2    1    2    0    0  0.94103630953E+01  0.19480747207E+02 -0.40236825233E+02  0.91428170501E+02  0.79196299226E+02 0.  0.
         13    1    4    4    0    0 -0.14606820550E+02 -0.14298942809E+02 -0.45275217177E+02  0.49675590208E+02  0.00000000000E+00 0. -1.
        -14    1    4    4    0    0  0.24017183645E+02  0.33779690016E+02  0.50383919441E+01  0.41752580294E+02  0.00000000000E+00 0.  1.
        -11    1    3    3    0    0 -0.46533199358E+02 -0.22636747786E+02 -0.16079287923E+03  0.16891450797E+03  0.00000000000E+00 0. -1.
         11    1    3    3    0    0  0.23388018804E+02 -0.14127753506E+02 -0.11189182223E+02  0.29526101021E+02  0.00000000000E+00 0.  1.
          2    1    1    2  501    0  0.13734817459E+02  0.17283754086E+02  0.19942937493E+02  0.29750531454E+02  0.00000000000E+00 0. -1.
<scales pt_clust_5="13000.00000" pt_clust_6="13000.00000" pt_clust_7="13000.00000" pt_clust_8="13000.00000" pt_clust_9="22.07653"></scales>
<clustering>
<clus scale="   22.077">  1  9  2 -1</clus>
<clus scale="   79.196">  5  6 -1 -1</clus>
<clus scale="   86.984">  1  5  2 -1</clus>
<clus scale="   88.958">  7  8 -1 -1</clus>
<clus scale="   22.077">  1  5  2 -1</clus>
</clustering>
</event>
<event>
 9    1  0.6296820E-005  0.3661266E+03  0.7546771E-02  0.1078879E+00
         21   -1    0    0  501  502  0.00000000000E+00  0.00000000000E+00  0.13866860713E+03  0.13866860713E+03  0.00000000000E+00 0. -1.
          1   -1    0    0  502    0 -0.00000000000E+00 -0.00000000000E+00 -0.16693838903E+04  0.16693838903E+04  0.00000000000E+00 0. -1.
        -24    2    1    2    0    0  0.16816229325E+03  0.60089875655E+02 -0.28407615132E+03  0.34499387545E+03  0.80200775074E+02 0.  0.
         23    2    1    2    0    0  0.18364665334E+03 -0.24015699140E+03 -0.83215901041E+03  0.89035671684E+03  0.94047811307E+02 0.  0.
         11    1    3    3    0    0  0.63037245591E+02  0.17334147041E+01 -0.45273017303E+02  0.77629537896E+02  0.00000000000E+00 0. -1.
        -12    1    3    3    0    0  0.10512504766E+03  0.58356460951E+02 -0.23880313401E+03  0.26736433755E+03  0.00000000000E+00 0.  1.
        -13    1    4    4    0    0  0.20644756961E+02 -0.85086640854E+02 -0.17362647557E+03  0.19445332464E+03  0.00000000000E+00 0.  1.
         13    1    4    4    0    0  0.16300189638E+03 -0.15507035055E+03 -0.65853253483E+03  0.69590339220E+03  0.00000000000E+00 0. -1.
          2    1    1    2  501    0 -0.35180894659E+03  0.18006711575E+03 -0.41448012144E+03  0.57270190514E+03  0.00000000000E+00 0. -1.
<scales pt_clust_5="13000.00000" pt_clust_6="13000.00000" pt_clust_7="13000.00000" pt_clust_8="13000.00000" pt_clust_9="353.84138"></scales>
<clustering>
<clus scale="   80.201">  5  6 -1 -1</clus>
<clus scale="   94.048">  7  8 -1 -1</clus>
<clus scale="  195.759">  2  5  1 -1</clus>
<clus scale="  353.841">  1  9  2 -1</clus>
<clus scale="  353.841">  1  5  2 -1</clus>
</clustering>
</event>
<event>
 9    1  0.6296820E-005  0.1017440E+03  0.7546771E-02  0.1281739E+00
          1   -1    0    0  502    0 -0.00000000000E+00  0.00000000000E+00  0.56580143740E+03  0.56580143740E+03  0.00000000000E+00 0. -1.
         21   -1    0    0  501  502  0.00000000000E+00 -0.00000000000E+00 -0.60970369330E+02  0.60970369330E+02  0.00000000000E+00 0. -1.
         23    2    1    2    0    0 -0.40104860013E+02 -0.14586173874E+01  0.36434408028E+03  0.37738679754E+03  0.89797877247E+02 0.  0.
        -24    2    1    2    0    0  0.63846765064E+02 -0.41912481325E+01  0.17778671503E+03  0.20481070395E+03  0.79027415755E+02 0.  0.
         11    1    4    4    0    0  0.29089831747E+02  0.15323811088E+02  0.15591418631E+03  0.15934324897E+03  0.00000000000E+00 0. -1.
        -12    1    4    4    0    0  0.34756933317E+02 -0.19515059220E+02  0.21872528711E+02  0.45467454978E+02  0.00000000000E+00 0.  1.
        -11    1    3    3    0    0 -0.61275244146E+02  0.18210627860E+02  0.30171479703E+03  0.30841222619E+03  0.00000000000E+00 0. -1.
         11    1    3    3    0    0  0.21170384133E+02 -0.19669245248E+02  0.62629283251E+02  0.68974571354E+02  0.00000000000E+00 0.  1.
          2    1    1    2  501    0 -0.23741905051E+02  0.56498655199E+01 -0.37299727240E+02  0.44574305244E+02  0.00000000000E+00 0. -1.
<scales pt_clust_5="13000.00000" pt_clust_6="13000.00000" pt_clust_7="13000.00000" pt_clust_8="13000.00000" pt_clust_9="24.40490"></scales>
<clustering>
<clus scale="   24.405">  2  9  1 -1</clus>
<clus scale="   79.027">  5  6 -1 -1</clus>
<clus scale="   89.798">  7  8 -1 -1</clus>
<clus scale="   92.377">  2  5  1 -1</clus>
<clus scale="   24.405">  2  5  1 -1</clus>
</clustering>
</event>
<event>
 9    1  0.6296820E-005  0.1181483E+03  0.7546771E-02  0.1254554E+00
         -4   -1    0    0    0  501 -0.00000000000E+00  0.00000000000E+00  0.18849650398E+03  0.18849650398E+03  0.00000000000E+00 0.  1.
         21   -1    0    0  501  502  0.00000000000E+00 -0.00000000000E+00 -0.15895449137E+03  0.15895449137E+03  0.00000000000E+00 0. -1.
         23    2    1    2    0    0 -0.27197375343E+02 -0.19463987240E+02 -0.59490413924E+02  0.11632708816E+03  0.94203705165E+02 0.  0.
        -24    2    1    2    0    0 -0.14258646547E+02 -0.73499116964E+02  0.31817390871E+02  0.11435789844E+03  0.80373835159E+02 0.  0.
         13    1    4    4    0    0 -0.46194961153E+02 -0.57714717530E+02  0.25353197903E+02  0.78152080582E+02  0.00000000000E+00 0. -1.
        -14    1    4    4    0    0  0.31936314605E+02 -0.15784399434E+02  0.64641929678E+01  0.36205817858E+02  0.00000000000E+00 0.  1.
        -11    1    3    3    0    0 -0.19099637408E+02  0.34157790157E+02 -0.46095093007E+02  0.60467415828E+02  0.00000000000E+00 0.  1.
         11    1    3    3    0    0 -0.80977379351E+01 -0.53621777397E+02 -0.13395320917E+02  0.55859672335E+02  0.00000000000E+00 0. -1.
         -3    1    1    2    0  502  0.41456021890E+02  0.92963104204E+02  0.57215035663E+02  0.11676600875E+03  0.00000000000E+00 0.  1.
<scales pt_clust_5="13000.00000" pt_clust_6="13000.00000" pt_clust_7="13000.00000" pt_clust_8="13000.00000" pt_clust_9="86.59714"></scales>
<clustering>
<clus scale="   80.374">  5  6 -1 -1</clus>
<clus scale="   94.204">  7  8 -1 -1</clus>
<clus scale="   99.964">  1  7  2 -1</clus>
<clus scale="   86.597">  2  9  1 -1</clus>
<clus scale="   86.597">  2  5  1 -1</clus>
</clustering>
</event>
<event>
 9    1  0.6296820E-005  0.1194721E+03  0.7546771E-02  0.1247012E+00
          1   -1    0    0  502    0 -0.00000000000E+00  0.00000000000E+00  0.39160084584E+03  0.39160084584E+03  0.00000000000E+00 0. -1.
         21   -1    0    0  501  502  0.00000000000E+00 -0.00000000000E+00 -0.60782662476E+02  0.60782662476E+02  0.00000000000E+00 0. -1.
        -24    2    1    2    0    0 -0.75232831744E+02  0.57029972282E+02  0.16899459598E+03  0.20961741270E+03  0.80423190228E+02 0.  0.
         23    2    1    2    0    0  0.12611674597E+02 -0.70933133595E+02  0.11847369904E+03  0.16534568464E+03  0.90070052097E+02 0.  0.
         13    1    3    3    0    0 -0.44563431366E+02  0.73302452090E+02  0.95733730787E+02  0.12854608554E+03  0.00000000000E+00 0. -1.
        -14    1    3    3    0    0 -0.30669400378E+02 -0.16272479809E+02  0.73260865194E+02  0.81071327161E+02  0.00000000000E+00 0.  1.
        -11    1    4    4    0    0  0.18138247427E+02  0.18268415719E+02  0.30909266610E+02  0.40225785200E+02  0.00000000000E+00 0.  1.
         11    1    4    4    0    0 -0.55265728293E+01 -0.89201549314E+02  0.87564432434E+02  0.12511989944E+03  0.00000000000E+00 0. -1.
          2    1    1    2  501    0  0.62621157147E+02  0.13903161313E+02  0.43349888339E+02  0.77420410978E+02  0.00000000000E+00 0. -1.
<scales pt_clust_5="13000.00000" pt_clust_6="13000.00000" pt_clust_7="13000.00000" pt_clust_8="13000.00000" pt_clust_9="64.14598"></scales>
<clustering>
<clus scale="   64.146">  2  9  1 -1</clus>
<clus scale="   80.423">  5  6 -1 -1</clus>
<clus scale="   90.070">  7  8 -1 -1</clus>
<clus scale="  112.378">  1  5  2 -1</clus>
<clus scale="   64.146">  2  5  1 -1</clus>
</clustering>
</event>
<event>
 9    1  0.9337949E-005  0.1016845E+03  0.7546771E-02  0.1280865E+00
         21   -1    0    0  501  502  0.00000000000E+00  0.00000000000E+00  0.25898980820E+03  0.25898980820E+03  0.00000000000E+00 0.  1.
          1   -1    0    0  502    0 -0.00000000000E+00 -0.00000000000E+00 -0.48094405940E+03  0.48094405940E+03  0.00000000000E+00 0. -1.
        -24    2    1    2    0    0  0.36898950144E+01  0.43480000653E+02 -0.32622444182E+03  0.33962430397E+03  0.83774432980E+02 0.  0.
         23    2    1    2    0    0 -0.57672894925E+01 -0.12266419491E+02  0.24186377493E+03  0.25920464644E+03  0.92223838770E+02 0.  0.
         13    1    3    3    0    0 -0.17953498825E+02 -0.17743258962E+02 -0.14352885689E+03  0.14573154812E+03  0.00000000000E+00 0. -1.
        -14    1    3    3    0    0  0.21643393839E+02  0.61223259614E+02 -0.18269558494E+03  0.19389275585E+03  0.00000000000E+00 0.  1.
        -13    1    4    4    0    0  0.26050045701E+02 -0.40426789596E+02  0.97469814938E+02  0.10868898298E+03  0.00000000000E+00 0.  1.
         13    1    4    4    0    0 -0.31817335194E+02  0.28160370106E+02  0.14439395999E+03  0.15051566345E+03  0.00000000000E+00 0. -1.
          2    1    1    2  501    0  0.20773944781E+01 -0.31213581162E+02 -0.13759358430E+03  0.14110491720E+03  0.00000000000E+00 0. -1.
<scales pt_clust_5="13000.00000" pt_clust_6="13000.00000" pt_clust_7="13000.00000" pt_clust_8="13000.00000" pt_clust_9="31.28265"></scales>
<clustering>
<clus scale="   31.283">  1  9  2 -1</clus>
<clus scale="   83.774">  5  6 -1 -1</clus>
<clus scale="   92.224">  7  8 -1 -1</clus>
<clus scale="   94.089">  2  5  1 -1</clus>
<clus scale="   31.283">  1  5  2 -1</clus>
</clustering>
</event>
<event>
 9    1  0.6296820E-005  0.1468465E+03  0.7546771E-02  0.1241075E+00
         21   -1    0    0  501  502  0.00000000000E+00  0.00000000000E+00  0.17162093812E+02  0.17162093812E+02  0.00000000000E+00 0. -1.
          1   -1    0    0  502    0 -0.00000000000E+00 -0.00000000000E+00 -0.18710868010E+04  0.18710868010E+04  0.00000000000E+00 0. -1.
        -24    2    1    2    0    0 -0.25177381383E+02 -0.88237339819E+01 -0.42400855974E+03  0.42946153208E+03  0.62786861586E+02 0.  0.
         23    2    1    2    0    0  0.60539611788E+02 -0.10061262598E+03 -0.49050201036E+03  0.51235948636E+03  0.90178023882E+02 0.  0.
         13    1    3    3    0    0 -0.42090684764E+02 -0.18663145799E+02 -0.23691833536E+03  0.24135085744E+03  0.00000000000E+00 0. -1.
        -14    1    3    3    0    0  0.16913303381E+02  0.98394118173E+01 -0.18709022438E+03  0.18811067464E+03  0.00000000000E+00 0.  1.
        -11    1    4    4    0    0 -0.19108909728E+02 -0.94379078680E+01 -0.34430202288E+02  0.40492756951E+02  0.00000000000E+00 0.  1.
         11    1    4    4    0    0  0.79648521516E+02 -0.91174718110E+02 -0.45607180807E+03  0.47186672941E+03  0.00000000000E+00 0. -1.
          2    1    1    2  501    0 -0.35362230405E+02  0.10943635996E+03 -0.93941413709E+03  0.94642787637E+03  0.00000000000E+00 0. -1.
<scales pt_clust_5="13000.00000" pt_clust_6="13000.00000" pt_clust_7="13000.00000" pt_clust_8="13000.00000" pt_clust_9="115.89579"></scales>
<clustering>
<clus scale="   62.787">  5  6 -1 -1</clus>
<clus scale="   68.220">  2  5  1 -1</clus>
<clus scale="   90.178">  7  8 -1 -1</clus>
<clus scale="  115.896">  1  9  2 -1</clus>
<clus scale="  115.896">  1  5  2 -1</clus>
</clustering>
</event>
<event>
 9    1  0.6296820E-005  0.2591503E+03  0.7546771E-02  0.1143205E+00
         21   -1    0    0  501  502  0.00000000000E+00  0.00000000000E+00  0.37063087985E+03  0.37063087985E+03  0.00000000000E+00 0. -1.
          1   -1    0    0  502    0 -0.00000000000E+00 -0.00000000000E+00 -0.30221233185E+03  0.30221233185E+03  0.00000000000E+00 0. -1.
         23    2    1    2    0    0 -0.33599361273E+02  0.12696361583E+02 -0.52522532760E+02  0.11958226582E+03  0.10124814653E+03 0.  0.
        -24    2    1    2    0    0 -0.93558059727E+02 -0.22685838143E+03 -0.34600401946E+02  0.25961569510E+03  0.77364627324E+02 0.  0.
         11    1    4    4    0    0 -0.20618987136E+02 -0.14967361440E+03 -0.18872130635E+02  0.15226125835E+03  0.00000000000E+00 0. -1.
        -12    1    4    4    0    0 -0.72939072590E+02 -0.77184767029E+02 -0.15728271311E+02  0.10735443675E+03  0.00000000000E+00 0.  1.
        -13    1    3    3    0    0  0.21079298444E+02  0.12917263721E+02 -0.59526734989E+02  0.64456378298E+02  0.00000000000E+00 0.  1.
         13    1    3    3    0    0 -0.54678659717E+02 -0.22090213843E+00  0.70042022290E+01  0.55125887521E+02  0.00000000000E+00 0. -1.
          2    1    1    2  501    0  0.12715742100E+03  0.21416201985E+03  0.15554148271E+03  0.29364525078E+03  0.00000000000E+00 0. -1.
<scales pt_clust_5="13000.00000" pt_clust_6="13000.00000" pt_clust_7="13000.00000" pt_clust_8="13000.00000" pt_clust_9="247.33301"></scales>
<clustering>
<clus scale="   77.365">  5  6 -1 -1</clus>
<clus scale="  101.248">  7  8 -1 -1</clus>
<clus scale="  107.430">  2  7  1 -1</clus>
<clus scale="  247.333">  1  9  2 -1</clus>
<clus scale="  247.333">  1  5  2 -1</clus>
</clustering>
</event>
<event>
 9    1  0.6296820E-005  0.2959036E+03  0.7546771E-02  0.1132951E+00
         21   -1    0    0  501  502  0.00000000000E+00  0.00000000000E+00  0.30040819661E+03  0.30040819661E+03  0.00000000000E+00 0. -1.
          1   -1    0    0  502    0 -0.00000000000E+00 -0.00000000000E+00 -0.42128005293E+03  0.42128005293E+03  0.00000000000E+00 0. -1.
         23    2    1    2    0    0 -0.51433146894E+01  0.12191654807E+02 -0.78913216091E+02  0.12158485166E+03  0.91545018146E+02 0.  0.
        -24    2    1    2    0    0 -0.27896055184E+03  0.40833288616E+02  0.48432151099E+02  0.29728803043E+03  0.80920657675E+02 0.  0.
         13    1    4    4    0    0 -0.22625166308E+03  0.55653441002E+02  0.15760680903E+02  0.23352841284E+03  0.00000000000E+00 0. -1.
        -14    1    4    4    0    0 -0.52708888760E+02 -0.14820152386E+02  0.32671470196E+02  0.63759617595E+02  0.00000000000E+00 0.  1.
        -13    1    3    3    0    0  0.24130710868E+02 -0.10461668514E+01  0.10677047782E+02  0.26408048421E+02  0.00000000000E+00 0.  1.
         13    1    3    3    0    0 -0.29274025557E+02  0.13237821659E+02 -0.89590263873E+02  0.95176803243E+02  0.00000000000E+00 0. -1.
          2    1    1    2  501    0  0.28410386653E+03 -0.53024943423E+02 -0.90390791327E+02  0.30281536744E+03  0.00000000000E+00 0. -1.
<scales pt_clust_5="13000.00000" pt_clust_6="13000.00000" pt_clust_7="13000.00000" pt_clust_8="13000.00000" pt_clust_9="284.62404"></scales>
<clustering>
<clus scale="   80.921">  5  6 -1 -1</clus>
<clus scale="   91.545">  7  8 -1 -1</clus>
<clus scale="   92.496">  2  7  1 -1</clus>
<clus scale="  284.624">  1  9  2 -1</clus>
<clus scale="  284.624">  1  5  2 -1</clus>
</clustering>
</event>
<event>
 9    1  0.6296820E-005  0.1021718E+03  0.7546771E-02  0.1284392E+00
         -2   -1    0    0    0  501 -0.00000000000E+00  0.00000000000E+00  0.26652195375E+03  0.26652195375E+03  0.00000000000E+00 0.  1.
         21   -1    0    0  501  502  0.00000000000E+00 -0.00000000000E+00 -0.10559701454E+03  0.10559701454E+03  0.00000000000E+00 0.  1.
        -24    2    1    2    0    0 -0.10942153592E+02  0.26004896847E+02  0.18215294685E+03  0.20114945937E+03  0.80532127588E+02 0.  0.
         23    2    1    2    0    0  0.58852014957E+02 -0.33870933749E+02 -0.97910506982E+00  0.11836487597E+03  0.96945785870E+02 0.  0.
         13    1    3    3    0    0 -0.26284318155E+02 -0.16972951931E+02  0.34357222305E+02  0.46468970321E+02  0.00000000000E+00 0. -1.
        -14    1    3    3    0    0  0.15342164563E+02  0.42977848778E+02  0.14779572455E+03  0.15468048905E+03  0.00000000000E+00 0.  1.
        -11    1    4    4    0    0  0.38582138220E+02  0.18015277721E+02 -0.33216385822E+02  0.54004258240E+02  0.00000000000E+00 0.  1.
         11    1    4    4    0    0  0.20269876737E+02 -0.51886211471E+02  0.32237280752E+02  0.64360617725E+02  0.00000000000E+00 0. -1.
         -1    1    1    2    0  502 -0.47909861366E+02  0.78660369021E+01 -0.20248902576E+02  0.52604632953E+02  0.00000000000E+00 0.  1.
<scales pt_clust_5="13000.00000" pt_clust_6="13000.00000" pt_clust_7="13000.00000" pt_clust_8="13000.00000" pt_clust_9="48.55131"></scales>
<clustering>
<clus scale="   48.551">  2  9  1 -1</clus>
<clus scale="   80.532">  5  6 -1 -1</clus>
<clus scale="   86.753">  1  5  2 -1</clus>
<clus scale="   96.946">  7  8 -1 -1</clus>
<clus scale="   48.551">  2  5  1 -1</clus>
</clustering>
</event>
<event>
 9    1  0.6296820E-005  0.1112241E+03  0.7546771E-02  0.1262119E+00
          1   -1    0    0  502    0 -0.00000000000E+00  0.00000000000E+00  0.49053941225E+02  0.49053941225E+02  0.00000000000E+00 0. -1.
         21   -1    0    0  501  502  0.00000000000E+00 -0.00000000000E+00 -0.41556994289E+03  0.41556994289E+03  0.00000000000E+00 0.  1.
         23    2    1    2    0    0 -0.49618888862E+02 -0.66569042763E+02 -0.10168444216E+03  0.15725132233E+03  0.86572403289E+02 0.  0.
        -24    2    1    2    0    0  0.17818602958E+02  0.40994390881E+02 -0.24802878989E+03  0.26324032788E+03  0.76020700563E+02 0.  0.
         13    1    4    4    0    0  0.23709451409E+02  0.52179551250E+02 -0.10474537541E+03  0.11940032380E+03  0.00000000000E+00 0. -1.
        -14    1    4    4    0    0 -0.58908484513E+01 -0.11185160369E+02 -0.14328341449E+03  0.14384000408E+03  0.00000000000E+00 0.  1.
        -11    1    3    3    0    0 -0.67260844438E+01 -0.75194425116E+02 -0.56009552422E+02  0.94002721998E+02  0.00000000000E+00 0. -1.
         11    1    3    3    0    0 -0.42892804418E+02  0.86253823534E+01 -0.45674889733E+02  0.63248600330E+02  0.00000000000E+00 0.  1.
          2    1    1    2  501    0  0.31800285904E+02  0.25574651882E+02 -0.16802769618E+02  0.44132233903E+02  0.00000000000E+00 0. -1.
<scales pt_clust_5="13000.00000" pt_clust_6="13000.00000" pt_clust_7="13000.00000" pt_clust_8="13000.00000" pt_clust_9="40.80837"></scales>
<clustering>
<clus scale="   40.808">  2  9  1 -1</clus>
<clus scale="   76.021">  5  6 -1 -1</clus>
<clus scale="   86.572">  7  8 -1 -1</clus>
<clus scale="  103.224">  2  5  1 -1</clus>
<clus scale="   40.808">  2  5  1 -1</clus>
</clustering>
</event>
<event>
 9    1  0.6296820E-005  0.1968393E+03  0.7546771E-02  0.1182544E+00
         21   -1    0    0  501  502  0.00000000000E+00  0.00000000000E+00  0.14767677258E+03  0.14767677258E+03  0.00000000000E+00 0. -1.
          1   -1    0    0  502    0 -0.00000000000E+00 -0.00000000000E+00 -0.61102384668E+03  0.61102384668E+03  0.00000000000E+00 0. -1.
         23    2    1    2    0    0  0.38283515428E+02 -0.17610304634E+02 -0.27342587626E+03  0.29064163719E+03  0.89079184295E+02 0.  0.
        -24    2    1    2    0    0 -0.91465803854E+02  0.16410488531E+03  0.20174103392E+02  0.20646950681E+03  0.83224131934E+02 0.  0.
         13    1    4    4    0    0 -0.57618801777E+02  0.66469288927E+02  0.46962856851E+02  0.99717614353E+02  0.00000000000E+00 0. -1.
        -14    1    4    4    0    0 -0.33847002077E+02  0.97635596381E+02 -0.26788753459E+02  0.10675189245E+03  0.00000000000E+00 0.  1.
        -13    1    3    3    0    0  0.56576174717E+02  0.16872566641E+02 -0.15044192931E+03  0.16161163679E+03  0.00000000000E+00 0. -1.
         13    1    3    3    0    0 -0.18292659290E+02 -0.34482871275E+02 -0.12298394695E+03  0.12903000040E+03  0.00000000000E+00 0.  1.
          2    1    1    2  501    0  0.53182288427E+02 -0.14649458067E+03 -0.21009530123E+03  0.26158947526E+03  0.00000000000E+00 0. -1.
<scales pt_clust_5="13000.00000" pt_clust_6="13000.00000" pt_clust_7="13000.00000" pt_clust_8="13000.00000" pt_clust_9="178.38013"></scales>
<clustering>
<clus scale="   83.224">  5  6 -1 -1</clus>
<clus scale="   89.079">  7  8 -1 -1</clus>
<clus scale="   98.544">  2  7  1 -1</clus>
<clus scale="  178.380">  1  9  2 -1</clus>
<clus scale="  178.380">  1  5  2 -1</clus>
</clustering>
</event>
<event>
 9    1  0.6296820E-005  0.9584063E+02  0.7546771E-02  0.1296036E+00
          1   -1    0    0  502    0 -0.00000000000E+00  0.00000000000E+00  0.33847204758E+03  0.33847204758E+03  0.00000000000E+00 0. -1.
         21   -1    0    0  501  502  0.00000000000E+00 -0.00000000000E+00 -0.49407390088E+02  0.49407390088E+02  0.00000000000E+00 0. -1.
         23    2    1    2    0    0  0.15991806904E+02  0.17338129602E+02  0.24141216636E+03  0.25926215659E+03  0.91546071166E+02 0.  0.
        -24    2    1    2    0    0 -0.17679565857E+02 -0.40066734596E+02  0.53021486651E+02  0.10520224043E+03  0.79613585996E+02 0.  0.
         11    1    4    4    0    0 -0.93804149701E+01 -0.60569745600E+02  0.18177403304E+02  0.63930464240E+02  0.00000000000E+00 0. -1.
        -12    1    4    4    0    0 -0.82991508872E+01  0.20503011005E+02  0.34844083347E+02  0.41271776192E+02  0.00000000000E+00 0.  1.
        -13    1    3    3    0    0  0.20907190542E+02 -0.34125323439E+02  0.13741308814E+03  0.14312234315E+03  0.00000000000E+00 0.  1.
         13    1    3    3    0    0 -0.49153836389E+01  0.51463453041E+02  0.10399907822E+03  0.11613981344E+03  0.00000000000E+00 0. -1.
          2    1    1    2  501    0  0.16877589538E+01  0.22728604994E+02 -0.53689955259E+01  0.23415040641E+02  0.00000000000E+00 0. -1.
<scales pt_clust_5="13000.00000" pt_clust_6="13000.00000" pt_clust_7="13000.00000" pt_clust_8="13000.00000" pt_clust_9="22.79118"></scales>
<clustering>
<clus scale="   22.791">  2  9  1 -1</clus>
<clus scale="   79.614">  5  6 -1 -1</clus>
<clus scale="   84.517">  2  5  1 -1</clus>
<clus scale="   91.546">  7  8 -1 -1</clus>
<clus scale="   22.791">  2  5  1 -1</clus>
</clustering>
</event>
<event>
 9    1  0.6296820E-005  0.1339862E+03  0.7546771E-02  0.1224499E+00
         21   -1    0    0  501  502  0.00000000000E+00  0.00000000000E+00  0.16029495892E+03  0.16029495892E+03  0.00000000000E+00 0. -1.
         -4   -1    0    0    0  501 -0.00000000000E+00 -0.00000000000E+00 -0.52808010620E+03  0.52808010620E+03  0.00000000000E+00 0.  1.
        -24    2    1    2    0    0 -0.10689016127E+03 -0.75771567155E+01 -0.46413609408E+03  0.48294456085E+03  0.79562649155E+02 0.  0.
         23    2    1    2    0    0  0.19107499358E+02  0.50764856217E+01  0.54245343661E+02  0.10803989434E+03  0.91319188687E+02 0.  0.
         11    1    3    3    0    0 -0.57625374106E+01 -0.29427810791E+02 -0.10762211705E+03  0.11172163158E+03  0.00000000000E+00 0. -1.
        -12    1    3    3    0    0 -0.10112762385E+03  0.21850654076E+02 -0.35651397704E+03  0.37122292927E+03  0.00000000000E+00 0.  1.
        -11    1    4    4    0    0  0.30341614504E+02 -0.37259446650E+02  0.18444323413E+02  0.51469146113E+02  0.00000000000E+00 0.  1.
         11    1    4    4    0    0 -0.11234115147E+02  0.42335932271E+02  0.35801020248E+02  0.56570748229E+02  0.00000000000E+00 0. -1.
         -3    1    1    2    0  502  0.87782661908E+02  0.25006710938E+01  0.42105603145E+02  0.97390609936E+02  0.00000000000E+00 0.  1.
<scales pt_clust_5="13000.00000" pt_clust_6="13000.00000" pt_clust_7="13000.00000" pt_clust_8="13000.00000" pt_clust_9="87.81827"></scales>
<clustering>
<clus scale="   79.563">  5  6 -1 -1</clus>
<clus scale="   87.818">  1  9  2 -1</clus>
<clus scale="   91.319">  7  8 -1 -1</clus>
<clus scale="  126.267">  2  5  1 -1</clus>
<clus scale="   87.818">  1  5  2 -1</clus>
</clustering>
</event>
<event>
 9    1  0.6296820E-005  0.1160356E+03  0.7546771E-02  0.1254723E+00
         21   -1    0    0  501  502  0.00000000000E+00  0.00000000000E+00  0.49803734876E+02  0.49803734876E+02  0.00000000000E+00 0. -1.
         -4   -1    0    0    0  501 -0.00000000000E+00 -0.00000000000E+00 -0.47027665495E+03  0.47027665495E+03  0.00000000000E+00 0.  1.
         23    2    1    2    0    0  0.49802449186E+02  0.34423405968E+02 -0.24135239001E+03  0.26590098887E+03  0.93739558871E+02 0.  0.
        -24    2    1    2    0    0 -0.47367422464E+02 -0.65288340710E+02 -0.19002114791E+03  0.22135567445E+03  0.79900299223E+02 0.  0.
         13    1    4    4    0    0 -0.14297918033E+01 -0.28014469837E+02 -0.68592552194E+01  0.28877399589E+02  0.00000000000E+00 0. -1.
        -14    1    4    4    0    0 -0.45937630661E+02 -0.37273870873E+02 -0.18316189269E+03  0.19247827486E+03  0.00000000000E+00 0.  1.
        -13    1    3    3    0    0  0.28136391597E+02 -0.29352054619E+02 -0.60316753586E+02  0.72741394031E+02  0.00000000000E+00 0.  1.
         13    1    3    3    0    0  0.21666057589E+02  0.63775460587E+02 -0.18103563642E+03  0.19315959484E+03  0.00000000000E+00 0. -1.
         -3    1    1    2    0  502 -0.24350267213E+01  0.30864934743E+02  0.10900617846E+02  0.32823726498E+02  0.00000000000E+00 0.  1.
<scales pt_clust_5="13000.00000" pt_clust_6="13000.00000" pt_clust_7="13000.00000" pt_clust_8="13000.00000" pt_clust_9="30.96084"></scales>
<clustering>
<clus scale="   30.961">  1  9  2 -1</clus>
<clus scale="   79.900">  5  6 -1 -1</clus>
<clus scale="   93.740">  7  8 -1 -1</clus>
<clus scale="  105.172">  1  5  2 -1</clus>
<clus scale="   30.961">  1  5  2 -1</clus>
</clustering>
</event>
<event>
 9    1  0.6296820E-005  0.1126018E+03  0.7546771E-02  0.1268173E+00
          1   -1    0    0  502    0 -0.00000000000E+00  0.00000000000E+00  0.21648207297E+03  0.21648207297E+03  0.00000000000E+00 0. -1.
         21   -1    0    0  501  502  0.00000000000E+00 -0.00000000000E+00 -0.19795707062E+03  0.19795707062E+03  0.00000000000E+00 0. -1.
         23    2    1    2    0    0  0.74819344538E+01 -0.14704230991E+02  0.11014471915E+03  0.15388858085E+03  0.10619624479E+03 0.  0.
        -24    2    1    2    0    0  0.11949837407E+02  0.96950139336E+02  0.11942578054E+02  0.12688257064E+03  0.80090158136E+02 0.  0.
         13    1    4    4    0    0  0.14329158639E+02  0.99564281163E+02  0.32742145498E+02  0.10578477661E+03  0.00000000000E+00 0. -1.
        -14    1    4    4    0    0 -0.23793212319E+01 -0.26141418270E+01 -0.20799567444E+02  0.21097794029E+02  0.00000000000E+00 0.  1.
        -11    1    3    3    0    0  0.64197612338E+01  0.30098498813E+02  0.10423735402E+03  0.10868559674E+03  0.00000000000E+00 0. -1.
         11    1    3    3    0    0  0.10621732199E+01 -0.44802729804E+02  0.59073651310E+01  0.45202984112E+02  0.00000000000E+00 0.  1.
          2    1    1    2  501    0 -0.19431771861E+02 -0.82245908345E+02 -0.10356229485E+03  0.13366799210E+03  0.00000000000E+00 0. -1.
<scales pt_clust_5="13000.00000" pt_clust_6="13000.00000" pt_clust_7="13000.00000" pt_clust_8="13000.00000" pt_clust_9="84.51025"></scales>
<clustering>
<clus scale="   80.090">  5  6 -1 -1</clus>
<clus scale="   84.510">  2  9  1 -1</clus>
<clus scale="   88.408">  2  5  1 -1</clus>
<clus scale="  106.196">  7  8 -1 -1</clus>
<clus scale="   84.510">  2  5  1 -1</clus>
</clustering>
</event>
<event>
 9    1  0.6296820E-005  0.1168799E+03  0.7546771E-02  0.1252402E+00
          3   -1    0    0  502    0 -0.00000000000E+00  0.00000000000E+00  0.41092720801E+02  0.41092720801E+02  0.00000000000E+00 0. -1.
         21   -1    0    0  501  502  0.00000000000E+00 -0.00000000000E+00 -0.73053849569E+03  0.73053849569E+03  0.00000000000E+00 0. -1.
        -24    2    1    2    0    0  0.55592335637E+02  0.33710464476E+02 -0.83124109162E+02  0.13227125448E+03  0.79744366837E+02 0.  0.
         23    2    1    2    0    0 -0.10257568431E+03 -0.92572032950E+01 -0.32415651895E+03  0.35226665471E+03  0.91689042004E+02 0.  0.
         13    1    3    3    0    0  0.72550357532E+02  0.41551726965E+02 -0.73162087774E+02  0.11109811645E+03  0.00000000000E+00 0. -1.
        -14    1    3    3    0    0 -0.16958021895E+02 -0.78412624895E+01 -0.99620213887E+01  0.21173138033E+02  0.00000000000E+00 0.  1.
        -11    1    4    4    0    0 -0.67822530415E+02 -0.28945782861E+02 -0.29147257748E+03  0.30065597848E+03  0.00000000000E+00 0.  1.
         11    1    4    4    0    0 -0.34753153893E+02  0.19688579566E+02 -0.32683941468E+02  0.51610676228E+02  0.00000000000E+00 0. -1.
          4    1    1    2  501    0  0.46983348671E+02 -0.24453261181E+02 -0.28216514679E+03  0.28709330730E+03  0.00000000000E+00 0. -1.
<scales pt_clust_5="13000.00000" pt_clust_6="13000.00000" pt_clust_7="13000.00000" pt_clust_8="13000.00000" pt_clust_9="52.96600"></scales>
<clustering>
<clus scale="   52.966">  2  9  1 -1</clus>
<clus scale="   79.744">  5  6 -1 -1</clus>
<clus scale="   91.689">  7  8 -1 -1</clus>
<clus scale="  107.765">  1  5  2 -1</clus>
<clus scale="   52.966">  2  5  1 -1</clus>
</clustering>
</event>
<event>
 9    1  0.6296820E-005  0.1252350E+03  0.7546771E-02  0.1237848E+00
          1   -1    0    0  502    0 -0.00000000000E+00  0.00000000000E+00  0.11561959786E+04  0.11561959786E+04  0.00000000000E+00 0. -1.
         21   -1    0    0  501  502  0.00000000000E+00 -0.00000000000E+00 -0.18490880147E+02  0.18490880147E+02  0.00000000000E+00 0. -1.
        -24    2    1    2    0    0  0.27975663878E+02 -0.99207745478E+02  0.65985730820E+03  0.67269292546E+03  0.80494038594E+02 0.  0.
         23    2    1    2    0    0 -0.20996830224E+02  0.56570397159E+02  0.31548128242E+03  0.33397747440E+03  0.91495557996E+02 0.  0.
         11    1    3    3    0    0  0.41424618774E+02 -0.92186916104E+02  0.40627315540E+03  0.41865535150E+03  0.00000000000E+00 0. -1.
        -12    1    3    3    0    0 -0.13448954896E+02 -0.70208293742E+01  0.25358415280E+03  0.25403757396E+03  0.00000000000E+00 0.  1.
        -11    1    4    4    0    0 -0.55130622230E+02  0.20122175433E+02  0.14804057817E+03  0.15924917657E+03  0.00000000000E+00 0. -1.
         11    1    4    4    0    0  0.34133792005E+02  0.36448221726E+02  0.16744070425E+03  0.17472829783E+03  0.00000000000E+00 0.  1.
          2    1    1    2  501    0 -0.69788336536E+01  0.42637348319E+02  0.16236650781E+03  0.16801645886E+03  0.00000000000E+00 0. -1.
<scales pt_clust_5="13000.00000" pt_clust_6="13000.00000" pt_clust_7="13000.00000" pt_clust_8="13000.00000" pt_clust_9="43.20472"></scales>
<clustering>
<clus scale="   43.205">  2  9  1 -1</clus>
<clus scale="   80.494">  5  6 -1 -1</clus>
<clus scale="   91.496">  7  8 -1 -1</clus>
<clus scale="  117.438">  1  5  2 -1</clus>
<clus scale="   43.205">  2  5  1 -1</clus>
</clustering>
</event>
<event>
 9    1  0.6296820E-005  0.1016199E+03  0.7546771E-02  0.1281952E+00
          1   -1    0    0  502    0 -0.00000000000E+00  0.00000000000E+00  0.59052408794E+03  0.59052408794E+03  0.00000000000E+00 0. -1.
         21   -1    0    0  501  502  0.00000000000E+00 -0.00000000000E+00 -0.29624966739E+02  0.29624966739E+02  0.00000000000E+00 0. -1.
         23    2    1    2    0    0 -0.39571714816E+02  0.30292528354E+02  0.29183427868E+03  0.30992920828E+03  0.91680477987E+02 0.  0.
        -24    2    1    2    0    0  0.45710252144E+02  0.17836401947E+02  0.11740114128E+03  0.15098431693E+03  0.81275282828E+02 0.  0.
         11    1    4    4    0    0  0.21891792791E+02  0.37115801421E+02  0.17534289711E+02  0.46521872516E+02  0.00000000000E+00 0. -1.
        -12    1    4    4    0    0  0.23818459352E+02 -0.19279399474E+02  0.99866851571E+02  0.10446244441E+03  0.00000000000E+00 0.  1.
        -11    1    3    3    0    0 -0.39190424686E+01  0.53150924410E+02  0.98328235485E+02  0.11184284310E+03  0.00000000000E+00 0.  1.
         11    1    3    3    0    0 -0.35652672347E+02 -0.22858396056E+02  0.19350604320E+03  0.19808636518E+03  0.00000000000E+00 0. -1.
          2    1    1    2  501    0 -0.61385373278E+01 -0.48128930301E+02  0.15166370123E+03  0.15923552947E+03  0.00000000000E+00 0. -1.
<scales pt_clust_5="13000.00000" pt_clust_6="13000.00000" pt_clust_7="13000.00000" pt_clust_8="13000.00000" pt_clust_9="48.51884"></scales>
<clustering>
<clus scale="   48.519">  2  9  1 -1</clus>
<clus scale="   81.275">  5  6 -1 -1</clus>
<clus scale="   91.680">  7  8 -1 -1</clus>
<clus scale="   92.342">  2  5  1 -1</clus>
<clus scale="   48.519">  2  5  1 -1</clus>
</clustering>
</event>
<event>
 9    1  0.6296820E-005  0.9640463E+02  0.7546771E-02  0.1292695E+00
         21   -1    0    0  501  502  0.00000000000E+00  0.00000000000E+00  0.22692993624E+02  0.22692993624E+02  0.00000000000E+00 0. -1.
          1   -1    0    0  502    0 -0.00000000000E+00 -0.00000000000E+00 -0.49442295482E+03  0.49442295482E+03  0.00000000000E+00 0. -1.
        -24    2    1    2    0    0 -0.28374833322E+02 -0.39866633581E+02 -0.25243720812E+03  0.26943136214E+03  0.80462632465E+02 0.  0.
         23    2    1    2    0    0  0.48736704075E+02  0.36265205005E+02 -0.16345174075E+03  0.18813801020E+03  0.70632909527E+02 0.  0.
         13    1    3    3    0    0 -0.18721220731E+02  0.23470777105E+02 -0.85877428593E+02  0.90974140421E+02  0.00000000000E+00 0. -1.
        -14    1    3    3    0    0 -0.96536125912E+01 -0.63337410685E+02 -0.16655977953E+03  0.17845722172E+03  0.00000000000E+00 0.  1.
        -11    1    4    4    0    0  0.28270143016E+02  0.73436072967E+01 -0.10346698107E+02  0.30986831332E+02  0.00000000000E+00 0.  1.
         11    1    4    4    0    0  0.20466561059E+02  0.28921597708E+02 -0.15310504265E+03  0.15715117887E+03  0.00000000000E+00 0. -1.
          2    1    1    2  501    0 -0.20361870753E+02  0.36014285759E+01 -0.55841012326E+02  0.59546576106E+02  0.00000000000E+00 0. -1.
<scales pt_clust_5="13000.00000" pt_clust_6="13000.00000" pt_clust_7="13000.00000" pt_clust_8="13000.00000" pt_clust_9="20.67792"></scales>
<clustering>
<clus scale="   20.678">  1  9  2 -1</clus>
<clus scale="   70.633">  7  8 -1 -1</clus>
<clus scale="   80.463">  5  6 -1 -1</clus>
<clus scale="   88.366">  1  7  2 -1</clus>
<clus scale="   20.678">  1  5  2 -1</clus>
</clustering>
</event>
<event>
 9    1  0.6296820E-005  0.9076616E+02  0.7546771E-02  0.1306722E+00
         21   -1    0    0  501  502  0.00000000000E+00  0.00000000000E+00  0.22149773453E+03  0.22149773453E+03  0.00000000000E+00 0.  1.
         -2   -1    0    0    0  501 -0.00000000000E+00 -0.00000000000E+00 -0.10719624839E+03  0.10719624839E+03  0.00000000000E+00 0.  1.
         23    2    1    2    0    0  0.61300371607E+01 -0.36385559459E+02 -0.31267093844E+02  0.10100980593E+03  0.88678427162E+02 0.  0.
        -24    2    1    2    0    0 -0.17705817789E+02 -0.43961327719E+02  0.91842662769E+02  0.13033894004E+03  0.79417065345E+02 0.  0.
         13    1    4    4    0    0  0.14621106912E+02  0.14272683094E+02  0.52545323796E+01  0.21097306950E+02  0.00000000000E+00 0. -1.
        -14    1    4    4    0    0 -0.32326924701E+02 -0.58234010813E+02  0.86588130389E+02  0.10924163309E+03  0.00000000000E+00 0.  1.
        -13    1    3    3    0    0 -0.38368861032E+02 -0.22562362127E+02  0.67509147374E+00  0.44516125507E+02  0.00000000000E+00 0.  1.
         13    1    3    3    0    0  0.44498898193E+02 -0.13823197332E+02 -0.31942185318E+02  0.56493680423E+02  0.00000000000E+00 0. -1.
         -1    1    1    2    0  502  0.11575780628E+02  0.80346887178E+02  0.53725917211E+02  0.97345236948E+02  0.00000000000E+00 0.  1.
<scales pt_clust_5="13000.00000" pt_clust_6="13000.00000" pt_clust_7="13000.00000" pt_clust_8="13000.00000" pt_clust_9="81.17648"></scales>
<clustering>
<clus scale="   79.417">  5  6 -1 -1</clus>
<clus scale="   81.176">  1  9  2 -1</clus>
<clus scale="   81.742">  1  5  2 -1</clus>
<clus scale="   88.678">  7  8 -1 -1</clus>
<clus scale="   81.176">  1  5  2 -1</clus>
</clustering>
</event>
<event>
 9    1  0.6296820E-005  0.1037974E+03  0.7546771E-02  0.1277258E+00
          1   -1    0    0  502    0 -0.00000000000E+00  0.00000000000E+00  0.41014128948E+03  0.41014128948E+03  0.00000000000E+00 0. -1.
         21   -1    0    0  501  502  0.00000000000E+00 -0.00000000000E+00 -0.40971074069E+02  0.40971074069E+02  0.00000000000E+00 0. -1.
        -24    2    1    2    0    0 -0.11421488213E+02 -0.35674760530E+02  0.14884240958E+03  0.17362021391E+03  0.81158960415E+02 0.  0.
         23    2    1    2    0    0  0.56387372504E+02  0.49599138028E+02  0.13146796626E+03  0.17693425524E+03  0.91554870175E+02 0.  0.
         13    1    3    3    0    0 -0.12599516276E+02 -0.61839784648E+02  0.10856726141E+03  0.12557769318E+03  0.00000000000E+00 0. -1.
        -14    1    3    3    0    0  0.11780280629E+01  0.26165024118E+02  0.40275148179E+02  0.48042520730E+02  0.00000000000E+00 0.  1.
        -13    1    4    4    0    0  0.39140856425E+02  0.13193004649E+02  0.13023799992E+03  0.13663088464E+03  0.00000000000E+00 0.  1.
         13    1    4    4    0    0  0.17246516079E+02  0.36406133380E+02  0.12299663395E+01  0.40303370600E+02  0.00000000000E+00 0. -1.
          2    1    1    2  501    0 -0.44965884290E+02 -0.13924377498E+02  0.88859839560E+02  0.10055789440E+03  0.00000000000E+00 0. -1.
<scales pt_clust_5="13000.00000" pt_clust_6="13000.00000" pt_clust_7="13000.00000" pt_clust_8="13000.00000" pt_clust_9="47.07251"></scales>
<clustering>
<clus scale="   47.073">  2  9  1 -1</clus>
<clus scale="   81.159">  5  6 -1 -1</clus>
<clus scale="   91.555">  7  8 -1 -1</clus>
<clus scale="   94.754">  1  5  2 -1</clus>
<clus scale="   47.073">  2  5  1 -1</clus>
</clustering>
</event>
<event>
 9    1  0.6296820E-005  0.1088575E+03  0.7546771E-02  0.1266777E+00
         21   -1    0    0  501  502  0.00000000000E+00  0.00000000000E+00  0.16562535920E+03  0.16562535920E+03  0.00000000000E+00 0. -1.
          1   -1    0    0  502    0 -0.00000000000E+00 -0.00000000000E+00 -0.98570961026E+02  0.98570961026E+02  0.00000000000E+00 0. -1.
         23    2    1    2    0    0 -0.65980613963E+02  0.87954035168E+01 -0.15011088966E+01  0.11326047856E+03  0.91623589393E+02 0.  0.
        -24    2    1    2    0    0  0.46620510568E+02  0.17280676798E+02  0.70000726922E+02  0.11842639337E+03  0.81563564669E+02 0.  0.
         11    1    4    4    0    0  0.26997338169E+02  0.49130298551E+02  0.53666787698E+02  0.77606485591E+02  0.00000000000E+00 0. -1.
        -12    1    4    4    0    0  0.19623172399E+02 -0.31849621753E+02  0.16333939224E+02  0.40819907782E+02  0.00000000000E+00 0.  1.
        -13    1    3    3    0    0 -0.14671913791E+02 -0.18124103360E+02 -0.38142107329E+02  0.44705352346E+02  0.00000000000E+00 0. -1.
         13    1    3    3    0    0 -0.51308700172E+02  0.26919506877E+02  0.36640998432E+02  0.68555126212E+02  0.00000000000E+00 0.  1.
          2    1    1    2  501    0  0.19360103395E+02 -0.26076080315E+02 -0.14452198511E+01  0.32509448295E+02  0.00000000000E+00 0. -1.
<scales pt_clust_5="13000.00000" pt_clust_6="13000.00000" pt_clust_7="13000.00000" pt_clust_8="13000.00000" pt_clust_9="32.47732"></scales>
<clustering>
<clus scale="   32.477">  1  9  2 -1</clus>
<clus scale="   81.564">  5  6 -1 -1</clus>
<clus scale="   91.624">  7  8 -1 -1</clus>
<clus scale="  100.537">  1  5  2 -1</clus>
<clus scale="   32.477">  1  5  2 -1</clus>
</clustering>
</event>
<event>
 9    1  0.6296820E-005  0.1445500E+03  0.7546771E-02  0.1210216E+00
         21   -1    0    0  501  502  0.00000000000E+00  0.00000000000E+00  0.33223189013E+02  0.33223189013E+02  0.00000000000E+00 0.  1.
          1   -1    0    0  502    0 -0.00000000000E+00 -0.00000000000E+00 -0.77074044554E+03  0.77074044554E+03  0.00000000000E+00 0. -1.
         23    2    1    2    0    0 -0.75396683544E+02  0.82497587482E+02 -0.38152205861E+03  0.40880878179E+03  0.95262936308E+02 0.  0.
        -24    2    1    2    0    0  0.48046421091E+02 -0.96510513575E+02 -0.32256828146E+03  0.34974827066E+03  0.81552552484E+02 0.  0.
         13    1    4    4    0    0  0.48060579847E+02 -0.10540689964E+02 -0.11570768443E+03  0.12573461622E+03  0.00000000000E+00 0. -1.
        -14    1    4    4    0    0 -0.14158755975E-01 -0.85969823611E+02 -0.20686059703E+03  0.22401365444E+03  0.00000000000E+00 0.  1.
        -11    1    3    3    0    0 -0.30570493492E+02  0.71434947486E+02 -0.33253497586E+03  0.34149233807E+03  0.00000000000E+00 0. -1.
         11    1    3    3    0    0 -0.44826190051E+02  0.11062639995E+02 -0.48987082754E+02  0.67316443719E+02  0.00000000000E+00 0.  1.
          2    1    1    2  501    0  0.27350262453E+02  0.14012926093E+02 -0.33426916450E+02  0.45406582092E+02  0.00000000000E+00 0. -1.
<scales pt_clust_5="13000.00000" pt_clust_6="13000.00000" pt_clust_7="13000.00000" pt_clust_8="13000.00000" pt_clust_9="30.73107"></scales>
<clustering>
<clus scale="   30.731">  1  9  2 -1</clus>
<clus scale="   81.553">  5  6 -1 -1</clus>
<clus scale="   95.263">  7  8 -1 -1</clus>
<clus scale="  135.906">  1  5  2 -1</clus>
<clus scale="   30.731">  1  5  2 -1</clus>
</clustering>
</event>
<event>
 9    1  0.6296820E-005  0.1103683E+03  0.7546771E-02  0.1264089E+00
         21   -1    0    0  501  502  0.00000000000E+00  0.00000000000E+00  0.69387687074E+02  0.69387687074E+02  0.00000000000E+00 0.  1.
          3   -1    0    0  502    0 -0.00000000000E+00 -0.00000000000E+00 -0.34077079375E+03  0.34077079375E+03  0.00000000000E+00 0. -1.
         23    2    1    2    0    0  0.53056749452E+02 -0.38355583514E+02 -0.21664715575E+03  0.24358944359E+03  0.90075842958E+02 0.  0.
        -24    2    1    2    0    0 -0.19528715295E+02  0.67531188594E+02 -0.60210050768E+02  0.12178834077E+03  0.79153759109E+02 0.  0.
         13    1    4    4    0    0  0.23546734640E+02  0.47629843855E+02 -0.50605408025E+02  0.73375459516E+02  0.00000000000E+00 0. -1.
        -14    1    4    4    0    0 -0.43075449935E+02  0.19901344739E+02 -0.96046427430E+01  0.48412881258E+02  0.00000000000E+00 0.  1.
        -11    1    3    3    0    0  0.42602416848E+02 -0.65539055440E+01 -0.26674214821E+02  0.50689578175E+02  0.00000000000E+00 0.  1.
         11    1    3    3    0    0  0.10454332603E+02 -0.31801677970E+02 -0.18997294093E+03  0.19289986541E+03  0.00000000000E+00 0. -1.
          4    1    1    2  501    0 -0.33528034156E+02 -0.29175605079E+02  0.54740998435E+01  0.44780696458E+02  0.00000000000E+00 0. -1.
<scales pt_clust_5="13000.00000" pt_clust_6="13000.00000" pt_clust_7="13000.00000" pt_clust_8="13000.00000" pt_clust_9="44.44485"></scales>
<clustering>
<clus scale="   44.445">  1  9  2 -1</clus>
<clus scale="   79.154">  5  6 -1 -1</clus>
<clus scale="   90.076">  7  8 -1 -1</clus>
<clus scale="  101.650">  1  5  2 -1</clus>
<clus scale="   44.445">  1  5  2 -1</clus>
</clustering>
</event>
<event>
 9    1  0.6296820E-005  0.1173831E+03  0.7546771E-02  0.1256082E+00
         21   -1    0    0  501  502  0.00000000000E+00  0.00000000000E+00  0.61382076078E+03  0.61382076078E+03  0.00000000000E+00 0. -1.
          1   -1    0    0  502    0 -0.00000000000E+00 -0.00000000000E+00 -0.32570631136E+02  0.32570631136E+02  0.00000000000E+00 0. -1.
        -24    2    1    2    0    0 -0.62448195655E+02 -0.17936142523E+02  0.13639844019E+03  0.17112148277E+03  0.80352629273E+02 0.  0.
         23    2    1    2    0    0  0.43210233341E+02 -0.18744998372E+02  0.39354412505E+03  0.40933000122E+03  0.10225249293E+03 0.  0.
         13    1    3    3    0    0 -0.62025723960E+02 -0.33081797649E+02  0.57604082054E+02  0.90883585084E+02  0.00000000000E+00 0. -1.
        -14    1    3    3    0    0 -0.42247169470E+00  0.15145655127E+02  0.78794358133E+02  0.80237897686E+02  0.00000000000E+00 0.  1.
        -13    1    4    4    0    0 -0.32885067269E+02 -0.34680889517E+01  0.85854851959E+02  0.92002776562E+02  0.00000000000E+00 0.  1.
         13    1    4    4    0    0  0.76095300610E+02 -0.15276909421E+02  0.30768927309E+03  0.31732722466E+03  0.00000000000E+00 0. -1.
          2    1    1    2  501    0  0.19237962314E+02  0.36681140895E+02  0.51307564412E+02  0.65939907926E+02  0.00000000000E+00 0. -1.
<scales pt_clust_5="13000.00000" pt_clust_6="13000.00000" pt_clust_7="13000.00000" pt_clust_8="13000.00000" pt_clust_9="41.41989"></scales>
<clustering>
<clus scale="   41.420">  1  9  2 -1</clus>
<clus scale="   80.353">  5  6 -1 -1</clus>
<clus scale="   98.893">  2  5  1 -1</clus>
<clus scale="  102.252">  7  8 -1 -1</clus>
<clus scale="   41.420">  1  5  2 -1</clus>
</clustering>
</event>
<event>
 9    1  0.6296820E-005  0.9316764E+02  0.7546771E-02  0.1301780E+00
          1   -1    0    0  502    0 -0.00000000000E+00  0.00000000000E+00  0.20297790439E+03  0.20297790439E+03  0.00000000000E+00 0. -1.
         21   -1    0    0  501  502  0.00000000000E+00 -0.00000000000E+00 -0.98357694656E+02  0.98357694656E+02  0.00000000000E+00 0. -1.
         23    2    1    2    0    0  0.10809809656E+02 -0.13164197869E+02  0.12983301600E+03  0.16008723882E+03  0.92093234823E+02 0.  0.
        -24    2    1    2    0    0  0.35133518831E+02  0.17039924533E+02 -0.39767106950E+01  0.90486342492E+02  0.81530612510E+02 0.  0.
         11    1    4    4    0    0  0.41625133669E+02  0.13501862551E+02 -0.36592257354E+02  0.57043363712E+02  0.00000000000E+00 0. -1.
        -12    1    4    4    0    0 -0.64916148381E+01  0.35380619817E+01  0.32615546659E+02  0.33442978780E+02  0.00000000000E+00 0.  1.
        -11    1    3    3    0    0  0.35746054971E+02 -0.16081031244E+02  0.12915499928E+03  0.13497182614E+03  0.00000000000E+00 0. -1.
         11    1    3    3    0    0 -0.24936245316E+02  0.29168333746E+01  0.67801671263E+00  0.25115412679E+02  0.00000000000E+00 0.  1.
          2    1    1    2  501    0 -0.45943328487E+02 -0.38757266634E+01 -0.21236095566E+02  0.50762017735E+02  0.00000000000E+00 0. -1.
<scales pt_clust_5="13000.00000" pt_clust_6="13000.00000" pt_clust_7="13000.00000" pt_clust_8="13000.00000" pt_clust_9="46.10651"></scales>
<clustering>
<clus scale="   46.107">  2  9  1 -1</clus>
<clus scale="   81.531">  5  6 -1 -1</clus>
<clus scale="   82.742">  2  5  1 -1</clus>
<clus scale="   92.093">  7  8 -1 -1</clus>
<clus scale="   46.107">  2  5  1 -1</clus>
</clustering>
</event>
<event>
 9    1  0.6296820E-005  0.1249946E+03  0.7546771E-02  0.1238206E+00
          1   -1    0    0  502    0 -0.00000000000E+00  0.00000000000E+00  0.66318143294E+03  0.66318143294E+03  0.00000000000E+00 0. -1.
         21   -1    0    0  501  502  0.00000000000E+00 -0.00000000000E+00 -0.44154592240E+02  0.44154592240E+02  0.00000000000E+00 0. -1.
        -24    2    1    2    0    0  0.70149016078E+02 -0.31093064103E+02  0.32247647324E+03  0.34123106914E+03  0.80993232199E+02 0.  0.
         23    2    1    2    0    0 -0.11649678850E+03 -0.14696919010E+02  0.19499784729E+03  0.24544944264E+03  0.91835544764E+02 0.  0.
         11    1    3    3    0    0  0.61375557782E+02 -0.20342399164E+02  0.32080303717E+03  0.32725427569E+03  0.00000000000E+00 0. -1.
        -12    1    3    3    0    0  0.87734582961E+01 -0.10750664939E+02  0.16734360731E+01  0.13976793459E+02  0.00000000000E+00 0.  1.
        -13    1    4    4    0    0 -0.67284781699E+02 -0.53930589449E+01  0.31567929561E+02  0.74517522166E+02  0.00000000000E+00 0. -1.
         13    1    4    4    0    0 -0.49212006801E+02 -0.93038600647E+01  0.16342991773E+03  0.17093192047E+03  0.00000000000E+00 0.  1.
          2    1    1    2  501    0  0.46347772422E+02  0.45789983113E+02  0.10155252016E+03  0.12065551340E+03  0.00000000000E+00 0. -1.
<scales pt_clust_5="13000.00000" pt_clust_6="13000.00000" pt_clust_7="13000.00000" pt_clust_8="13000.00000" pt_clust_9="65.15243"></scales>
<clustering>
<clus scale="   65.152">  2  9  1 -1</clus>
<clus scale="   80.993">  5  6 -1 -1</clus>
<clus scale="   91.836">  7  8 -1 -1</clus>
<clus scale="  117.260">  1  5  2 -1</clus>
<clus scale="   65.152">  2  5  1 -1</clus>
</clustering>
</event>
<event>
 9    1  0.6296820E-005  0.9616627E+02  0.7546771E-02  0.1294942E+00
          1   -1    0    0  502    0 -0.00000000000E+00  0.00000000000E+00  0.49163300255E+03  0.49163300255E+03  0.00000000000E+00 0. -1.
         21   -1    0    0  501  502  0.00000000000E+00 -0.00000000000E+00 -0.57282513212E+02  0.57282513212E+02  0.00000000000E+00 0. -1.
         23    2    1    2    0    0 -0.32212163309E+02  0.18945613668E+02  0.29097908954E+03  0.30738702365E+03  0.91768142692E+02 0.  0.
        -24    2    1    2    0    0  0.97506219774E+01  0.54890162689E+02  0.26293792072E+02  0.10130221448E+03  0.80391358787E+02 0.  0.
         13    1    4    4    0    0 -0.19523377082E+02  0.20368012695E+02 -0.21503504536E+02  0.35474200501E+02  0.00000000000E+00 0. -1.
        -14    1    4    4    0    0  0.29273999059E+02  0.34522149994E+02  0.47797296608E+02  0.65828013978E+02  0.00000000000E+00 0.  1.
        -11    1    3    3    0    0 -0.35133365866E+02  0.52767755708E+02  0.16055581551E+03  0.17261795774E+03  0.00000000000E+00 0. -1.
         11    1    3    3    0    0  0.29212025574E+01 -0.33822142040E+02  0.13042327403E+03  0.13476906591E+03  0.00000000000E+00 0.  1.
          2    1    1    2  501    0  0.22461541332E+02 -0.73835776357E+02  0.11707760772E+03  0.14022627763E+03  0.00000000000E+00 0. -1.
<scales pt_clust_5="13000.00000" pt_clust_6="13000.00000" pt_clust_7="13000.00000" pt_clust_8="13000.00000" pt_clust_9="77.17674"></scales>
<clustering>
<clus scale="   77.177">  2  9  1 -1</clus>
<clus scale="   80.391">  5  6 -1 -1</clus>
<clus scale="   85.378">  2  5  1 -1</clus>
<clus scale="   91.768">  7  8 -1 -1</clus>
<clus scale="   77.177">  2  5  1 -1</clus>
</clustering>
</event>
<event>
 9    1  0.6296820E-005  0.1101529E+03  0.7546771E-02  0.1267827E+00
         21   -1    0    0  501  502  0.00000000000E+00  0.00000000000E+00  0.10457774885E+03  0.10457774885E+03  0.00000000000E+00 0. -1.
         -2   -1    0    0    0  501 -0.00000000000E+00 -0.00000000000E+00 -0.34426203477E+03  0.34426203477E+03  0.00000000000E+00 0.  1.
         23    2    1    2    0    0 -0.18213020434E+02 -0.13822443388E+02 -0.20452356728E+03  0.22423720331E+03  0.89048636821E+02 0.  0.
        -24    2    1    2    0    0  0.49153517728E+02  0.45849844510E+02 -0.90144987747E+02  0.15384709540E+03  0.10499777808E+03 0.  0.
         11    1    4    4    0    0  0.73648791501E+02  0.10239476886E+02 -0.30924508349E+02  0.80531463374E+02  0.00000000000E+00 0. -1.
        -12    1    4    4    0    0 -0.24495273774E+02  0.35610367623E+02 -0.59220479398E+02  0.73315632028E+02  0.00000000000E+00 0.  1.
        -13    1    3    3    0    0 -0.39679043714E+02  0.23750450548E+02 -0.79935322394E+02  0.92348070784E+02  0.00000000000E+00 0.  1.
         13    1    3    3    0    0  0.21466023279E+02 -0.37572893935E+02 -0.12458824489E+03  0.13188913252E+03  0.00000000000E+00 0. -1.
         -1    1    1    2    0  502 -0.30940497293E+02 -0.32027401122E+02  0.54984269104E+02  0.70755484906E+02  0.00000000000E+00 0.  1.
<scales pt_clust_5="13000.00000" pt_clust_6="13000.00000" pt_clust_7="13000.00000" pt_clust_8="13000.00000" pt_clust_9="44.53166"></scales>
<clustering>
<clus scale="   44.532">  1  9  2 -1</clus>
<clus scale="   89.049">  7  8 -1 -1</clus>
<clus scale="   95.073">  2  7  1 -1</clus>
<clus scale="  104.998">  5  6 -1 -1</clus>
<clus scale="   44.532">  1  5  2 -1</clus>
</clustering>
</event>
<event>
 9    1  0.6296820E-005  0.1685540E+03  0.7546771E-02  0.1180978E+00
         21   -1    0    0  501  502  0.00000000000E+00  0.00000000000E+00  0.21457050186E+03  0.21457050186E+03  0.00000000000E+00 0. -1.
          1   -1    0    0  502    0 -0.00000000000E+00 -0.00000000000E+00 -0.61823476418E+03  0.61823476418E+03  0.00000000000E+00 0. -1.
         23    2    1    2    0    0 -0.11651585991E+03  0.80903458715E+02 -0.54963855436E+03  0.57504563755E+03  0.91943621775E+02 0.  0.
        -24    2    1    2    0    0  0.11858014625E+03 -0.60929429211E+02  0.16725337661E+03  0.22850176506E+03  0.80409689836E+02 0.  0.
         11    1    4    4    0    0  0.12032649611E+03 -0.41769511236E+02  0.16598206654E+03  0.20922046780E+03  0.00000000000E+00 0. -1.
        -12    1    4    4    0    0 -0.17463498555E+01 -0.19159917975E+02  0.12713100671E+01  0.19281297257E+02  0.00000000000E+00 0.  1.
        -13    1    3    3    0    0 -0.15660607743E+02 -0.18961708624E+02 -0.51316986809E+02  0.56905484481E+02  0.00000000000E+00 0.  1.
         13    1    3    3    0    0 -0.10085525216E+03  0.99865167340E+02 -0.49832156755E+03  0.51814015307E+03  0.00000000000E+00 0. -1.
          2    1    1    2  501    0 -0.20642863450E+01 -0.19974029504E+02 -0.21279084566E+02  0.29257863434E+02  0.00000000000E+00 0. -1.
<scales pt_clust_5="13000.00000" pt_clust_6="13000.00000" pt_clust_7="13000.00000" pt_clust_8="13000.00000" pt_clust_9="20.08043"></scales>
<clustering>
<clus scale="   20.080">  1  9  2 -1</clus>
<clus scale="   80.410">  5  6 -1 -1</clus>
<clus scale="   91.944">  7  8 -1 -1</clus>
<clus scale="  162.550">  1  5  2 -1</clus>
<clus scale="   20.080">  1  5  2 -1</clus>
</clustering>
</event>
<event>
 9    1  0.6296820E-005  0.9600605E+02  0.7546771E-02  0.1296101E+00
         -4   -1    0    0    0  501 -0.00000000000E+00  0.00000000000E+00  0.14231532257E+03  0.14231532257E+03  0.00000000000E+00 0.  1.
         21   -1    0    0  501  502  0.00000000000E+00 -0.00000000000E+00 -0.12696971377E+03  0.12696971377E+03  0.00000000000E+00 0. -1.
        -24    2    1    2    0    0  0.18342214837E+02  0.16786241249E+02  0.70060227275E+02  0.10954135382E+03  0.80452830970E+02 0.  0.
         23    2    1    2    0    0 -0.52369370290E+00 -0.28393809994E+02  0.40350242329E+01  0.97263638780E+02  0.92937889513E+02 0.  0.
         13    1    3    3    0    0  0.22844793767E+02 -0.27834838967E+02  0.46711045515E+02  0.58979527259E+02  0.00000000000E+00 0. -1.
        -14    1    3    3    0    0 -0.45025789300E+01  0.44621080216E+02  0.23349181760E+02  0.50561826564E+02  0.00000000000E+00 0.  1.
        -11    1    4    4    0    0 -0.31454601463E+02  0.94919047920E+01  0.27659648738E+02  0.42948159193E+02  0.00000000000E+00 0.  1.
         11    1    4    4    0    0  0.30930907760E+02 -0.37885714786E+02 -0.23624624505E+02  0.54315479586E+02  0.00000000000E+00 0. -1.
         -3    1    1    2    0  502 -0.17818521134E+02  0.11607568745E+02 -0.58749642708E+02  0.62480043741E+02  0.00000000000E+00 0.  1.
<scales pt_clust_5="13000.00000" pt_clust_6="13000.00000" pt_clust_7="13000.00000" pt_clust_8="13000.00000" pt_clust_9="21.26583"></scales>
<clustering>
<clus scale="   21.266">  2  9  1 -1</clus>
<clus scale="   80.453">  5  6 -1 -1</clus>
<clus scale="   83.978">  1  5  2 -1</clus>
<clus scale="   92.938">  7  8 -1 -1</clus>
<clus scale="   21.266">  2  5  1 -1</clus>
</clustering>
</event>
<event>
 9    1  0.6296820E-005  0.9927919E+02  0.7546771E-02  0.1288507E+00
         21   -1    0    0  501  502  0.00000000000E+00  0.00000000000E+00  0.44963579908E+03  0.44963579908E+03  0.00000000000E+00 0.  1.
         -2   -1    0    0    0  501 -0.00000000000E+00 -0.00000000000E+00 -0.28150871406E+02  0.28150871406E+02  0.00000000000E+00 0.  1.
        -24    2    1    2    0    0  0.22910925301E+02  0.42154908786E+02  0.13388743001E+03  0.16260458639E+03  0.78819164984E+02 0.  0.
         23    2    1    2    0    0 -0.18406239274E+02 -0.19146658645E+02  0.16737470121E+03  0.19269456408E+03  0.91714340429E+02 0.  0.
         13    1    3    3    0    0  0.26412070380E+02 -0.16979087347E+02  0.32568562880E+02  0.45239343021E+02  0.00000000000E+00 0. -1.
        -14    1    3    3    0    0 -0.35011450797E+01  0.59133996133E+02  0.10131886713E+03  0.11736524337E+03  0.00000000000E+00 0.  1.
        -11    1    4    4    0    0 -0.47942593281E+02 -0.36043340428E+02  0.12231432949E+03  0.13622925470E+03  0.00000000000E+00 0. -1.
         11    1    4    4    0    0  0.29536354007E+02  0.16896681783E+02  0.45060371722E+02  0.56465309376E+02  0.00000000000E+00 0.  1.
         -1    1    1    2    0  502 -0.45046860262E+01 -0.23008250141E+02  0.12022279646E+03  0.12248752002E+03  0.00000000000E+00 0.  1.
<scales pt_clust_5="13000.00000" pt_clust_6="13000.00000" pt_clust_7="13000.00000" pt_clust_8="13000.00000" pt_clust_9="23.44508"></scales>
<clustering>
<clus scale="   23.445">  1  9  2 -1</clus>
<clus scale="   78.819">  5  6 -1 -1</clus>
<clus scale="   87.506">  2  5  1 -1</clus>
<clus scale="   91.714">  7  8 -1 -1</clus>
<clus scale="   23.445">  1  5  2 -1</clus>
</clustering>
</event>
<event>
 9    1  0.6296820E-005  0.2004747E+03  0.7546771E-02  0.1151384E+00
         21   -1    0    0  501  502  0.00000000000E+00  0.00000000000E+00  0.28431574231E+03  0.28431574231E+03  0.00000000000E+00 0.  1.
          1   -1    0    0  502    0 -0.00000000000E+00 -0.00000000000E+00 -0.37854117241E+03  0.37854117241E+03  0.00000000000E+00 0. -1.
         23    2    1    2    0    0 -0.14093432410E+03  0.10203562911E+03 -0.29008366426E+03  0.35273614911E+03  0.10000252645E+03 0.  0.
        -24    2    1    2    0    0  0.12224126412E+03 -0.12456886870E+03  0.11367122215E+03  0.22287466357E+03  0.79319853837E+02 0.  0.
         11    1    4    4    0    0 -0.10921028091E+02 -0.17396380028E+02  0.15721182445E+02  0.25866164580E+02  0.00000000000E+00 0. -1.
        -12    1    4    4    0    0  0.13316229221E+03 -0.10717248868E+03  0.97950039708E+02  0.19700849899E+03  0.00000000000E+00 0.  1.
        -11    1    3    3    0    0 -0.40761199606E+02  0.38995418824E+02 -0.23595513201E+02  0.61146269925E+02  0.00000000000E+00 0.  1.
         11    1    3    3    0    0 -0.10017312450E+03  0.63040210285E+02 -0.26648815106E+03  0.29158987918E+03  0.00000000000E+00 0. -1.
          2    1    1    2  501    0  0.18693059981E+02  0.22533239595E+02  0.82187012014E+02  0.87246102044E+02  0.00000000000E+00 0. -1.
<scales pt_clust_5="13000.00000" pt_clust_6="13000.00000" pt_clust_7="13000.00000" pt_clust_8="13000.00000" pt_clust_9="29.27759"></scales>
<clustering>
<clus scale="   29.278">  1  9  2 -1</clus>
<clus scale="   79.320">  5  6 -1 -1</clus>
<clus scale="  100.003">  7  8 -1 -1</clus>
<clus scale="  191.001">  1  5  2 -1</clus>
<clus scale="   29.278">  1  5  2 -1</clus>
</clustering>
</event>
<event>
 9    1  0.6296820E-005  0.9469014E+02  0.7546771E-02  0.1298320E+00
         -4   -1    0    0    0  501 -0.00000000000E+00  0.00000000000E+00  0.29310334293E+03  0.29310334293E+03  0.00000000000E+00 0.  1.
         21   -1    0    0  501  502  0.00000000000E+00 -0.00000000000E+00 -0.82961553929E+02  0.82961553929E+02  0.00000000000E+00 0.  1.
         23    2    1    2    0    0  0.65005229181E+01 -0.29299809319E+02  0.20640715989E+03  0.22784348717E+03  0.91695165462E+02 0.  0.
        -24    2    1    2    0    0 -0.36815952356E+02 -0.13139662598E+02  0.23208384211E+02  0.92549503162E+02  0.80614616273E+02 0.  0.
         11    1    4    4    0    0  0.25280818069E+02 -0.37877211885E+01  0.13804637126E+02  0.29052273580E+02  0.00000000000E+00 0. -1.
        -12    1    4    4    0    0 -0.62096770425E+02 -0.93519414097E+01  0.94037470854E+01  0.63497229582E+02  0.00000000000E+00 0.  1.
        -11    1    3    3    0    0 -0.25045750790E+02 -0.45635689385E+02  0.16633942886E+03  0.17429489772E+03  0.00000000000E+00 0.  1.
         11    1    3    3    0    0  0.31546273708E+02  0.16335880066E+02  0.40067731031E+02  0.53548589453E+02  0.00000000000E+00 0. -1.
         -3    1    1    2    0  502  0.30315429438E+02  0.42439471917E+02 -0.19473755098E+02  0.55671906526E+02  0.00000000000E+00 0.  1.
<scales pt_clust_5="13000.00000" pt_clust_6="13000.00000" pt_clust_7="13000.00000" pt_clust_8="13000.00000" pt_clust_9="52.15490"></scales>
<clustering>
<clus scale="   52.155">  2  9  1 -1</clus>
<clus scale="   80.615">  5  6 -1 -1</clus>
<clus scale="   84.006">  2  5  1 -1</clus>
<clus scale="   91.695">  7  8 -1 -1</clus>
<clus scale="   52.155">  2  5  1 -1</clus>
</clustering>
</event>
<event>
 9    1  0.6296820E-005  0.1073519E+03  0.7546771E-02  0.1270721E+00
          1   -1    0    0  502    0 -0.00000000000E+00  0.00000000000E+00  0.49761878612E+03  0.49761878612E+03  0.00000000000E+00 0. -1.
         21   -1    0    0  501  502  0.00000000000E+00 -0.00000000000E+00 -0.46008073137E+02  0.46008073137E+02  0.00000000000E+00 0. -1.
        -24    2    1    2    0    0 -0.16780034498E+02 -0.29922085059E+02  0.81438623795E+02  0.12056522742E+03  0.82017217006E+02 0.  0.
         23    2    1    2    0    0 -0.15024531346E+02  0.77742774817E+02  0.14193930747E+03  0.18771390734E+03  0.93915219340E+02 0.  0.
         11    1    3    3    0    0 -0.42109750340E+02  0.43619346342E+01  0.22841028932E+02  0.48103743619E+02  0.00000000000E+00 0. -1.
        -12    1    3    3    0    0  0.25329715843E+02 -0.34284019693E+02  0.58597594863E+02  0.72461483802E+02  0.00000000000E+00 0.  1.
        -11    1    4    4    0    0  0.24928058693E+02  0.22018133643E+02  0.37776231635E+01  0.33473523210E+02  0.00000000000E+00 0.  1.
         11    1    4    4    0    0 -0.39952590039E+02  0.55724641174E+02  0.13816168431E+03  0.15424038413E+03  0.00000000000E+00 0. -1.
          2    1    1    2  501    0  0.31804565844E+02 -0.47820689758E+02  0.22823278172E+03  0.23534772450E+03  0.00000000000E+00 0. -1.
<scales pt_clust_5="13000.00000" pt_clust_6="13000.00000" pt_clust_7="13000.00000" pt_clust_8="13000.00000" pt_clust_9="57.43128"></scales>
<clustering>
<clus scale="   57.431">  2  9  1 -1</clus>
<clus scale="   82.017">  5  6 -1 -1</clus>
<clus scale="   93.915">  7  8 -1 -1</clus>
<clus scale="   97.114">  1  5  2 -1</clus>
<clus scale="   57.431">  2  5  1 -1</clus>
</clustering>
</event>
<event>
 9    1  0.6296820E-005  0.9354397E+02  0.7546771E-02  0.1294793E+00
         -2   -1    0    0    0  501 -0.00000000000E+00  0.00000000000E+00  0.29877935163E+03  0.29877935163E+03  0.00000000000E+00 0.  1.
         21   -1    0    0  501  502  0.00000000000E+00 -0.00000000000E+00 -0.82954871052E+02  0.82954871052E+02  0.00000000000E+00 0. -1.
        -24    2    1    2    0    0  0.34269651371E+02 -0.69070866540E+01  0.19042431377E+03  0.21426823676E+03  0.91800550965E+02 0.  0.
         23    2    1    2    0    0  0.26997141109E+02 -0.12483652193E+01  0.41129717073E+02  0.10368863879E+03  0.91264868064E+02 0.  0.
         11    1    3    3    0    0 -0.25122639075E+02 -0.25560583486E+02  0.64156389723E+02  0.73488317197E+02  0.00000000000E+00 0. -1.
        -12    1    3    3    0    0  0.59392290446E+02  0.18653496832E+02  0.12626792405E+03  0.14077991956E+03  0.00000000000E+00 0.  1.
        -11    1    4    4    0    0  0.18129788641E+01 -0.40755440030E+02 -0.81594918787E+00  0.40803903704E+02  0.00000000000E+00 0. -1.
         11    1    4    4    0    0  0.25184162245E+02  0.39507074811E+02  0.41945666261E+02  0.62884735081E+02  0.00000000000E+00 0.  1.
         -1    1    1    2    0  502 -0.61266792480E+02  0.81554518733E+01 -0.15729550269E+02  0.63777347136E+02  0.00000000000E+00 0.  1.
<scales pt_clust_5="13000.00000" pt_clust_6="13000.00000" pt_clust_7="13000.00000" pt_clust_8="13000.00000" pt_clust_9="61.80721"></scales>
<clustering>
<clus scale="   61.807">  2  9  1 -1</clus>
<clus scale="   91.265">  7  8 -1 -1</clus>
<clus scale="   91.801">  5  6 -1 -1</clus>
<clus scale="   93.018">  2  7  1 -1</clus>
<clus scale="   61.807">  2  5  1 -1</clus>
</clustering>
</event>
<event>
 9    1  0.6296820E-005  0.1020342E+03  0.7546771E-02  0.1282141E+00
          1   -1    0    0  502    0 -0.00000000000E+00  0.00000000000E+00  0.72771043489E+02  0.72771043489E+02  0.00000000000E+00 0. -1.
         21   -1    0    0  501  502  0.00000000000E+00 -0.00000000000E+00 -0.30504572421E+03  0.30504572421E+03  0.00000000000E+00 0. -1.
         23    2    1    2    0    0  0.11572837642E+02 -0.26025350761E+02 -0.93859853591E+01  0.97660918148E+02  0.92942502436E+02 0.  0.
        -24    2    1    2    0    0 -0.14543366973E+02  0.73132341725E+02 -0.99906103925E+02  0.14842654211E+03  0.80556563187E+02 0.  0.
         13    1    4    4    0    0  0.26009418981E+02  0.62027174919E+02 -0.54748943207E+02  0.86725469653E+02  0.00000000000E+00 0. -1.
        -14    1    4    4    0    0 -0.40552785954E+02  0.11105166806E+02 -0.45157160718E+02  0.61701072458E+02  0.00000000000E+00 0.  1.
        -11    1    3    3    0    0  0.33074324976E+02 -0.52195447373E+02 -0.14329385401E+02  0.63431908256E+02  0.00000000000E+00 0.  1.
         11    1    3    3    0    0 -0.21501487333E+02  0.26170096612E+02  0.49434000420E+01  0.34229009892E+02  0.00000000000E+00 0. -1.
          2    1    1    2  501    0  0.29705293308E+01 -0.47106990963E+02 -0.12298259143E+03  0.13172930744E+03  0.00000000000E+00 0. -1.
<scales pt_clust_5="13000.00000" pt_clust_6="13000.00000" pt_clust_7="13000.00000" pt_clust_8="13000.00000" pt_clust_9="47.20056"></scales>
<clustering>
<clus scale="   47.201">  2  9  1 -1</clus>
<clus scale="   80.557">  5  6 -1 -1</clus>
<clus scale="   90.896">  2  5  1 -1</clus>
<clus scale="   92.943">  7  8 -1 -1</clus>
<clus scale="   47.201">  2  5  1 -1</clus>
</clustering>
</event>
<event>
 9    1  0.6296820E-005  0.9048110E+02  0.7546771E-02  0.1306860E+00
         -4   -1    0    0    0  501 -0.00000000000E+00  0.00000000000E+00  0.46841937321E+03  0.46841937321E+03  0.00000000000E+00 0.  1.
         21   -1    0    0  501  502  0.00000000000E+00 -0.00000000000E+00 -0.35600610996E+02  0.35600610996E+02  0.00000000000E+00 0. -1.
         23    2    1    2    0    0 -0.41953355473E+01 -0.24388025144E+02  0.22515099417E+03  0.24361850845E+03  0.89691866251E+02 0.  0.
        -24    2    1    2    0    0 -0.33785723147E+02 -0.25947017982E+02  0.14370413134E+03  0.17058207804E+03  0.81441053244E+02 0.  0.
         13    1    4    4    0    0 -0.23314475971E+02 -0.17324347804E+02  0.29724295677E+01  0.29198170391E+02  0.00000000000E+00 0. -1.
        -14    1    4    4    0    0 -0.10471247176E+02 -0.86226701780E+01  0.14073170177E+03  0.14138390765E+03  0.00000000000E+00 0.  1.
        -11    1    3    3    0    0 -0.24908326015E+02  0.27151210922E+02  0.10420524928E+03  0.11052758450E+03  0.00000000000E+00 0.  1.
         11    1    3    3    0    0  0.20712990468E+02 -0.51539236066E+02  0.12094574490E+03  0.13309092395E+03  0.00000000000E+00 0. -1.
         -3    1    1    2    0  502  0.37981058694E+02  0.50335043126E+02  0.63963636699E+02  0.89819397714E+02  0.00000000000E+00 0.  1.
<scales pt_clust_5="13000.00000" pt_clust_6="13000.00000" pt_clust_7="13000.00000" pt_clust_8="13000.00000" pt_clust_9="63.05694"></scales>
<clustering>
<clus scale="   63.057">  2  9  1 -1</clus>
<clus scale="   81.441">  5  6 -1 -1</clus>
<clus scale="   82.309">  2  5  1 -1</clus>
<clus scale="   89.692">  7  8 -1 -1</clus>
<clus scale="   63.057">  2  5  1 -1</clus>
</clustering>
</event>
<event>
 9    1  0.6296820E-005  0.1320463E+03  0.7546771E-02  0.1247444E+00
         21   -1    0    0  501  502  0.00000000000E+00  0.00000000000E+00  0.24346262919E+02  0.24346262919E+02  0.00000000000E+00 0. -1.
          1   -1    0    0  502    0 -0.00000000000E+00 -0.00000000000E+00 -0.11843934986E+04  0.11843934986E+04  0.00000000000E+00 0. -1.
        -24    2    1    2    0    0  0.17554590742E+02  0.16092677983E+02 -0.13146044805E+03  0.15521214016E+03  0.79005196740E+02 0.  0.
         23    2    1    2    0    0  0.74906984363E+02  0.21489264840E+02 -0.67949821345E+03  0.69045135123E+03  0.94511383098E+02 0.  0.
         13    1    3    3    0    0  0.46771942139E+02 -0.13738128339E+01 -0.60268901295E+02  0.76300998660E+02  0.00000000000E+00 0. -1.
        -14    1    3    3    0    0 -0.29217351397E+02  0.17466490817E+02 -0.71191546756E+02  0.78911141505E+02  0.00000000000E+00 0.  1.
        -13    1    4    4    0    0 -0.63895893945E-01 -0.30840403397E+02 -0.15373283928E+03  0.15679579215E+03  0.00000000000E+00 0.  1.
         13    1    4    4    0    0  0.74970880257E+02  0.52329668238E+02 -0.52576537417E+03  0.53365555908E+03  0.00000000000E+00 0. -1.
          2    1    1    2  501    0 -0.92461575105E+02 -0.37581942823E+02 -0.34908857415E+03  0.36307627009E+03  0.00000000000E+00 0. -1.
<scales pt_clust_5="13000.00000" pt_clust_6="13000.00000" pt_clust_7="13000.00000" pt_clust_8="13000.00000" pt_clust_9="92.21618"></scales>
<clustering>
<clus scale="   79.005">  5  6 -1 -1</clus>
<clus scale="   82.516">  2  5  1 -1</clus>
<clus scale="   92.216">  1  9  2 -1</clus>
<clus scale="   94.511">  7  8 -1 -1</clus>
<clus scale="   92.216">  1  5  2 -1</clus>
</clustering>
</event>
<event>
 9    1  0.6296820E-005  0.2140467E+03  0.7546771E-02  0.1174869E+00
          1   -1    0    0  502    0 -0.00000000000E+00  0.00000000000E+00  0.45986157675E+03  0.45986157675E+03  0.00000000000E+00 0. -1.
         21   -1    0    0  501  502  0.00000000000E+00 -0.00000000000E+00 -0.36830071460E+03  0.36830071460E+03  0.00000000000E+00 0. -1.
         23    2    1    2    0    0  0.11926616902E+01 -0.66706566959E+01  0.33809512044E+03  0.35015442775E+03  0.90850936711E+02 0.  0.
        -24    2    1    2    0    0  0.78967825016E+02 -0.17481617905E+03 -0.11826954420E+03  0.24175585395E+03  0.87530531744E+02 0.  0.
         11    1    4    4    0    0  0.53868609472E+02 -0.85322071580E+02 -0.10870364807E+03  0.14831778750E+03  0.00000000000E+00 0. -1.
        -12    1    4    4    0    0  0.25099215543E+02 -0.89494107474E+02 -0.95658961301E+01  0.93438066451E+02  0.00000000000E+00 0.  1.
        -13    1    3    3    0    0 -0.44681807545E+02 -0.54265887770E+01  0.15576879062E+03  0.16214138251E+03  0.00000000000E+00 0.  1.
         13    1    3    3    0    0  0.45874469235E+02 -0.12440679189E+01  0.18232632983E+03  0.18801304524E+03  0.00000000000E+00 0. -1.
          2    1    1    2  501    0 -0.80160486706E+02  0.18148683575E+03 -0.12826471411E+03  0.23625200965E+03  0.00000000000E+00 0. -1.
<scales pt_clust_5="13000.00000" pt_clust_6="13000.00000" pt_clust_7="13000.00000" pt_clust_8="13000.00000" pt_clust_9="195.33149"></scales>
<clustering>
<clus scale="   87.531">  5  6 -1 -1</clus>
<clus scale="   90.851">  7  8 -1 -1</clus>
<clus scale="   91.103">  1  7  2 -1</clus>
<clus scale="  195.331">  2  9  1 -1</clus>
<clus scale="  195.331">  2  5  1 -1</clus>
</clustering>
</event>
<event>
 9    1  0.6296820E-005  0.1204389E+03  0.7546771E-02  0.1245552E+00
          1   -1    0    0  502    0 -0.00000000000E+00  0.00000000000E+00  0.51198264400E+03  0.51198264400E+03  0.00000000000E+00 0. -1.
         21   -1    0    0  501  502  0.00000000000E+00 -0.00000000000E+00 -0.43004342201E+03  0.43004342201E+03  0.00000000000E+00 0. -1.
         23    2    1    2    0    0 -0.76903824402E+01  0.82488608582E+02  0.48408622981E+03  0.49948847804E+03  0.91026091157E+02 0.  0.
        -24    2    1    2    0    0 -0.33106518834E+02 -0.11826062940E+02 -0.12056937750E+03  0.14937629377E+03  0.80872770436E+02 0.  0.
         11    1    4    4    0    0 -0.23984632647E+01  0.33139428024E+02 -0.38099553837E+02  0.50552451161E+02  0.00000000000E+00 0. -1.
        -12    1    4    4    0    0 -0.30708055569E+02 -0.44965490965E+02 -0.82469823659E+02  0.98823842613E+02  0.00000000000E+00 0.  1.
        -11    1    3    3    0    0  0.37798271268E+02  0.17137573182E+02  0.12609556337E+03  0.13274975264E+03  0.00000000000E+00 0.  1.
         11    1    3    3    0    0 -0.45488653708E+02  0.65351035401E+02  0.35799066645E+03  0.36673872540E+03  0.00000000000E+00 0. -1.
          2    1    1    2  501    0  0.40796901274E+02 -0.70662545642E+02 -0.28157763033E+03  0.29316129419E+03  0.00000000000E+00 0. -1.
<scales pt_clust_5="13000.00000" pt_clust_6="13000.00000" pt_clust_7="13000.00000" pt_clust_8="13000.00000" pt_clust_9="81.59401"></scales>
<clustering>
<clus scale="   80.873">  5  6 -1 -1</clus>
<clus scale="   81.594">  2  9  1 -1</clus>
<clus scale="   91.026">  7  8 -1 -1</clus>
<clus scale="  112.961">  2  5  1 -1</clus>
<clus scale="   81.594">  2  5  1 -1</clus>
</clustering>
</event>
<event>
 9    1  0.6296820E-005  0.1206987E+03  0.7546771E-02  0.1247107E+00
          3   -1    0    0  502    0 -0.00000000000E+00  0.00000000000E+00  0.69705831537E+03  0.69705831537E+03  0.00000000000E+00 0. -1.
         21   -1    0    0  501  502  0.00000000000E+00 -0.00000000000E+00 -0.15595836753E+03  0.15595836753E+03  0.00000000000E+00 0. -1.
        -24    2    1    2    0    0 -0.73774983899E+02 -0.48476190451E+01  0.51559652047E+03  0.52603222209E+03  0.73511081455E+02 0.  0.
         23    2    1    2    0    0  0.13225327435E+03 -0.44593576050E+02  0.12027134086E+03  0.20514399276E+03  0.90218328122E+02 0.  0.
         13    1    3    3    0    0 -0.47793910151E+02 -0.36110909259E+02  0.23538421991E+03  0.24288677732E+03  0.00000000000E+00 0. -1.
        -14    1    3    3    0    0 -0.25981073749E+02  0.31263290214E+02  0.28021230057E+03  0.28314544478E+03  0.00000000000E+00 0.  1.
        -11    1    4    4    0    0  0.33695451246E+02  0.22715660548E+01 -0.99806584450E+01  0.35215862761E+02  0.00000000000E+00 0.  1.
         11    1    4    4    0    0  0.98557823107E+02 -0.46865142105E+02  0.13025199931E+03  0.16992813000E+03  0.00000000000E+00 0. -1.
          4    1    1    2  501    0 -0.58478290453E+02  0.49441195095E+02 -0.94767913493E+02  0.12184046805E+03  0.00000000000E+00 0. -1.
<scales pt_clust_5="13000.00000" pt_clust_6="13000.00000" pt_clust_7="13000.00000" pt_clust_8="13000.00000" pt_clust_9="76.57769"></scales>
<clustering>
<clus scale="   73.511">  5  6 -1 -1</clus>
<clus scale="   76.578">  2  9  1 -1</clus>
<clus scale="   90.218">  7  8 -1 -1</clus>
<clus scale="  108.778">  1  5  2 -1</clus>
<clus scale="   76.578">  2  5  1 -1</clus>
</clustering>
</event>
<event>
 9    1  0.6296820E-005  0.2913131E+03  0.7546771E-02  0.1089666E+00
         21   -1    0    0  501  502  0.00000000000E+00  0.00000000000E+00  0.12248138270E+03  0.12248138270E+03  0.00000000000E+00 0. -1.
          3   -1    0    0  502    0 -0.00000000000E+00 -0.00000000000E+00 -0.54245589333E+03  0.54245589333E+03  0.00000000000E+00 0. -1.
        -24    2    1    2    0    0 -0.59157231938E+02 -0.96450620801E+02 -0.11942084492E+03  0.18287067875E+03  0.79862673398E+02 0.  0.
         23    2    1    2    0    0  0.20850976570E+02 -0.12003296547E+03 -0.16217394152E+03  0.22229465809E+03  0.90949720626E+02 0.  0.
         11    1    3    3    0    0 -0.57687779285E+02 -0.39392650910E+02 -0.10117705761E+03  0.12294900492E+03  0.00000000000E+00 0. -1.
        -12    1    3    3    0    0 -0.14694526530E+01 -0.57057969890E+02 -0.18243787308E+02  0.59921673829E+02  0.00000000000E+00 0.  1.
        -13    1    4    4    0    0 -0.24740179656E+02 -0.11990285580E+02 -0.80827164157E+01  0.28656129229E+02  0.00000000000E+00 0.  1.
         13    1    4    4    0    0  0.45591156226E+02 -0.10804267989E+03 -0.15409122510E+03  0.19363852886E+03  0.00000000000E+00 0. -1.
          4    1    1    2  501    0  0.38306255368E+02  0.21648358627E+03 -0.13837972419E+03  0.25977193919E+03  0.00000000000E+00 0. -1.
<scales pt_clust_5="13000.00000" pt_clust_6="13000.00000" pt_clust_7="13000.00000" pt_clust_8="13000.00000" pt_clust_9="219.84657"></scales>
<clustering>
<clus scale="   79.863">  5  6 -1 -1</clus>
<clus scale="   90.950">  7  8 -1 -1</clus>
<clus scale="  122.871">  5  7 -1 -1</clus>
<clus scale="  219.847">  1  9  2 -1</clus>
<clus scale="  219.847">  1  5  2 -1</clus>
</clustering>
</event>
<event>
 9    1  0.6296820E-005  0.1917650E+03  0.7546771E-02  0.1178114E+00
          1   -1    0    0  502    0 -0.00000000000E+00  0.00000000000E+00  0.10410161639E+03  0.10410161639E+03  0.00000000000E+00 0. -1.
         21   -1    0    0  501  502  0.00000000000E+00 -0.00000000000E+00 -0.81683833375E+03  0.81683833375E+03  0.00000000000E+00 0. -1.
         23    2    1    2    0    0 -0.72175800989E+02  0.17507092698E+02 -0.37284000937E+02  0.12349128560E+03  0.91346353789E+02 0.  0.
        -24    2    1    2    0    0 -0.42861320994E+00  0.15357459652E+03 -0.11448590248E+03  0.20649679535E+03  0.77126935756E+02 0.  0.
         13    1    4    4    0    0 -0.17642216471E+02  0.14135442516E+03 -0.73271640163E+02  0.16019068190E+03  0.00000000000E+00 0. -1.
        -14    1    4    4    0    0  0.17213603261E+02  0.12220171361E+02 -0.41214262312E+02  0.46306113454E+02  0.00000000000E+00 0.  1.
        -11    1    3    3    0    0 -0.25098292318E+02 -0.34641953147E+02  0.23215762822E+01  0.42841322477E+02  0.00000000000E+00 0. -1.
         11    1    3    3    0    0 -0.47077508671E+02  0.52149045845E+02 -0.39605577219E+02  0.80649963125E+02  0.00000000000E+00 0.  1.
          2    1    1    2  501    0  0.72604414199E+02 -0.17108168922E+03 -0.56096681395E+03  0.59095186919E+03  0.00000000000E+00 0. -1.
<scales pt_clust_5="13000.00000" pt_clust_6="13000.00000" pt_clust_7="13000.00000" pt_clust_8="13000.00000" pt_clust_9="175.57118"></scales>
<clustering>
<clus scale="   77.127">  5  6 -1 -1</clus>
<clus scale="   91.346">  7  8 -1 -1</clus>
<clus scale="  117.729">  1  7  2 -1</clus>
<clus scale="  175.571">  2  9  1 -1</clus>
<clus scale="  175.571">  2  5  1 -1</clus>
</clustering>
</event>
<event>
 9    1  0.6296820E-005  0.2362157E+03  0.7546771E-02  0.1123312E+00
          1   -1    0    0  502    0 -0.00000000000E+00  0.00000000000E+00  0.42895747109E+03  0.42895747109E+03  0.00000000000E+00 0. -1.
         21   -1    0    0  501  502  0.00000000000E+00 -0.00000000000E+00 -0.28908980974E+03  0.28908980974E+03  0.00000000000E+00 0. -1.
         23    2    1    2    0    0  0.75929679727E+02  0.20745187622E+03  0.24984816002E+03  0.34678427111E+03  0.95045412353E+02 0.  0.
        -24    2    1    2    0    0 -0.11567493979E+03 -0.16324891617E+03 -0.17903470118E+03  0.28014731260E+03  0.79988700502E+02 0.  0.
         11    1    4    4    0    0 -0.89574922740E+02 -0.65557555754E+02 -0.68966540552E+02  0.13068222379E+03  0.00000000000E+00 0. -1.
        -12    1    4    4    0    0 -0.26100017054E+02 -0.97691360412E+02 -0.11006816063E+03  0.14946508881E+03  0.00000000000E+00 0.  1.
        -11    1    3    3    0    0  0.39530778925E+02  0.13210150897E+02  0.31218340781E+02  0.52074709508E+02  0.00000000000E+00 0.  1.
         11    1    3    3    0    0  0.36398900802E+02  0.19424172533E+03  0.21862981924E+03  0.29470956160E+03  0.00000000000E+00 0. -1.
          2    1    1    2  501    0  0.39745260067E+02 -0.44202960058E+02  0.69054202510E+02  0.91115697111E+02  0.00000000000E+00 0. -1.
<scales pt_clust_5="13000.00000" pt_clust_6="13000.00000" pt_clust_7="13000.00000" pt_clust_8="13000.00000" pt_clust_9="59.44401"></scales>
<clustering>
<clus scale="   59.444">  2  9  1 -1</clus>
<clus scale="   79.989">  5  6 -1 -1</clus>
<clus scale="   95.045">  7  8 -1 -1</clus>
<clus scale="  230.570">  2  5  1 -1</clus>
<clus scale="   59.444">  2  5  1 -1</clus>
</clustering>
</event>
<event>
 9    1  0.6296820E-005  0.1225576E+03  0.7546771E-02  0.1253305E+00
          1   -1    0    0  502    0 -0.00000000000E+00  0.00000000000E+00  0.76030165183E+03  0.76030165183E+03  0.00000000000E+00 0. -1.
         21   -1    0    0  501  502  0.00000000000E+00 -0.00000000000E+00 -0.35812670763E+02  0.35812670763E+02  0.00000000000E+00 0. -1.
         23    2    1    2    0    0 -0.13928687227E+02 -0.17339440242E+02  0.42654866918E+03  0.44226332890E+03  0.11471015822E+03 0.  0.
        -24    2    1    2    0    0  0.55147205998E+02  0.72574979076E+02  0.18818448287E+03  0.22425055757E+03  0.81034381950E+02 0.  0.
         13    1    4    4    0    0 -0.97535765871E+01  0.53397876253E+02  0.82597094195E+02  0.98836963804E+02  0.00000000000E+00 0. -1.
        -14    1    4    4    0    0  0.64900782585E+02  0.19177102824E+02  0.10558738868E+03  0.12541359376E+03  0.00000000000E+00 0.  1.
        -13    1    3    3    0    0 -0.24303156595E+02 -0.62828037204E+02  0.20259151525E+03  0.21349784011E+03  0.00000000000E+00 0.  1.
         13    1    3    3    0    0  0.10374469368E+02  0.45488596962E+02  0.22395715393E+03  0.22876548880E+03  0.00000000000E+00 0. -1.
          2    1    1    2  501    0 -0.41218518771E+02 -0.55235538835E+02  0.10975582902E+03  0.12960043612E+03  0.00000000000E+00 0. -1.
<scales pt_clust_5="13000.00000" pt_clust_6="13000.00000" pt_clust_7="13000.00000" pt_clust_8="13000.00000" pt_clust_9="68.91974"></scales>
<clustering>
<clus scale="   68.920">  2  9  1 -1</clus>
<clus scale="   81.034">  5  6 -1 -1</clus>
<clus scale="   91.807">  2  5  1 -1</clus>
<clus scale="  114.710">  7  8 -1 -1</clus>
<clus scale="   68.920">  2  5  1 -1</clus>
</clustering>
</event>
<event>
 9    1  0.6296820E-005  0.1319711E+03  0.7546771E-02  0.1244754E+00
          1   -1    0    0  502    0 -0.00000000000E+00  0.00000000000E+00  0.11267225509E+04  0.11267225509E+04  0.00000000000E+00 0. -1.
         21   -1    0    0  501  502  0.00000000000E+00 -0.00000000000E+00 -0.28846591680E+02  0.28846591680E+02  0.00000000000E+00 0.  1.
        -24    2    1    2    0    0  0.15485970533E+02 -0.13336657180E+02  0.15860833535E+03  0.18102320267E+03  0.84824018726E+02 0.  0.
         23    2    1    2    0    0  0.90464713667E+02  0.28468938249E+01  0.29777384668E+03  0.32427688115E+03  0.91072842586E+02 0.  0.
         11    1    3    3    0    0 -0.28179468024E+02  0.22562074515E+01  0.11109550828E+03  0.11463587942E+03  0.00000000000E+00 0. -1.
        -12    1    3    3    0    0  0.43665438557E+02 -0.15592864631E+02  0.47512827074E+02  0.66387323251E+02  0.00000000000E+00 0.  1.
        -13    1    4    4    0    0 -0.82849231644E+01 -0.21241210429E+02  0.28763604155E+02  0.36703867594E+02  0.00000000000E+00 0.  1.
         13    1    4    4    0    0  0.98749636831E+02  0.24088104254E+02  0.26901024252E+03  0.28757301355E+03  0.00000000000E+00 0. -1.
          2    1    1    2  501    0 -0.10595068420E+03  0.10489763355E+02  0.64149377721E+03  0.65026905879E+03  0.00000000000E+00 0. -1.
<scales pt_clust_5="13000.00000" pt_clust_6="13000.00000" pt_clust_7="13000.00000" pt_clust_8="13000.00000" pt_clust_9="95.50979"></scales>
<clustering>
<clus scale="   84.824">  5  6 -1 -1</clus>
<clus scale="   87.251">  1  5  2 -1</clus>
<clus scale="   91.073">  7  8 -1 -1</clus>
<clus scale="   95.510">  2  9  1 -1</clus>
<clus scale="   95.510">  2  5  1 -1</clus>
</clustering>
</event>
<event>
 9    1  0.6296820E-005  0.1077531E+03  0.7546771E-02  0.1269810E+00
          3   -1    0    0  502    0 -0.00000000000E+00  0.00000000000E+00  0.19269111145E+03  0.19269111145E+03  0.00000000000E+00 0. -1.
         21   -1    0    0  501  502  0.00000000000E+00 -0.00000000000E+00 -0.87936621207E+02  0.87936621207E+02  0.00000000000E+00 0.  1.
        -24    2    1    2    0    0  0.21954286183E+02 -0.59408728849E+02  0.10029982072E+03  0.14350320916E+03  0.80757224184E+02 0.  0.
         23    2    1    2    0    0 -0.86959102486E+01  0.31654658729E+02 -0.16855982874E+02  0.99705052013E+02  0.92624710331E+02 0.  0.
         11    1    3    3    0    0  0.50324903721E+02 -0.21238482082E+02  0.46898209901E+02  0.71993827149E+02  0.00000000000E+00 0. -1.
        -12    1    3    3    0    0 -0.28370617538E+02 -0.38170246767E+02  0.53401610814E+02  0.71509382009E+02  0.00000000000E+00 0.  1.
        -11    1    4    4    0    0 -0.89288775244E+01 -0.31960358047E+02 -0.14026184120E+02  0.36026700950E+02  0.00000000000E+00 0. -1.
         11    1    4    4    0    0  0.23296727575E+00  0.63615016776E+02 -0.28297987536E+01  0.63678351063E+02  0.00000000000E+00 0.  1.
          4    1    1    2  501    0 -0.13258375934E+02  0.27754070120E+02  0.21310652404E+02  0.37419471489E+02  0.00000000000E+00 0. -1.
<scales pt_clust_5="13000.00000" pt_clust_6="13000.00000" pt_clust_7="13000.00000" pt_clust_8="13000.00000" pt_clust_9="30.75831"></scales>
<clustering>
<clus scale="   30.758">  2  9  1 -1</clus>
<clus scale="   80.757">  5  6 -1 -1</clus>
<clus scale="   92.625">  7  8 -1 -1</clus>
<clus scale="   97.740">  1  5  2 -1</clus>
<clus scale="   30.758">  2  5  1 -1</clus>
</clustering>
</event>
<event>
 9    1  0.6296820E-005  0.9980333E+02  0.7546771E-02  0.1283032E+00
         21   -1    0    0  501  502  0.00000000000E+00  0.00000000000E+00  0.44093919115E+02  0.44093919115E+02  0.00000000000E+00 0. -1.
          1   -1    0    0  502    0 -0.00000000000E+00 -0.00000000000E+00 -0.28565895286E+03  0.28565895286E+03  0.00000000000E+00 0. -1.
         23    2    1    2    0    0 -0.31259786657E+02  0.25901371131E+02 -0.10734898249E+03  0.14519516573E+03  0.88936926074E+02 0.  0.
        -24    2    1    2    0    0  0.20696153980E+02 -0.49258441320E+02 -0.94663357312E+02  0.13742429283E+03  0.84080676794E+02 0.  0.
         13    1    4    4    0    0 -0.28510484220E+02 -0.39589356603E+02 -0.54739575353E+02  0.73325206966E+02  0.00000000000E+00 0. -1.
        -14    1    4    4    0    0  0.49206638199E+02 -0.96690847170E+01 -0.39923781959E+02  0.64099085860E+02  0.00000000000E+00 0.  1.
        -13    1    3    3    0    0 -0.55119584245E+02  0.34084522915E+02 -0.99562672149E+02  0.11879667064E+03  0.00000000000E+00 0. -1.
         13    1    3    3    0    0  0.23859797587E+02 -0.81831517843E+01 -0.77863103448E+01  0.26398495086E+02  0.00000000000E+00 0.  1.
          2    1    1    2  501    0  0.10563632678E+02  0.23357070190E+02 -0.39552693943E+02  0.47133413428E+02  0.00000000000E+00 0. -1.
<scales pt_clust_5="13000.00000" pt_clust_6="13000.00000" pt_clust_7="13000.00000" pt_clust_8="13000.00000" pt_clust_9="25.63481"></scales>
<clustering>
<clus scale="   25.635">  1  9  2 -1</clus>
<clus scale="   84.081">  5  6 -1 -1</clus>
<clus scale="   88.937">  7  8 -1 -1</clus>
<clus scale="   95.501">  1  5  2 -1</clus>
<clus scale="   25.635">  1  5  2 -1</clus>
</clustering>
</event>
<event>
 9    1  0.6296820E-005  0.1188825E+03  0.7546771E-02  0.1248043E+00
         21   -1    0    0  501  502  0.00000000000E+00  0.00000000000E+00  0.31833002765E+03  0.31833002765E+03  0.00000000000E+00 0. -1.
          1   -1    0    0  502    0 -0.00000000000E+00 -0.00000000000E+00 -0.23195346110E+03  0.23195346110E+03  0.00000000000E+00 0. -1.
        -24    2    1    2    0    0  0.65917412722E+02 -0.17160881623E+02 -0.14973586957E+03  0.18352458643E+03  0.81368556776E+02 0.  0.
         23    2    1    2    0    0 -0.14736045412E+03  0.52977646231E+01  0.81182021623E+02  0.19132476689E+03  0.90947655498E+02 0.  0.
         11    1    3    3    0    0  0.78097022948E+02  0.58542595178E+00 -0.85604221028E+02  0.11587739372E+03  0.00000000000E+00 0. -1.
        -12    1    3    3    0    0 -0.12179610226E+02 -0.17746307575E+02 -0.64131648540E+02  0.67647192716E+02  0.00000000000E+00 0.  1.
        -11    1    4    4    0    0 -0.12625954356E+03 -0.10217041911E+02  0.24688983382E+02  0.12905582585E+03  0.00000000000E+00 0. -1.
         11    1    4    4    0    0 -0.21100910564E+02  0.15514806535E+02  0.56493038241E+02  0.62268941039E+02  0.00000000000E+00 0.  1.
          2    1    1    2  501    0  0.81443041401E+02  0.11863117000E+02  0.15493041450E+03  0.17543413543E+03  0.00000000000E+00 0. -1.
<scales pt_clust_5="13000.00000" pt_clust_6="13000.00000" pt_clust_7="13000.00000" pt_clust_8="13000.00000" pt_clust_9="82.30251"></scales>
<clustering>
<clus scale="   81.369">  5  6 -1 -1</clus>
<clus scale="   82.303">  1  9  2 -1</clus>
<clus scale="   90.948">  7  8 -1 -1</clus>
<clus scale="  111.725">  2  5  1 -1</clus>
<clus scale="   82.303">  1  5  2 -1</clus>
</clustering>
</event>
<event>
 9    1  0.6296820E-005  0.9312765E+02  0.7546771E-02  0.1302882E+00
         21   -1    0    0  501  502  0.00000000000E+00  0.00000000000E+00  0.35611244582E+02  0.35611244582E+02  0.00000000000E+00 0. -1.
          1   -1    0    0  502    0 -0.00000000000E+00 -0.00000000000E+00 -0.72308063724E+03  0.72308063724E+03  0.00000000000E+00 0. -1.
         23    2    1    2    0    0  0.35996073184E+02  0.10673379934E+02 -0.19776392387E+03  0.22098350113E+03  0.91178395802E+02 0.  0.
        -24    2    1    2    0    0  0.14718349842E+02  0.10277909896E+02 -0.51217261978E+02  0.95800226483E+02  0.78944348853E+02 0.  0.
         13    1    4    4    0    0 -0.13431124755E+02  0.38642343836E+02 -0.28141952191E+02  0.49654761327E+02  0.00000000000E+00 0. -1.
        -14    1    4    4    0    0  0.28149474597E+02 -0.28364433939E+02 -0.23075309786E+02  0.46145465157E+02  0.00000000000E+00 0.  1.
        -13    1    3    3    0    0  0.65827877217E+02  0.32882897042E+01 -0.15395283177E+03  0.16746819602E+03  0.00000000000E+00 0. -1.
         13    1    3    3    0    0 -0.29831804033E+02  0.73850902297E+01 -0.43811092105E+02  0.53515305109E+02  0.00000000000E+00 0.  1.
          2    1    1    2  501    0 -0.50714423026E+02 -0.20951289830E+02 -0.43848820681E+03  0.44190815422E+03  0.00000000000E+00 0. -1.
<scales pt_clust_5="13000.00000" pt_clust_6="13000.00000" pt_clust_7="13000.00000" pt_clust_8="13000.00000" pt_clust_9="54.87178"></scales>
<clustering>
<clus scale="   54.872">  1  9  2 -1</clus>
<clus scale="   78.944">  5  6 -1 -1</clus>
<clus scale="   81.188">  1  5  2 -1</clus>
<clus scale="   91.178">  7  8 -1 -1</clus>
<clus scale="   54.872">  1  5  2 -1</clus>
</clustering>
</event>
<event>
 9    1  0.6296820E-005  0.1361056E+03  0.7546771E-02  0.1218906E+00
         21   -1    0    0  501  502  0.00000000000E+00  0.00000000000E+00  0.25037428923E+03  0.25037428923E+03  0.00000000000E+00 0.  1.
          1   -1    0    0  502    0 -0.00000000000E+00 -0.00000000000E+00 -0.24099284575E+03  0.24099284575E+03  0.00000000000E+00 0. -1.
         23    2    1    2    0    0 -0.88255900847E+02 -0.64320764791E+02 -0.18843653289E+03  0.23289842610E+03  0.82505061284E+02 0.  0.
        -24    2    1    2    0    0  0.67095610032E+02  0.75651337135E+02  0.19507399597E+03  0.23430946208E+03  0.81376375096E+02 0.  0.
         11    1    4    4    0    0  0.51632898820E+01  0.62482130493E+02  0.69000946131E+02  0.93229859811E+02  0.00000000000E+00 0. -1.
        -12    1    4    4    0    0  0.61932320150E+02  0.13169206642E+02  0.12607304984E+03  0.14107960227E+03  0.00000000000E+00 0.  1.
        -13    1    3    3    0    0 -0.33099222277E+02 -0.68232707804E+02 -0.74781305334E+02  0.10650588978E+03  0.00000000000E+00 0. -1.
         13    1    3    3    0    0 -0.55156678570E+02  0.39119430136E+01 -0.11365522755E+03  0.12639253633E+03  0.00000000000E+00 0.  1.
          2    1    1    2  501    0  0.21160290815E+02 -0.11330572344E+02  0.27439803980E+01  0.24159246789E+02  0.00000000000E+00 0. -1.
<scales pt_clust_5="13000.00000" pt_clust_6="13000.00000" pt_clust_7="13000.00000" pt_clust_8="13000.00000" pt_clust_9="24.00291"></scales>
<clustering>
<clus scale="   24.003">  1  9  2 -1</clus>
<clus scale="   81.376">  5  6 -1 -1</clus>
<clus scale="   82.505">  7  8 -1 -1</clus>
<clus scale="  135.424">  1  5  2 -1</clus>
<clus scale="   24.003">  1  5  2 -1</clus>
</clustering>
</event>
<event>
 9    1  0.6296820E-005  0.1080579E+03  0.7546771E-02  0.1273901E+00
         21   -1    0    0  501  502  0.00000000000E+00  0.00000000000E+00  0.21124543732E+02  0.21124543732E+02  0.00000000000E+00 0.  1.
         -2   -1    0    0    0  501 -0.00000000000E+00 -0.00000000000E+00 -0.67396147600E+03  0.67396147600E+03  0.00000000000E+00 0.  1.
         23    2    1    2    0    0 -0.18971773394E+02  0.32953866426E+02 -0.24683209293E+03  0.26726627378E+03  0.95180320990E+02 0.  0.
        -24    2    1    2    0    0  0.46563044920E+02 -0.44486794672E+02 -0.23989004024E+03  0.25903463648E+03  0.73515436737E+02 0.  0.
         13    1    4    4    0    0  0.62040527826E+02 -0.50268964478E+02 -0.18017882518E+03  0.19707969181E+03  0.00000000000E+00 0. -1.
        -14    1    4    4    0    0 -0.15477482906E+02  0.57821698066E+01 -0.59711215062E+02  0.61954944669E+02  0.00000000000E+00 0.  1.
        -11    1    3    3    0    0  0.24421380534E+02 -0.17013564771E+02 -0.38425323590E+02  0.48604225190E+02  0.00000000000E+00 0.  1.
         11    1    3    3    0    0 -0.43393153928E+02  0.49967431197E+02 -0.20840676934E+03  0.21866204859E+03  0.00000000000E+00 0. -1.
         -1    1    1    2    0  502 -0.27591271526E+02  0.11532928246E+02 -0.16611479909E+03  0.16878510946E+03  0.00000000000E+00 0.  1.
<scales pt_clust_5="13000.00000" pt_clust_6="13000.00000" pt_clust_7="13000.00000" pt_clust_8="13000.00000" pt_clust_9="29.90464"></scales>
<clustering>
<clus scale="   29.905">  1  9  2 -1</clus>
<clus scale="   73.515">  5  6 -1 -1</clus>
<clus scale="   89.564">  1  5  2 -1</clus>
<clus scale="   95.180">  7  8 -1 -1</clus>
<clus scale="   29.905">  1  5  2 -1</clus>
</clustering>
</event>
<event>
 9    1  0.6296820E-005  0.1397072E+03  0.7546771E-02  0.1234392E+00
         21   -1    0    0  501  502  0.00000000000E+00  0.00000000000E+00  0.32775243335E+03  0.32775243335E+03  0.00000000000E+00 0. -1.
          3   -1    0    0  502    0 -0.00000000000E+00 -0.00000000000E+00 -0.12646360185E+03  0.12646360185E+03  0.00000000000E+00 0. -1.
        -24    2    1    2    0    0  0.32360196248E+01  0.38524303914E+02  0.94884516485E+02  0.13131999005E+03  0.82141795103E+02 0.  0.
         23    2    1    2    0    0  0.72843735507E+02  0.65015754268E+02  0.13593498208E+03  0.19106003684E+03  0.92154002740E+02 0.  0.
         11    1    3    3    0    0  0.82541650084E+01 -0.24768055597E+02  0.18519413378E+02  0.32008693974E+02  0.00000000000E+00 0. -1.
        -12    1    3    3    0    0 -0.50181453836E+01  0.63292359511E+02  0.76365103107E+02  0.99311296075E+02  0.00000000000E+00 0.  1.
        -11    1    4    4    0    0 -0.71826704748E+01  0.18876238968E+02  0.81227849500E+02  0.83701055471E+02  0.00000000000E+00 0.  1.
         11    1    4    4    0    0  0.80026405982E+02  0.46139515300E+02  0.54707132577E+02  0.10735898137E+03  0.00000000000E+00 0. -1.
          4    1    1    2  501    0 -0.76079755132E+02 -0.10354005818E+03 -0.29530667056E+02  0.13183600831E+03  0.00000000000E+00 0. -1.
<scales pt_clust_5="13000.00000" pt_clust_6="13000.00000" pt_clust_7="13000.00000" pt_clust_8="13000.00000" pt_clust_9="105.00356"></scales>
<clustering>
<clus scale="   82.142">  5  6 -1 -1</clus>
<clus scale="   90.785">  2  5  1 -1</clus>
<clus scale="   92.154">  7  8 -1 -1</clus>
<clus scale="  105.004">  1  9  2 -1</clus>
<clus scale="  105.004">  1  5  2 -1</clus>
</clustering>
</event>
<event>
 9    1  0.6296820E-005  0.1095025E+03  0.7546771E-02  0.1267168E+00
          1   -1    0    0  502    0 -0.00000000000E+00  0.00000000000E+00  0.30804613770E+03  0.30804613770E+03  0.00000000000E+00 0. -1.
         21   -1    0    0  501  502  0.00000000000E+00 -0.00000000000E+00 -0.11349817256E+03  0.11349817256E+03  0.00000000000E+00 0.  1.
         23    2    1    2    0    0  0.17790468813E+02  0.53792507922E+02  0.17687701138E+03  0.20222259373E+03  0.79989784171E+02 0.  0.
        -24    2    1    2    0    0  0.55213634660E+02  0.29679415018E+02 -0.21540521508E+02  0.10170071145E+03  0.77133828602E+02 0.  0.
         13    1    4    4    0    0  0.36156837230E+02  0.34022912674E+02  0.21749676937E+02  0.54202619052E+02  0.00000000000E+00 0. -1.
        -14    1    4    4    0    0  0.19056797430E+02 -0.43434976559E+01 -0.43290198445E+02  0.47498092399E+02  0.00000000000E+00 0.  1.
        -11    1    3    3    0    0  0.96807224582E+01 -0.20825477432E+02  0.41402695068E+02  0.47345538929E+02  0.00000000000E+00 0. -1.
         11    1    3    3    0    0  0.81097463546E+01  0.74617985353E+02  0.13547431631E+03  0.15487705480E+03  0.00000000000E+00 0.  1.
          2    1    1    2  501    0 -0.73004103473E+02 -0.83471922940E+02  0.39211475273E+02  0.11762100508E+03  0.00000000000E+00 0. -1.
<scales pt_clust_5="13000.00000" pt_clust_6="13000.00000" pt_clust_7="13000.00000" pt_clust_8="13000.00000" pt_clust_9="77.72505"></scales>
<clustering>
<clus scale="   77.134">  5  6 -1 -1</clus>
<clus scale="   79.990">  7  8 -1 -1</clus>
<clus scale="   98.023">  1  7  2 -1</clus>
<clus scale="   77.725">  2  9  1 -1</clus>
<clus scale="   77.725">  2  5  1 -1</clus>
</clustering>
</event>
<event>
 9    1  0.6296820E-005  0.1144451E+03  0.7546771E-02  0.1256067E+00
          1   -1    0    0  502    0 -0.00000000000E+00  0.00000000000E+00  0.23431957719E+03  0.23431957719E+03  0.00000000000E+00 0. -1.
         21   -1    0    0  501  502  0.00000000000E+00 -0.00000000000E+00 -0.11642758527E+03  0.11642758527E+03  0.00000000000E+00 0.  1.
         23    2    1    2    0    0 -0.79501823558E+02 -0.10374404468E+02  0.14165269825E+03  0.18628714401E+03  0.90604883344E+02 0.  0.
        -24    2    1    2    0    0  0.51867389765E+02  0.15863482523E+02  0.31717605298E+02  0.10223755490E+03  0.80651317085E+02 0.  0.
         13    1    4    4    0    0  0.37036199527E+02  0.27278197380E+02  0.55429810718E+02  0.72029466498E+02  0.00000000000E+00 0. -1.
        -14    1    4    4    0    0  0.14831190238E+02 -0.11414714857E+02 -0.23712205420E+02  0.30208088403E+02  0.00000000000E+00 0.  1.
        -11    1    3    3    0    0 -0.27835282978E+02  0.39720787085E+02  0.48710446639E+02  0.68740464916E+02  0.00000000000E+00 0. -1.
         11    1    3    3    0    0 -0.51666540579E+02 -0.50095191552E+02  0.92942251614E+02  0.11754667910E+03  0.00000000000E+00 0.  1.
          2    1    1    2  501    0  0.27634433792E+02 -0.54890780556E+01 -0.55478311627E+02  0.62222463548E+02  0.00000000000E+00 0. -1.
<scales pt_clust_5="13000.00000" pt_clust_6="13000.00000" pt_clust_7="13000.00000" pt_clust_8="13000.00000" pt_clust_9="28.17431"></scales>
<clustering>
<clus scale="   28.174">  2  9  1 -1</clus>
<clus scale="   80.651">  5  6 -1 -1</clus>
<clus scale="   90.605">  7  8 -1 -1</clus>
<clus scale="  106.738">  2  5  1 -1</clus>
<clus scale="   28.174">  2  5  1 -1</clus>
</clustering>
</event>
<event>
 9    1  0.6296820E-005  0.1261828E+03  0.7546771E-02  0.1240279E+00
         21   -1    0    0  501  502  0.00000000000E+00  0.00000000000E+00  0.26149179627E+03  0.26149179627E+03  0.00000000000E+00 0.  1.
         -2   -1    0    0    0  501 -0.00000000000E+00 -0.00000000000E+00 -0.13638090016E+03  0.13638090016E+03  0.00000000000E+00 0.  1.
        -24    2    1    2    0    0  0.49313298266E+02 -0.57695235462E+02 -0.77818588229E+02  0.13611646636E+03  0.81923245544E+02 0.  0.
         23    2    1    2    0    0 -0.15431299581E+02  0.58782757593E+02  0.10966163715E+03  0.16251881848E+03  0.10340770813E+03 0.  0.
         11    1    3    3    0    0  0.78842417182E+01  0.18920188589E+02 -0.31186946117E+02  0.37319705410E+02  0.00000000000E+00 0. -1.
        -12    1    3    3    0    0  0.41429056548E+02 -0.76615424052E+02 -0.46631642112E+02  0.98796760954E+02  0.00000000000E+00 0.  1.
        -11    1    4    4    0    0 -0.82306513914E+01 -0.29876751434E+02  0.28867894589E+02  0.42352322682E+02  0.00000000000E+00 0. -1.
         11    1    4    4    0    0 -0.72006481895E+01  0.88659509027E+02  0.80793742560E+02  0.12016649580E+03  0.00000000000E+00 0.  1.
         -1    1    1    2    0  502 -0.33881998685E+02 -0.10875221311E+01  0.93267847191E+02  0.99237411589E+02  0.00000000000E+00 0.  1.
<scales pt_clust_5="13000.00000" pt_clust_6="13000.00000" pt_clust_7="13000.00000" pt_clust_8="13000.00000" pt_clust_9="33.89945"></scales>
<clustering>
<clus scale="   33.899">  1  9  2 -1</clus>
<clus scale="   81.923">  5  6 -1 -1</clus>
<clus scale="  103.408">  7  8 -1 -1</clus>
<clus scale="  109.272">  2  5  1 -1</clus>
<clus scale="   33.899">  1  5  2 -1</clus>
</clustering>
</event>
<event>
 9    1  0.6296820E-005  0.2620025E+03  0.7546771E-02  0.1105946E+00
          1   -1    0    0  502    0 -0.00000000000E+00  0.00000000000E+00  0.63309061040E+03  0.63309061040E+03  0.00000000000E+00 0. -1.
         21   -1    0    0  501  502  0.00000000000E+00 -0.00000000000E+00 -0.87451273634E+02  0.87451273634E+02  0.00000000000E+00 0. -1.
        -24    2    1    2    0    0  0.59875575257E+02  0.12824445194E+03  0.27002879982E+03  0.31551601748E+03  0.81259341543E+02 0.  0.
         23    2    1    2    0    0 -0.57081219317E+01  0.40411558837E+02  0.17607181997E+03  0.20183403811E+03  0.89833270044E+02 0.  0.
         11    1    3    3    0    0  0.79457706501E+02  0.11404145906E+03  0.22829432365E+03  0.26727753314E+03  0.00000000000E+00 0. -1.
        -12    1    3    3    0    0 -0.19582131244E+02  0.14202992880E+02  0.41734476161E+02  0.48238484339E+02  0.00000000000E+00 0.  1.
        -13    1    4    4    0    0  0.28485179812E+02 -0.13677535926E+02  0.83668789485E+02  0.89436831293E+02  0.00000000000E+00 0.  1.
         13    1    4    4    0    0 -0.34193301743E+02  0.54089094763E+02  0.92403030486E+02  0.11239720681E+03  0.00000000000E+00 0. -1.
          2    1    1    2  501    0 -0.54167453325E+02 -0.16865601078E+03  0.99538716984E+02  0.20319182846E+03  0.00000000000E+00 0. -1.
<scales pt_clust_5="13000.00000" pt_clust_6="13000.00000" pt_clust_7="13000.00000" pt_clust_8="13000.00000" pt_clust_9="177.14108"></scales>
<clustering>
<clus scale="   81.259">  5  6 -1 -1</clus>
<clus scale="   89.833">  7  8 -1 -1</clus>
<clus scale="   94.677">  5  7 -1 -1</clus>
<clus scale="  177.141">  2  9  1 -1</clus>
<clus scale="  177.141">  2  5  1 -1</clus>
</clustering>
</event>
<event>
 9    1  0.6296820E-005  0.9283765E+02  0.7546771E-02  0.1302476E+00
          1   -1    0    0  502    0 -0.00000000000E+00  0.00000000000E+00  0.58799142709E+03  0.58799142709E+03  0.00000000000E+00 0. -1.
         21   -1    0    0  501  502  0.00000000000E+00 -0.00000000000E+00 -0.82438948365E+02  0.82438948365E+02  0.00000000000E+00 0. -1.
         23    2    1    2    0    0  0.13511931151E+01  0.20048514336E+02  0.49838851473E+03  0.50719244623E+03  0.91920059047E+02 0.  0.
        -24    2    1    2    0    0  0.16030878300E+02  0.36073983959E+02  0.36385898975E+02  0.97619389884E+02  0.81530915973E+02 0.  0.
         13    1    4    4    0    0  0.10712409373E+02  0.59372689253E+02  0.41440319532E+02  0.73192704736E+02  0.00000000000E+00 0. -1.
        -14    1    4    4    0    0  0.53184689274E+01 -0.23298705294E+02 -0.50544205571E+01  0.24426685147E+02  0.00000000000E+00 0.  1.
        -13    1    3    3    0    0 -0.39005071560E+02 -0.13700100666E+02  0.23320972575E+03  0.23684565554E+03  0.00000000000E+00 0.  1.
         13    1    3    3    0    0  0.40356264676E+02  0.33748615002E+02  0.26517878898E+03  0.27034679069E+03  0.00000000000E+00 0. -1.
          2    1    1    2  501    0 -0.17382071416E+02 -0.56122498295E+02 -0.29221934974E+02  0.65618539340E+02  0.00000000000E+00 0. -1.
<scales pt_clust_5="13000.00000" pt_clust_6="13000.00000" pt_clust_7="13000.00000" pt_clust_8="13000.00000" pt_clust_9="58.75263"></scales>
<clustering>
<clus scale="   58.753">  2  9  1 -1</clus>
<clus scale="   81.531">  5  6 -1 -1</clus>
<clus scale="   82.564">  2  5  1 -1</clus>
<clus scale="   91.920">  7  8 -1 -1</clus>
<clus scale="   58.753">  2  5  1 -1</clus>
</clustering>
</event>
<event>
 9    1  0.6296820E-005  0.1311008E+03  0.7546771E-02  0.1231211E+00
          1   -1    0    0  502    0 -0.00000000000E+00  0.00000000000E+00  0.38741744884E+02  0.38741744884E+02  0.00000000000E+00 0. -1.
         21   -1    0    0  501  502  0.00000000000E+00 -0.00000000000E+00 -0.84697822360E+03  0.84697822360E+03  0.00000000000E+00 0. -1.
        -24    2    1    2    0    0  0.89983749072E+02  0.13959471132E+02 -0.88836834916E+02  0.15083730028E+03  0.81042988504E+02 0.  0.
         23    2    1    2    0    0 -0.56304658932E+02 -0.10619252553E+02 -0.51870780185E+03  0.53135710815E+03  0.99998047652E+02 0.  0.
         13    1    3    3    0    0  0.97275864783E+02 -0.84736717202E+01 -0.64990073577E+02  0.11729495575E+03  0.00000000000E+00 0. -1.
        -14    1    3    3    0    0 -0.72921157111E+01  0.22433142852E+02 -0.23846761339E+02  0.33542344523E+02  0.00000000000E+00 0.  1.
        -13    1    4    4    0    0 -0.84742519666E+02 -0.11502979055E+02 -0.35206172416E+03  0.36229969747E+03  0.00000000000E+00 0.  1.
         13    1    4    4    0    0  0.28437860734E+02  0.88372650159E+00 -0.16664607769E+03  0.16905741068E+03  0.00000000000E+00 0. -1.
          2    1    1    2  501    0 -0.33679090140E+02 -0.33402185789E+01 -0.20069184195E+03  0.20352556006E+03  0.00000000000E+00 0. -1.
<scales pt_clust_5="13000.00000" pt_clust_6="13000.00000" pt_clust_7="13000.00000" pt_clust_8="13000.00000" pt_clust_9="33.84432"></scales>
<clustering>
<clus scale="   33.844">  2  9  1 -1</clus>
<clus scale="   81.043">  5  6 -1 -1</clus>
<clus scale="   99.998">  7  8 -1 -1</clus>
<clus scale="  117.285">  1  5  2 -1</clus>
<clus scale="   33.844">  2  5  1 -1</clus>
</clustering>
</event>
<event>
 9    1  0.6296820E-005  0.1062547E+03  0.7546771E-02  0.1279615E+00
         21   -1    0    0  501  502  0.00000000000E+00  0.00000000000E+00  0.69739772868E+03  0.69739772868E+03  0.00000000000E+00 0. -1.
         -2   -1    0    0    0  501 -0.00000000000E+00 -0.00000000000E+00 -0.34844247622E+02  0.34844247622E+02  0.00000000000E+00 0.  1.
        -24    2    1    2    0    0 -0.56053488308E+02  0.68810507889E+01  0.10038603423E+03  0.13126462888E+03  0.62957958322E+02 0.  0.
         23    2    1    2    0    0  0.55189779331E+02  0.62442743072E+02  0.46928714016E+03  0.48507529500E+03  0.90125545725E+02 0.  0.
         11    1    3    3    0    0 -0.12834679858E+02  0.32016636662E+02  0.43904882447E+02  0.55833974719E+02  0.00000000000E+00 0. -1.
        -12    1    3    3    0    0 -0.43218808449E+02 -0.25135585873E+02  0.56481151779E+02  0.75430654162E+02  0.00000000000E+00 0.  1.
        -11    1    4    4    0    0  0.51568000912E+02  0.54117406624E+00  0.12452608045E+03  0.13478240352E+03  0.00000000000E+00 0.  1.
         11    1    4    4    0    0  0.36217784190E+01  0.61901569006E+02  0.34476105971E+03  0.35029289148E+03  0.00000000000E+00 0. -1.
         -1    1    1    2    0  502  0.86370897625E+00 -0.69323793861E+02  0.92880306671E+02  0.11590205242E+03  0.00000000000E+00 0.  1.
<scales pt_clust_5="13000.00000" pt_clust_6="13000.00000" pt_clust_7="13000.00000" pt_clust_8="13000.00000" pt_clust_9="69.32921"></scales>
<clustering>
<clus scale="   62.958">  5  6 -1 -1</clus>
<clus scale="   69.329">  1  9  2 -1</clus>
<clus scale="   84.446">  2  5  1 -1</clus>
<clus scale="   90.126">  7  8 -1 -1</clus>
<clus scale="   69.329">  1  5  2 -1</clus>
</clustering>
</event>
<event>
 9    1  0.6296820E-005  0.1008736E+03  0.7546771E-02  0.1284425E+00
         21   -1    0    0  501  502  0.00000000000E+00  0.00000000000E+00  0.17104056850E+03  0.17104056850E+03  0.00000000000E+00 0. -1.
          1   -1    0    0  502    0 -0.00000000000E+00 -0.00000000000E+00 -0.25812434697E+03  0.25812434697E+03  0.00000000000E+00 0. -1.
         23    2    1    2    0    0 -0.11700303215E+02 -0.47356430820E+02  0.22666879950E+00  0.10359107022E+03  0.91386704801E+02 0.  0.
        -24    2    1    2    0    0 -0.69573208391E+01  0.30717966720E+02  0.10292241054E+03  0.13370543823E+03  0.79322908592E+02 0.  0.
         11    1    4    4    0    0 -0.41401255445E+02  0.24577579437E+02  0.74135242266E+02  0.88397712127E+02  0.00000000000E+00 0. -1.
        -12    1    4    4    0    0  0.34443934606E+02  0.61403872829E+01  0.28787168274E+02  0.45307726100E+02  0.00000000000E+00 0.  1.
        -13    1    3    3    0    0 -0.19704584893E+02  0.24412879199E+02  0.46733036413E+00  0.31376388165E+02  0.00000000000E+00 0. -1.
         13    1    3    3    0    0  0.80042816777E+01 -0.71769310019E+02 -0.24066156463E+00  0.72214682051E+02  0.00000000000E+00 0.  1.
          2    1    1    2  501    0  0.18657624054E+02  0.16638464100E+02 -0.19023285781E+03  0.19186840703E+03  0.00000000000E+00 0. -1.
<scales pt_clust_5="13000.00000" pt_clust_6="13000.00000" pt_clust_7="13000.00000" pt_clust_8="13000.00000" pt_clust_9="24.99892"></scales>
<clustering>
<clus scale="   24.999">  1  9  2 -1</clus>
<clus scale="   79.323">  5  6 -1 -1</clus>
<clus scale="   90.089">  1  5  2 -1</clus>
<clus scale="   91.387">  7  8 -1 -1</clus>
<clus scale="   24.999">  1  5  2 -1</clus>
</clustering>
</event>
<event>
 9    1  0.6296820E-005  0.1005854E+03  0.7546771E-02  0.1279731E+00
          1   -1    0    0  502    0 -0.00000000000E+00  0.00000000000E+00  0.32623139416E+03  0.32623139416E+03  0.00000000000E+00 0. -1.
         21   -1    0    0  501  502  0.00000000000E+00 -0.00000000000E+00 -0.43568512362E+03  0.43568512362E+03  0.00000000000E+00 0. -1.
         23    2    1    2    0    0 -0.40429310392E+02  0.19023475294E+01  0.26834973289E+03  0.28633199610E+03  0.91303257251E+02 0.  0.
        -24    2    1    2    0    0  0.10439833006E+03 -0.77886761394E+02 -0.33319529810E+03  0.36670130468E+03  0.80531864848E+02 0.  0.
         11    1    4    4    0    0  0.72762158928E+02 -0.86334482920E+02 -0.20130073844E+03  0.23080286395E+03  0.00000000000E+00 0. -1.
        -12    1    4    4    0    0  0.31636171133E+02  0.84477215253E+01 -0.13189455966E+03  0.13589844073E+03  0.00000000000E+00 0.  1.
        -11    1    3    3    0    0 -0.64200454649E+02  0.22694831159E+02  0.19149272821E+03  0.20323931385E+03  0.00000000000E+00 0. -1.
         11    1    3    3    0    0  0.23771144257E+02 -0.20792483630E+02  0.76857004678E+02  0.83092682246E+02  0.00000000000E+00 0.  1.
          2    1    1    2  501    0 -0.63969019669E+02  0.75984413865E+02 -0.44608164246E+02  0.10888321700E+03  0.00000000000E+00 0. -1.
<scales pt_clust_5="13000.00000" pt_clust_6="13000.00000" pt_clust_7="13000.00000" pt_clust_8="13000.00000" pt_clust_9="99.32606"></scales>
<clustering>
<clus scale="   80.532">  5  6 -1 -1</clus>
<clus scale="   91.303">  7  8 -1 -1</clus>
<clus scale="   99.326">  2  9  1 -1</clus>
<clus scale="   99.326">  2  5  1 -1</clus>
<clus scale="   99.326">  2  5  1 -1</clus>
</clustering>
</event>
<event>
 9    1  0.6296820E-005  0.2448673E+03  0.7546771E-02  0.1149133E+00
          3   -1    0    0  502    0 -0.00000000000E+00  0.00000000000E+00  0.47763976265E+03  0.47763976265E+03  0.00000000000E+00 0. -1.
         21   -1    0    0  501  502  0.00000000000E+00 -0.00000000000E+00 -0.23970744757E+03  0.23970744757E+03  0.00000000000E+00 0. -1.
        -24    2    1    2    0    0 -0.11565338889E+02  0.75109629982E+02  0.18458862650E+03  0.21516205884E+03  0.80290329138E+02 0.  0.
         23    2    1    2    0    0  0.23260991569E+03 -0.78092511170E+02  0.91655650318E+02  0.27782515289E+03  0.92629607377E+02 0.  0.
         11    1    3    3    0    0  0.24159215401E+02  0.42728322984E+02  0.14400127309E+03  0.15213725358E+03  0.00000000000E+00 0. -1.
        -12    1    3    3    0    0 -0.35724554290E+02  0.32381306999E+02  0.40587353404E+02  0.63024805263E+02  0.00000000000E+00 0.  1.
        -13    1    4    4    0    0  0.42918149282E+02 -0.57066762237E+02  0.23719694111E+02  0.75240991346E+02  0.00000000000E+00 0.  1.
         13    1    4    4    0    0  0.18969176641E+03 -0.21025748933E+02  0.67935956207E+02  0.20258416154E+03  0.00000000000E+00 0. -1.
          4    1    1    2  501    0 -0.22104457680E+03  0.29828811876E+01 -0.38311961733E+02  0.22435999850E+03  0.00000000000E+00 0. -1.
<scales pt_clust_5="13000.00000" pt_clust_6="13000.00000" pt_clust_7="13000.00000" pt_clust_8="13000.00000" pt_clust_9="226.67100"></scales>
<clustering>
<clus scale="   80.290">  5  6 -1 -1</clus>
<clus scale="   92.630">  7  8 -1 -1</clus>
<clus scale="  110.552">  1  5  2 -1</clus>
<clus scale="  226.671">  2  9  1 -1</clus>
<clus scale="  226.671">  2  5  1 -1</clus>
</clustering>
</event>
<event>
 9    1  0.6296820E-005  0.1356254E+03  0.7546771E-02  0.1222371E+00
         21   -1    0    0  501  502  0.00000000000E+00  0.00000000000E+00  0.40330777186E+03  0.40330777186E+03  0.00000000000E+00 0. -1.
          1   -1    0    0  502    0 -0.00000000000E+00 -0.00000000000E+00 -0.94898582890E+02  0.94898582890E+02  0.00000000000E+00 0. -1.
        -24    2    1    2    0    0  0.97450341041E+02 -0.54179141221E+02  0.13741921072E+03  0.20490797957E+03  0.10330194725E+03 0.  0.
         23    2    1    2    0    0 -0.43341347792E+02  0.40576668476E+02  0.20176120684E+03  0.22958276544E+03  0.92063690706E+02 0.  0.
         13    1    3    3    0    0  0.11921362431E+03 -0.41516178327E+02  0.10752296979E+03  0.16582119984E+03  0.00000000000E+00 0. -1.
        -14    1    3    3    0    0 -0.21763283272E+02 -0.12662962895E+02  0.29896240930E+02  0.39086779731E+02  0.00000000000E+00 0.  1.
        -13    1    4    4    0    0 -0.26228303598E+02  0.70318744820E+02  0.14448209790E+03  0.16281193567E+03  0.00000000000E+00 0. -1.
         13    1    4    4    0    0 -0.17113044194E+02 -0.29742076343E+02  0.57279108948E+02  0.66770829774E+02  0.00000000000E+00 0.  1.
          2    1    1    2  501    0 -0.54108993250E+02  0.13602472745E+02 -0.30771228593E+02  0.63715609739E+02  0.00000000000E+00 0. -1.
<scales pt_clust_5="13000.00000" pt_clust_6="13000.00000" pt_clust_7="13000.00000" pt_clust_8="13000.00000" pt_clust_9="55.79259"></scales>
<clustering>
<clus scale="   55.793">  1  9  2 -1</clus>
<clus scale="   92.064">  7  8 -1 -1</clus>
<clus scale="  103.302">  5  6 -1 -1</clus>
<clus scale="  127.274">  1  7  2 -1</clus>
<clus scale="   55.793">  1  5  2 -1</clus>
</clustering>
</event>
<event>
 9    1  0.6296820E-005  0.1052776E+03  0.7546771E-02  0.1273570E+00
         21   -1    0    0  501  502  0.00000000000E+00  0.00000000000E+00  0.58583876841E+02  0.58583876841E+02  0.00000000000E+00 0.  1.
          3   -1    0    0  502    0 -0.00000000000E+00 -0.00000000000E+00 -0.46472105754E+03  0.46472105754E+03  0.00000000000E+00 0. -1.
        -24    2    1    2    0    0  0.47752268255E+02 -0.27709994847E+02 -0.33538637658E+03  0.34906832221E+03  0.79476720086E+02 0.  0.
         23    2    1    2    0    0 -0.63412878268E+02  0.10209991130E+02 -0.91560149232E+02  0.14285933249E+03  0.88882455539E+02 0.  0.
         13    1    3    3    0    0  0.58420844554E+02 -0.46774211506E+02 -0.25327635190E+03  0.26410174625E+03  0.00000000000E+00 0. -1.
        -14    1    3    3    0    0 -0.10668576299E+02  0.19064216659E+02 -0.82110024678E+02  0.84966575956E+02  0.00000000000E+00 0.  1.
        -13    1    4    4    0    0 -0.59088715897E+02 -0.19534366650E+02 -0.20204443497E+02  0.65431547160E+02  0.00000000000E+00 0.  1.
         13    1    4    4    0    0 -0.43241623710E+01  0.29744357780E+02 -0.71355705734E+02  0.77427785328E+02  0.00000000000E+00 0. -1.
          4    1    1    2  501    0  0.15660610013E+02  0.17500003717E+02  0.20809345116E+02  0.31377279682E+02  0.00000000000E+00 0. -1.
<scales pt_clust_5="13000.00000" pt_clust_6="13000.00000" pt_clust_7="13000.00000" pt_clust_8="13000.00000" pt_clust_9="23.48414"></scales>
<clustering>
<clus scale="   23.484">  1  9  2 -1</clus>
<clus scale="   79.477">  5  6 -1 -1</clus>
<clus scale="   88.882">  7  8 -1 -1</clus>
<clus scale="   97.467">  2  5  1 -1</clus>
<clus scale="   23.484">  1  5  2 -1</clus>
</clustering>
</event>
<event>
 9    1  0.6296820E-005  0.1077186E+03  0.7546771E-02  0.1268799E+00
          1   -1    0    0  502    0 -0.00000000000E+00  0.00000000000E+00  0.21102749840E+03  0.21102749840E+03  0.00000000000E+00 0. -1.
         21   -1    0    0  501  502  0.00000000000E+00 -0.00000000000E+00 -0.13034657197E+03  0.13034657197E+03  0.00000000000E+00 0.  1.
         23    2    1    2    0    0  0.47739520172E+02 -0.29778894640E+02  0.77579034268E+02  0.13061391245E+03  0.88744820783E+02 0.  0.
        -24    2    1    2    0    0 -0.92978112042E+02 -0.36111470515E+02 -0.17090328655E+02  0.12832353865E+03  0.78904268681E+02 0.  0.
         13    1    4    4    0    0 -0.26480707116E+02 -0.31878662101E+02  0.26045821692E+02  0.48947541045E+02  0.00000000000E+00 0. -1.
        -14    1    4    4    0    0 -0.66497404926E+02 -0.42328084135E+01 -0.43136150346E+02  0.79375997604E+02  0.00000000000E+00 0.  1.
        -13    1    3    3    0    0  0.36833090737E+02 -0.57911709539E+02  0.72823545705E+02  0.10006853394E+03  0.00000000000E+00 0. -1.
         13    1    3    3    0    0  0.10906429435E+02  0.28132814900E+02  0.47554885626E+01  0.30545378516E+02  0.00000000000E+00 0.  1.
          2    1    1    2  501    0  0.45238591870E+02  0.65890365154E+02  0.20192220824E+02  0.82436619268E+02  0.00000000000E+00 0. -1.
<scales pt_clust_5="13000.00000" pt_clust_6="13000.00000" pt_clust_7="13000.00000" pt_clust_8="13000.00000" pt_clust_9="79.92545"></scales>
<clustering>
<clus scale="   78.904">  5  6 -1 -1</clus>
<clus scale="   79.925">  2  9  1 -1</clus>
<clus scale="   88.745">  7  8 -1 -1</clus>
<clus scale="   99.767">  2  5  1 -1</clus>
<clus scale="   79.925">  2  5  1 -1</clus>
</clustering>
</event>
<event>
 9    1  0.6296820E-005  0.1149350E+03  0.7546771E-02  0.1256045E+00
         -4   -1    0    0    0  501 -0.00000000000E+00  0.00000000000E+00  0.11181754363E+03  0.11181754363E+03  0.00000000000E+00 0.  1.
         21   -1    0    0  501  502  0.00000000000E+00 -0.00000000000E+00 -0.35934990669E+03  0.35934990669E+03  0.00000000000E+00 0. -1.
        -24    2    1    2    0    0  0.70435006300E+02  0.47012716813E+01  0.57998164895E+02  0.12190675348E+03  0.80711073246E+02 0.  0.
         23    2    1    2    0    0 -0.56080245481E+02  0.16436786947E+02 -0.12232634670E+03  0.16428326928E+03  0.92790600658E+02 0.  0.
         13    1    3    3    0    0  0.31804106728E+02  0.99955482356E+00 -0.18011053129E+02  0.36563620573E+02  0.00000000000E+00 0. -1.
        -14    1    3    3    0    0  0.38630899573E+02  0.37017168578E+01  0.76009218024E+02  0.85343132905E+02  0.00000000000E+00 0.  1.
        -11    1    4    4    0    0 -0.79041696066E+01 -0.36598637804E+02 -0.34253005388E+02  0.50746473418E+02  0.00000000000E+00 0.  1.
         11    1    4    4    0    0 -0.48176075875E+02  0.53035424750E+02 -0.88073341314E+02  0.11353679587E+03  0.00000000000E+00 0. -1.
         -3    1    1    2    0  502 -0.14354760819E+02 -0.21138058628E+02 -0.18320418125E+03  0.18497742756E+03  0.00000000000E+00 0.  1.
<scales pt_clust_5="13000.00000" pt_clust_6="13000.00000" pt_clust_7="13000.00000" pt_clust_8="13000.00000" pt_clust_9="25.55145"></scales>
<clustering>
<clus scale="   25.551">  2  9  1 -1</clus>
<clus scale="   80.711">  5  6 -1 -1</clus>
<clus scale="   92.791">  7  8 -1 -1</clus>
<clus scale="  105.424">  1  5  2 -1</clus>
<clus scale="   25.551">  2  5  1 -1</clus>
</clustering>
</event>
<event>
 9    1  0.6296820E-005  0.1419742E+03  0.7546771E-02  0.1213163E+00
         21   -1    0    0  501  502  0.00000000000E+00  0.00000000000E+00  0.94954771279E+02  0.94954771279E+02  0.00000000000E+00 0.  1.
          3   -1    0    0  502    0 -0.00000000000E+00 -0.00000000000E+00 -0.31715394299E+03  0.31715394299E+03  0.00000000000E+00 0. -1.
         23    2    1    2    0    0 -0.86237867681E+02  0.32234224402E+02 -0.68079801388E+02  0.14714778310E+03  0.92420753451E+02 0.  0.
        -24    2    1    2    0    0  0.10688783637E+03 -0.72827090106E+02 -0.66857296773E+02  0.16652886611E+03  0.80828030397E+02 0.  0.
         11    1    4    4    0    0  0.25510600101E+02 -0.25367829803E+02 -0.62631367413E+02  0.72228842511E+02  0.00000000000E+00 0. -1.
        -12    1    4    4    0    0  0.81377236267E+02 -0.47459260304E+02 -0.42259293602E+01  0.94300023595E+02  0.00000000000E+00 0.  1.
        -11    1    3    3    0    0 -0.92199523907E+02 -0.51933690680E+01 -0.51984758960E+02  0.10597234760E+03  0.00000000000E+00 0.  1.
         11    1    3    3    0    0  0.59616562265E+01  0.37427593470E+02 -0.16095042428E+02  0.41175435501E+02  0.00000000000E+00 0. -1.
          4    1    1    2  501    0 -0.20649968687E+02  0.40592865705E+02 -0.87262073548E+02  0.98432065064E+02  0.00000000000E+00 0. -1.
<scales pt_clust_5="13000.00000" pt_clust_6="13000.00000" pt_clust_7="13000.00000" pt_clust_8="13000.00000" pt_clust_9="45.54343"></scales>
<clustering>
<clus scale="   45.543">  1  9  2 -1</clus>
<clus scale="   80.828">  5  6 -1 -1</clus>
<clus scale="   92.421">  7  8 -1 -1</clus>
<clus scale="  134.715">  1  5  2 -1</clus>
<clus scale="   45.543">  1  5  2 -1</clus>
</clustering>
</event>
<event>
 9    1  0.6296820E-005  0.9186338E+02  0.7546771E-02  0.1320888E+00
         21   -1    0    0  501  502  0.00000000000E+00  0.00000000000E+00  0.14690525255E+03  0.14690525255E+03  0.00000000000E+00 0. -1.
         -4   -1    0    0    0  501 -0.00000000000E+00 -0.00000000000E+00 -0.83065336191E+02  0.83065336191E+02  0.00000000000E+00 0.  1.
        -24    2    1    2    0    0  0.16230796497E+02  0.18141751756E+02 -0.12921167738E+02  0.65413417384E+02  0.59324503256E+02 0.  0.
         23    2    1    2    0    0 -0.33330423897E+01  0.30070439766E+02  0.51780103884E+02  0.10874662715E+03  0.90715540227E+02 0.  0.
         11    1    3    3    0    0  0.81791817704E+00 -0.20168584638E+02  0.43567376587E+01  0.20649986912E+02  0.00000000000E+00 0. -1.
        -12    1    3    3    0    0  0.15412878320E+02  0.38310336394E+02 -0.17277905396E+02  0.44763430472E+02  0.00000000000E+00 0.  1.
        -11    1    4    4    0    0 -0.44321744227E+02  0.11613334088E+01  0.32661916880E+02  0.55068743593E+02  0.00000000000E+00 0.  1.
         11    1    4    4    0    0  0.40988701838E+02  0.28909106358E+02  0.19118187004E+02  0.53677883556E+02  0.00000000000E+00 0. -1.
         -3    1    1    2    0  502 -0.12897754107E+02 -0.48212191522E+02  0.24980980213E+02  0.55810544208E+02  0.00000000000E+00 0.  1.
<scales pt_clust_5="13000.00000" pt_clust_6="13000.00000" pt_clust_7="13000.00000" pt_clust_8="13000.00000" pt_clust_9="49.90759"></scales>
<clustering>
<clus scale="   49.908">  1  9  2 -1</clus>
<clus scale="   59.325">  5  6 -1 -1</clus>
<clus scale="   61.065">  2  5  1 -1</clus>
<clus scale="   90.716">  7  8 -1 -1</clus>
<clus scale="   49.908">  1  5  2 -1</clus>
</clustering>
</event>
<event>
 9    1  0.6296820E-005  0.9012160E+02  0.7546771E-02  0.1312554E+00
          1   -1    0    0  502    0 -0.00000000000E+00  0.00000000000E+00  0.37609837146E+03  0.37609837146E+03  0.00000000000E+00 0. -1.
         21   -1    0    0  501  502  0.00000000000E+00 -0.00000000000E+00 -0.10141217554E+03  0.10141217554E+03  0.00000000000E+00 0.  1.
         23    2    1    2    0    0  0.19640355775E+02 -0.13167834232E+02  0.13573085670E+03  0.15551169940E+03  0.72124113576E+02 0.  0.
        -24    2    1    2    0    0  0.11991871784E+02  0.11001158436E+02 -0.68321122550E+02  0.11231140422E+03  0.87642713644E+02 0.  0.
         11    1    4    4    0    0 -0.19842164490E+02 -0.26608916917E+02 -0.74891124856E+01  0.34026941634E+02  0.00000000000E+00 0. -1.
        -12    1    4    4    0    0  0.31834036274E+02  0.37610075353E+02 -0.60832010065E+02  0.78284462584E+02  0.00000000000E+00 0.  1.
        -13    1    3    3    0    0  0.15412859677E+02  0.12862559290E+02  0.31342677473E+01  0.20318102992E+02  0.00000000000E+00 0.  1.
         13    1    3    3    0    0  0.42274960984E+01 -0.26030393522E+02  0.13259658895E+03  0.13519359641E+03  0.00000000000E+00 0. -1.
          2    1    1    2  501    0 -0.31632227559E+02  0.21666757958E+01  0.20727646178E+03  0.20968744338E+03  0.00000000000E+00 0. -1.
<scales pt_clust_5="13000.00000" pt_clust_6="13000.00000" pt_clust_7="13000.00000" pt_clust_8="13000.00000" pt_clust_9="31.70636"></scales>
<clustering>
<clus scale="   31.706">  2  9  1 -1</clus>
<clus scale="   72.124">  7  8 -1 -1</clus>
<clus scale="   75.117">  1  7  2 -1</clus>
<clus scale="   87.643">  5  6 -1 -1</clus>
<clus scale="   31.706">  2  5  1 -1</clus>
</clustering>
</event>
<event>
 9    1  0.6296820E-005  0.9085456E+02  0.7546771E-02  0.1307866E+00
         21   -1    0    0  501  502  0.00000000000E+00  0.00000000000E+00  0.77428060301E+03  0.77428060301E+03  0.00000000000E+00 0. -1.
          3   -1    0    0  502    0 -0.00000000000E+00 -0.00000000000E+00 -0.38832299059E+02  0.38832299059E+02  0.00000000000E+00 0. -1.
         23    2    1    2    0    0 -0.66274906149E+01  0.16576783394E+02  0.29766403548E+02  0.96317070364E+02  0.89845566856E+02 0.  0.
        -24    2    1    2    0    0 -0.25410132934E+02  0.81801220613E+01  0.40790026385E+03  0.41627425717E+03  0.78670468946E+02 0.  0.
         13    1    4    4    0    0 -0.49011759642E+02  0.23425733916E+02  0.29259850377E+03  0.29759839045E+03  0.00000000000E+00 0. -1.
        -14    1    4    4    0    0  0.23601626707E+02 -0.15245611855E+02  0.11530176008E+03  0.11867586672E+03  0.00000000000E+00 0.  1.
        -13    1    3    3    0    0 -0.20226899066E+02 -0.22540184135E+02  0.43218662281E+02  0.52773479287E+02  0.00000000000E+00 0.  1.
         13    1    3    3    0    0  0.13599408451E+02  0.39116967529E+02 -0.13452258733E+02  0.43543591077E+02  0.00000000000E+00 0. -1.
          4    1    1    2  501    0  0.32037623549E+02 -0.24756905456E+02  0.29778163655E+03  0.30052157453E+03  0.00000000000E+00 0. -1.
<scales pt_clust_5="13000.00000" pt_clust_6="13000.00000" pt_clust_7="13000.00000" pt_clust_8="13000.00000" pt_clust_9="40.48844"></scales>
<clustering>
<clus scale="   40.488">  1  9  2 -1</clus>
<clus scale="   78.670">  5  6 -1 -1</clus>
<clus scale="   79.821">  1  5  2 -1</clus>
<clus scale="   89.846">  7  8 -1 -1</clus>
<clus scale="   40.488">  1  5  2 -1</clus>
</clustering>
</event>
<event>
 9    1  0.6296820E-005  0.1847085E+03  0.7546771E-02  0.1188768E+00
         21   -1    0    0  501  502  0.00000000000E+00  0.00000000000E+00  0.69093259223E+02  0.69093259223E+02  0.00000000000E+00 0. -1.
          1   -1    0    0  502    0 -0.00000000000E+00 -0.00000000000E+00 -0.98193448387E+03  0.98193448387E+03  0.00000000000E+00 0. -1.
         23    2    1    2    0    0  0.29656332290E+02 -0.13354670583E+01 -0.42061879423E+03  0.43324500489E+03  0.99497651659E+02 0.  0.
        -24    2    1    2    0    0 -0.55565133015E+02 -0.15860949184E+03 -0.15256598722E+03  0.24145820374E+03  0.82348216684E+02 0.  0.
         13    1    4    4    0    0 -0.41238059715E+02 -0.16068371945E+03 -0.15469413483E+03  0.22682616828E+03  0.00000000000E+00 0. -1.
        -14    1    4    4    0    0 -0.14327073300E+02  0.20742276121E+01  0.21281476139E+01  0.14632035463E+02  0.00000000000E+00 0.  1.
        -11    1    3    3    0    0  0.47078206179E+02  0.37545559806E+02 -0.21593456065E+03  0.22417350655E+03  0.00000000000E+00 0.  1.
         11    1    3    3    0    0 -0.17421873889E+02 -0.38881026864E+02 -0.20468423358E+03  0.20907149833E+03  0.00000000000E+00 0. -1.
          2    1    1    2  501    0  0.25908800725E+02  0.15994495889E+03 -0.33965644320E+03  0.37632453446E+03  0.00000000000E+00 0. -1.
<scales pt_clust_5="13000.00000" pt_clust_6="13000.00000" pt_clust_7="13000.00000" pt_clust_8="13000.00000" pt_clust_9="165.33606"></scales>
<clustering>
<clus scale="   82.348">  5  6 -1 -1</clus>
<clus scale="   99.498">  7  8 -1 -1</clus>
<clus scale="  103.832">  2  7  1 -1</clus>
<clus scale="  165.336">  1  9  2 -1</clus>
<clus scale="  165.336">  1  5  2 -1</clus>
</clustering>
</event>
<event>
 9    1  0.6296820E-005  0.9366289E+02  0.7546771E-02  0.1306306E+00
          3   -1    0    0  502    0 -0.00000000000E+00  0.00000000000E+00  0.13356950750E+03  0.13356950750E+03  0.00000000000E+00 0. -1.
         21   -1    0    0  501  502  0.00000000000E+00 -0.00000000000E+00 -0.18630626112E+03  0.18630626112E+03  0.00000000000E+00 0.  1.
         23    2    1    2    0    0  0.18081170209E+02 -0.78399123877E+01  0.10046114123E+03  0.13763809347E+03  0.91996798498E+02 0.  0.
        -24    2    1    2    0    0 -0.81715547708E+01 -0.14015169445E+02 -0.11841469456E+03  0.13997994091E+03  0.72863877798E+02 0.  0.
         11    1    4    4    0    0  0.82381191458E+01 -0.27940829232E+02 -0.12157771562E+02  0.31565296681E+02  0.00000000000E+00 0. -1.
        -12    1    4    4    0    0 -0.16409673917E+02  0.13925659787E+02 -0.10625692300E+03  0.10841464423E+03  0.00000000000E+00 0.  1.
        -11    1    3    3    0    0  0.44727187261E+02 -0.22209065255E+02  0.94354947221E+02  0.10675495270E+03  0.00000000000E+00 0. -1.
         11    1    3    3    0    0 -0.26646017052E+02  0.14369152867E+02  0.61061940129E+01  0.30883140776E+02  0.00000000000E+00 0.  1.
          4    1    1    2  501    0 -0.99096154382E+01  0.21855081832E+02 -0.34783200301E+02  0.42257734241E+02  0.00000000000E+00 0. -1.
<scales pt_clust_5="13000.00000" pt_clust_6="13000.00000" pt_clust_7="13000.00000" pt_clust_8="13000.00000" pt_clust_9="23.99677"></scales>
<clustering>
<clus scale="   23.997">  2  9  1 -1</clus>
<clus scale="   72.864">  5  6 -1 -1</clus>
<clus scale="   74.956">  2  5  1 -1</clus>
<clus scale="   91.997">  7  8 -1 -1</clus>
<clus scale="   23.997">  2  5  1 -1</clus>
</clustering>
</event>
<event>
 9    1  0.6296820E-005  0.1242015E+03  0.7546771E-02  0.1242604E+00
         21   -1    0    0  501  502  0.00000000000E+00  0.00000000000E+00  0.11455817445E+03  0.11455817445E+03  0.00000000000E+00 0.  1.
          1   -1    0    0  502    0 -0.00000000000E+00 -0.00000000000E+00 -0.21665152424E+03  0.21665152424E+03  0.00000000000E+00 0. -1.
        -24    2    1    2    0    0 -0.16984621381E+02  0.64494600991E+02 -0.14204692956E+03  0.18885419100E+03  0.10507399459E+03 0.  0.
         23    2    1    2    0    0  0.40996138093E+02 -0.54916869448E+02  0.30775230332E+02  0.11492326435E+03  0.86969511885E+02 0.  0.
         11    1    3    3    0    0 -0.38649908395E+02  0.61370210028E+02 -0.14914362548E+03  0.16584311598E+03  0.00000000000E+00 0. -1.
        -12    1    3    3    0    0  0.21665287014E+02  0.31243909626E+01  0.70966959220E+01  0.23011075014E+02  0.00000000000E+00 0.  1.
        -11    1    4    4    0    0  0.34745288683E+02 -0.76406303468E+02  0.36947604716E+02  0.91707599410E+02  0.00000000000E+00 0.  1.
         11    1    4    4    0    0  0.62508494091E+01  0.21489434020E+02 -0.61723743840E+01  0.23215664935E+02  0.00000000000E+00 0. -1.
          2    1    1    2  501    0 -0.24011516711E+02 -0.95777315432E+01  0.91783494370E+01  0.27432243340E+02  0.00000000000E+00 0. -1.
<scales pt_clust_5="13000.00000" pt_clust_6="13000.00000" pt_clust_7="13000.00000" pt_clust_8="13000.00000" pt_clust_9="25.85123"></scales>
<clustering>
<clus scale="   25.851">  1  9  2 -1</clus>
<clus scale="   86.970">  7  8 -1 -1</clus>
<clus scale="  105.074">  5  6 -1 -1</clus>
<clus scale="  109.312">  1  7  2 -1</clus>
<clus scale="   25.851">  1  5  2 -1</clus>
</clustering>
</event>
<event>
 9    1  0.6296820E-005  0.1031803E+03  0.7546771E-02  0.1276082E+00
          1   -1    0    0  502    0 -0.00000000000E+00  0.00000000000E+00  0.31561829688E+03  0.31561829688E+03  0.00000000000E+00 0. -1.
         21   -1    0    0  501  502  0.00000000000E+00 -0.00000000000E+00 -0.87249588952E+02  0.87249588952E+02  0.00000000000E+00 0.  1.
        -24    2    1    2    0    0 -0.38598340204E+02 -0.33866885339E+02  0.25839499235E+03  0.27707087839E+03  0.85810848916E+02 0.  0.
         23    2    1    2    0    0  0.17219311268E+02  0.24469722121E+02 -0.34922585887E+02  0.10193609122E+03  0.90973115301E+02 0.  0.
         13    1    3    3    0    0 -0.54667584435E+02 -0.18230454321E+02  0.24332438284E+03  0.25005529296E+03  0.00000000000E+00 0. -1.
        -14    1    3    3    0    0  0.16069244231E+02 -0.15636431018E+02  0.15070609508E+02  0.27015585429E+02  0.00000000000E+00 0.  1.
        -11    1    4    4    0    0  0.45598978779E+02  0.15131847234E+02 -0.49249341447E+02  0.68802160572E+02  0.00000000000E+00 0.  1.
         11    1    4    4    0    0 -0.28379667512E+02  0.93378748866E+01  0.14326755560E+02  0.33133930650E+02  0.00000000000E+00 0. -1.
          2    1    1    2  501    0  0.21379028937E+02  0.93971632185E+01  0.48963014657E+01  0.23860916220E+02  0.00000000000E+00 0. -1.
<scales pt_clust_5="13000.00000" pt_clust_6="13000.00000" pt_clust_7="13000.00000" pt_clust_8="13000.00000" pt_clust_9="23.35315"></scales>
<clustering>
<clus scale="   23.353">  2  9  1 -1</clus>
<clus scale="   85.811">  5  6 -1 -1</clus>
<clus scale="   90.973">  7  8 -1 -1</clus>
<clus scale="   98.659">  1  5  2 -1</clus>
<clus scale="   23.353">  2  5  1 -1</clus>
</clustering>
</event>
<event>
 9    1  0.6296820E-005  0.2569942E+03  0.7546771E-02  0.1136395E+00
         21   -1    0    0  501  502  0.00000000000E+00  0.00000000000E+00  0.14888025528E+03  0.14888025528E+03  0.00000000000E+00 0. -1.
          1   -1    0    0  502    0 -0.00000000000E+00 -0.00000000000E+00 -0.80102266846E+03  0.80102266846E+03  0.00000000000E+00 0. -1.
         23    2    1    2    0    0  0.24057450158E+02  0.90666443833E+02 -0.29275495687E+03  0.32025149714E+03  0.89757404715E+02 0.  0.
        -24    2    1    2    0    0  0.40768440596E+02 -0.29315236036E+03 -0.20209398449E+03  0.36518180873E+03  0.70109933151E+02 0.  0.
         13    1    4    4    0    0  0.26270970216E+02 -0.26334584384E+03 -0.20044958029E+03  0.33199583067E+03  0.00000000000E+00 0. -1.
        -14    1    4    4    0    0  0.14497470380E+02 -0.29806516524E+02 -0.16444041986E+01  0.33185978062E+02  0.00000000000E+00 0.  1.
        -13    1    3    3    0    0  0.34702891426E+02  0.49600828937E+02 -0.25916371500E+03  0.26613974540E+03  0.00000000000E+00 0.  1.
         13    1    3    3    0    0 -0.10645441268E+02  0.41065614896E+02 -0.33591241870E+02  0.54111751745E+02  0.00000000000E+00 0. -1.
          2    1    1    2  501    0 -0.64825890754E+02  0.20248591653E+03 -0.15729347181E+03  0.26446961788E+03  0.00000000000E+00 0. -1.
<scales pt_clust_5="13000.00000" pt_clust_6="13000.00000" pt_clust_7="13000.00000" pt_clust_8="13000.00000" pt_clust_9="247.24606"></scales>
<clustering>
<clus scale="   70.110">  5  6 -1 -1</clus>
<clus scale="   89.757">  7  8 -1 -1</clus>
<clus scale="  129.829">  2  7  1 -1</clus>
<clus scale="  247.246">  1  9  2 -1</clus>
<clus scale="  247.246">  1  5  2 -1</clus>
</clustering>
</event>
<event>
 9    1  0.6296820E-005  0.1723785E+03  0.7546771E-02  0.1177756E+00
         21   -1    0    0  501  502  0.00000000000E+00  0.00000000000E+00  0.36178857164E+03  0.36178857164E+03  0.00000000000E+00 0. -1.
          3   -1    0    0  502    0 -0.00000000000E+00 -0.00000000000E+00 -0.37376726344E+03  0.37376726344E+03  0.00000000000E+00 0. -1.
         23    2    1    2    0    0  0.17860216388E+03  0.39989814010E+02  0.10051378891E+03  0.22674515646E+03  0.88387929327E+02 0.  0.
        -24    2    1    2    0    0 -0.66518195373E+02 -0.12137869245E+03  0.14776812311E+03  0.21398437817E+03  0.69256325333E+02 0.  0.
         11    1    4    4    0    0 -0.30377974369E+02 -0.37950751470E+02  0.11142951388E+02  0.49872299220E+02  0.00000000000E+00 0. -1.
        -12    1    4    4    0    0 -0.36140221004E+02 -0.83427940978E+02  0.13662517172E+03  0.16411207895E+03  0.00000000000E+00 0.  1.
        -13    1    3    3    0    0  0.99234473332E+02  0.28117744128E+02  0.10392909588E+03  0.14642180576E+03  0.00000000000E+00 0. -1.
         13    1    3    3    0    0  0.79367690548E+02  0.11872069882E+02 -0.34153069667E+01  0.80323350701E+02  0.00000000000E+00 0.  1.
          4    1    1    2  501    0 -0.11208396851E+03  0.81388878438E+02 -0.26026060382E+03  0.29482630044E+03  0.00000000000E+00 0. -1.
<scales pt_clust_5="13000.00000" pt_clust_6="13000.00000" pt_clust_7="13000.00000" pt_clust_8="13000.00000" pt_clust_9="138.51709"></scales>
<clustering>
<clus scale="   69.256">  5  6 -1 -1</clus>
<clus scale="   88.388">  7  8 -1 -1</clus>
<clus scale="  138.517">  1  9  2 -1</clus>
<clus scale="  163.396">  1  5  2 -1</clus>
<clus scale="  138.517">  1  5  2 -1</clus>
</clustering>
</event>
<event>
 9    1  0.6296820E-005  0.1259858E+03  0.7546771E-02  0.1242550E+00
         21   -1    0    0  501  502  0.00000000000E+00  0.00000000000E+00  0.66130122274E+02  0.66130122274E+02  0.00000000000E+00 0. -1.
          1   -1    0    0  502    0 -0.00000000000E+00 -0.00000000000E+00 -0.89567436437E+03  0.89567436437E+03  0.00000000000E+00 0. -1.
         23    2    1    2    0    0 -0.46120999749E+02  0.85503640144E+01 -0.25403033409E+03  0.27481740756E+03  0.93770685814E+02 0.  0.
        -24    2    1    2    0    0 -0.95511292031E+02  0.33038281062E+02 -0.34015811291E+02  0.12572999875E+03  0.66610976933E+02 0.  0.
         11    1    4    4    0    0 -0.78195077517E+02  0.51929789177E+02 -0.18201256788E+02  0.95616206264E+02  0.00000000000E+00 0. -1.
        -12    1    4    4    0    0 -0.17316214514E+02 -0.18891508115E+02 -0.15814554503E+02  0.30113792489E+02  0.00000000000E+00 0.  1.
        -13    1    3    3    0    0  0.71402893768E+01  0.40460448529E+02 -0.12593808002E+03  0.13247049342E+03  0.00000000000E+00 0.  1.
         13    1    3    3    0    0 -0.53261289126E+02 -0.31910084514E+02 -0.12809225407E+03  0.14234691414E+03  0.00000000000E+00 0. -1.
          2    1    1    2  501    0  0.14163229178E+03 -0.41588645076E+02 -0.54149809672E+03  0.56125708033E+03  0.00000000000E+00 0. -1.
<scales pt_clust_5="13000.00000" pt_clust_6="13000.00000" pt_clust_7="13000.00000" pt_clust_8="13000.00000" pt_clust_9="106.93652"></scales>
<clustering>
<clus scale="   66.611">  5  6 -1 -1</clus>
<clus scale="   93.771">  7  8 -1 -1</clus>
<clus scale="  104.848">  2  7  1 -1</clus>
<clus scale="  106.937">  1  9  2 -1</clus>
<clus scale="  106.937">  1  5  2 -1</clus>
</clustering>
</event>
<event>
 9    1  0.6296820E-005  0.1026048E+03  0.7546771E-02  0.1280964E+00
         21   -1    0    0  501  502  0.00000000000E+00  0.00000000000E+00  0.15453030909E+03  0.15453030909E+03  0.00000000000E+00 0. -1.
          3   -1    0    0  502    0 -0.00000000000E+00 -0.00000000000E+00 -0.89141931023E+02  0.89141931023E+02  0.00000000000E+00 0. -1.
        -24    2    1    2    0    0  0.15325573499E+02 -0.44360728965E+02 -0.91381359074E+01  0.92894764205E+02  0.79644109710E+02 0.  0.
         23    2    1    2    0    0  0.71105135008E+01  0.43036102741E+02  0.77428608655E+02  0.12811572866E+03  0.92281010782E+02 0.  0.
         11    1    3    3    0    0  0.58264635215E+01 -0.52930439909E+02 -0.35220277031E+02  0.63843927356E+02  0.00000000000E+00 0. -1.
        -12    1    3    3    0    0  0.94991099779E+01  0.85697109435E+01  0.26082141124E+02  0.29050836849E+02  0.00000000000E+00 0.  1.
        -13    1    4    4    0    0  0.25267479734E+02 -0.21479323320E+02  0.37671805885E+02  0.50189359639E+02  0.00000000000E+00 0.  1.
         13    1    4    4    0    0 -0.18156966233E+02  0.64515426061E+02  0.39756802770E+02  0.77926369023E+02  0.00000000000E+00 0. -1.
          4    1    1    2  501    0 -0.22436087000E+02  0.13246262239E+01 -0.29020946839E+01  0.22661747242E+02  0.00000000000E+00 0. -1.
<scales pt_clust_5="13000.00000" pt_clust_6="13000.00000" pt_clust_7="13000.00000" pt_clust_8="13000.00000" pt_clust_9="22.47517"></scales>
<clustering>
<clus scale="   22.475">  1  9  2 -1</clus>
<clus scale="   79.644">  5  6 -1 -1</clus>
<clus scale="   91.407">  2  5  1 -1</clus>
<clus scale="   92.281">  7  8 -1 -1</clus>
<clus scale="   22.475">  1  5  2 -1</clus>
</clustering>
</event>
<event>
 9    1  0.6296820E-005  0.9524880E+02  0.7546771E-02  0.1296960E+00
          3   -1    0    0  502    0 -0.00000000000E+00  0.00000000000E+00  0.53765110110E+03  0.53765110110E+03  0.00000000000E+00 0. -1.
         21   -1    0    0  501  502  0.00000000000E+00 -0.00000000000E+00 -0.24675937526E+02  0.24675937526E+02  0.00000000000E+00 0. -1.
         23    2    1    2    0    0  0.69626440482E+01  0.62178158144E+01  0.20571139707E+03  0.22582168104E+03  0.92688257622E+02 0.  0.
        -24    2    1    2    0    0 -0.33149462958E+02  0.27893034227E+02  0.18389486408E+03  0.20585626397E+03  0.81747000731E+02 0.  0.
         13    1    4    4    0    0 -0.37120587769E+01  0.25125772932E+02  0.67765080246E+01  0.26286972187E+02  0.00000000000E+00 0. -1.
        -14    1    4    4    0    0 -0.29437404181E+02  0.27672612953E+01  0.17711835606E+03  0.17956929179E+03  0.00000000000E+00 0.  1.
        -13    1    3    3    0    0  0.36287709635E+02  0.29244210133E+02  0.16097089611E+03  0.16758177434E+03  0.00000000000E+00 0. -1.
         13    1    3    3    0    0 -0.29325065587E+02 -0.23026394318E+02  0.44740500958E+02  0.58239906704E+02  0.00000000000E+00 0.  1.
          4    1    1    2  501    0  0.26186818909E+02 -0.34110850041E+02  0.12336890242E+03  0.13064909361E+03  0.00000000000E+00 0. -1.
<scales pt_clust_5="13000.00000" pt_clust_6="13000.00000" pt_clust_7="13000.00000" pt_clust_8="13000.00000" pt_clust_9="43.00350"></scales>
<clustering>
<clus scale="   43.004">  2  9  1 -1</clus>
<clus scale="   81.747">  5  6 -1 -1</clus>
<clus scale="   84.639">  2  5  1 -1</clus>
<clus scale="   92.688">  7  8 -1 -1</clus>
<clus scale="   43.004">  2  5  1 -1</clus>
</clustering>
</event>
<event>
 9    1  0.6296820E-005  0.1423513E+03  0.7546771E-02  0.1236357E+00
         21   -1    0    0  501  502  0.00000000000E+00  0.00000000000E+00  0.46040388795E+03  0.46040388795E+03  0.00000000000E+00 0.  1.
         -2   -1    0    0    0  501 -0.00000000000E+00 -0.00000000000E+00 -0.82014534236E+02  0.82014534236E+02  0.00000000000E+00 0.  1.
        -24    2    1    2    0    0 -0.13739404064E+02  0.20771617281E+02  0.15971792300E+03  0.17973755081E+03  0.78584610025E+02 0.  0.
         23    2    1    2    0    0 -0.96908113234E+01 -0.12439090500E+03  0.47561433325E+02  0.16127440925E+03  0.90445210314E+02 0.  0.
         11    1    3    3    0    0  0.29873397543E+02  0.22840224399E+01  0.33603322699E+02  0.45020216966E+02  0.00000000000E+00 0. -1.
        -12    1    3    3    0    0 -0.43612801607E+02  0.18487594841E+02  0.12611460031E+03  0.13471733384E+03  0.00000000000E+00 0.  1.
        -11    1    4    4    0    0  0.38659055423E+02 -0.76253473604E+02  0.32072646675E+02  0.91311387393E+02  0.00000000000E+00 0. -1.
         11    1    4    4    0    0 -0.48349866746E+02 -0.48137431398E+02  0.15488786650E+02  0.69963021861E+02  0.00000000000E+00 0.  1.
         -1    1    1    2    0  502  0.23430215387E+02  0.10361928772E+03  0.17110999738E+03  0.20140646212E+03  0.00000000000E+00 0.  1.
<scales pt_clust_5="13000.00000" pt_clust_6="13000.00000" pt_clust_7="13000.00000" pt_clust_8="13000.00000" pt_clust_9="109.92518"></scales>
<clustering>
<clus scale="   78.585">  5  6 -1 -1</clus>
<clus scale="   82.437">  2  5  1 -1</clus>
<clus scale="   90.445">  7  8 -1 -1</clus>
<clus scale="  109.925">  1  9  2 -1</clus>
<clus scale="  109.925">  1  5  2 -1</clus>
</clustering>
</event>
<event>
 9    1  0.6296820E-005  0.8399035E+02  0.7546771E-02  0.1327389E+00
         -4   -1    0    0    0  501 -0.00000000000E+00  0.00000000000E+00  0.25046815042E+03  0.25046815042E+03  0.00000000000E+00 0.  1.
         21   -1    0    0  501  502  0.00000000000E+00 -0.00000000000E+00 -0.42271619277E+02  0.42271619277E+02  0.00000000000E+00 0. -1.
        -24    2    1    2    0    0  0.47759594771E+00 -0.32779807736E+02  0.13978174130E+03  0.15817080118E+03  0.66365075545E+02 0.  0.
         23    2    1    2    0    0  0.14003639034E+02  0.45398947194E+01  0.35053959981E+02  0.88523948993E+02  0.79943710727E+02 0.  0.
         13    1    3    3    0    0 -0.16794258163E+02 -0.27428003369E+02  0.21898185520E+02  0.38908520983E+02  0.00000000000E+00 0. -1.
        -14    1    3    3    0    0  0.17271854111E+02 -0.53518043679E+01  0.11788355578E+03  0.11926228020E+03  0.00000000000E+00 0.  1.
        -13    1    4    4    0    0  0.49670327170E+01 -0.35934637053E+02  0.29349877642E+02  0.46662456769E+02  0.00000000000E+00 0.  1.
         13    1    4    4    0    0  0.90366063171E+01  0.40474531772E+02  0.57040823384E+01  0.41861492224E+02  0.00000000000E+00 0. -1.
         -3    1    1    2    0  502 -0.14481234982E+02  0.28239913017E+02  0.33360829857E+02  0.46045019520E+02  0.00000000000E+00 0.  1.
<scales pt_clust_5="13000.00000" pt_clust_6="13000.00000" pt_clust_7="13000.00000" pt_clust_8="13000.00000" pt_clust_9="31.73641"></scales>
<clustering>
<clus scale="   31.736">  2  9  1 -1</clus>
<clus scale="   66.365">  5  6 -1 -1</clus>
<clus scale="   71.188">  1  5  2 -1</clus>
<clus scale="   79.944">  7  8 -1 -1</clus>
<clus scale="   31.736">  2  5  1 -1</clus>
</clustering>
</event>
<event>
 9    1  0.6296820E-005  0.9190770E+02  0.7546771E-02  0.1299068E+00
          1   -1    0    0  502    0 -0.00000000000E+00  0.00000000000E+00  0.13538480470E+03  0.13538480470E+03  0.00000000000E+00 0. -1.
         21   -1    0    0  501  502  0.00000000000E+00 -0.00000000000E+00 -0.12383291412E+03  0.12383291412E+03  0.00000000000E+00 0. -1.
        -24    2    1    2    0    0  0.79950764331E+01  0.48893804819E+01 -0.57388493362E+01  0.89497781126E+02  0.88820555876E+02 0.  0.
         23    2    1    2    0    0 -0.20546752129E+02 -0.24106697058E+02 -0.43317606936E+02  0.10491082162E+03  0.90147454520E+02 0.  0.
         13    1    3    3    0    0  0.44778804309E+02  0.20073278845E+02 -0.76134466337E+01  0.49659263069E+02  0.00000000000E+00 0. -1.
        -14    1    3    3    0    0 -0.36783727876E+02 -0.15183898363E+02  0.18745972975E+01  0.39838518057E+02  0.00000000000E+00 0.  1.
        -13    1    4    4    0    0  0.96133718460E+00 -0.35872642549E+02  0.17068423279E+02  0.39737912953E+02  0.00000000000E+00 0.  1.
         13    1    4    4    0    0 -0.21508089314E+02  0.11765945490E+02 -0.60386030214E+02  0.65172908668E+02  0.00000000000E+00 0. -1.
          2    1    1    2  501    0  0.12551675696E+02  0.19217316576E+02  0.60608346843E+02  0.64809116074E+02  0.00000000000E+00 0. -1.
<scales pt_clust_5="13000.00000" pt_clust_6="13000.00000" pt_clust_7="13000.00000" pt_clust_8="13000.00000" pt_clust_9="22.95322"></scales>
<clustering>
<clus scale="   22.953">  2  9  1 -1</clus>
<clus scale="   88.821">  5  6 -1 -1</clus>
<clus scale="   90.147">  7  8 -1 -1</clus>
<clus scale="   90.607">  1  5  2 -1</clus>
<clus scale="   22.953">  2  5  1 -1</clus>
</clustering>
</event>
<event>
 9    1  0.6296820E-005  0.9251817E+02  0.7546771E-02  0.1301026E+00
          3   -1    0    0  502    0 -0.00000000000E+00  0.00000000000E+00  0.22852794325E+03  0.22852794325E+03  0.00000000000E+00 0. -1.
         21   -1    0    0  501  502  0.00000000000E+00 -0.00000000000E+00 -0.10068430110E+03  0.10068430110E+03  0.00000000000E+00 0.  1.
         23    2    1    2    0    0  0.24072862631E+02  0.28036563711E+01  0.17597659933E+03  0.19842870955E+03  0.88424125998E+02 0.  0.
        -24    2    1    2    0    0 -0.45257620201E+02 -0.17144891141E+02 -0.45875886738E+02  0.10510164749E+03  0.81237675025E+02 0.  0.
         13    1    4    4    0    0  0.79951300255E+01 -0.21936710844E+02  0.12047397125E+02  0.26273202398E+02  0.00000000000E+00 0. -1.
        -14    1    4    4    0    0 -0.53252750227E+02  0.47918197030E+01 -0.57923283863E+02  0.78828445096E+02  0.00000000000E+00 0.  1.
        -13    1    3    3    0    0 -0.30468664629E+02 -0.22416559400E+01  0.31336602052E+02  0.43764679524E+02  0.00000000000E+00 0. -1.
         13    1    3    3    0    0  0.54541527260E+02  0.50453123111E+01  0.14463999728E+03  0.15466403003E+03  0.00000000000E+00 0.  1.
          4    1    1    2  501    0  0.21184757571E+02  0.14341234770E+02 -0.22570704435E+01  0.25681887295E+02  0.00000000000E+00 0. -1.
<scales pt_clust_5="13000.00000" pt_clust_6="13000.00000" pt_clust_7="13000.00000" pt_clust_8="13000.00000" pt_clust_9="25.58251"></scales>
<clustering>
<clus scale="   25.583">  2  9  1 -1</clus>
<clus scale="   81.238">  5  6 -1 -1</clus>
<clus scale="   85.676">  2  5  1 -1</clus>
<clus scale="   88.424">  7  8 -1 -1</clus>
<clus scale="   25.583">  2  5  1 -1</clus>
</clustering>
</event>
<event>
 9    1  0.6296820E-005  0.1247025E+03  0.7546771E-02  0.1250363E+00
         21   -1    0    0  501  502  0.00000000000E+00  0.00000000000E+00  0.23287684313E+03  0.23287684313E+03  0.00000000000E+00 0. -1.
          3   -1    0    0  502    0 -0.00000000000E+00 -0.00000000000E+00 -0.12639018223E+03  0.12639018223E+03  0.00000000000E+00 0. -1.
        -24    2    1    2    0    0 -0.38852197076E+02  0.19165245505E+02  0.55515287101E+02  0.10780264992E+03  0.81625145478E+02 0.  0.
         23    2    1    2    0    0 -0.51430340099E+02  0.73367963540E+01 -0.48249113703E+02  0.11472374548E+03  0.90192307541E+02 0.  0.
         13    1    3    3    0    0 -0.45284655722E+02  0.38589440683E+02  0.13410388927E+02  0.60989208121E+02  0.00000000000E+00 0. -1.
        -14    1    3    3    0    0  0.64324586452E+01 -0.19424195178E+02  0.42104898175E+02  0.46813441796E+02  0.00000000000E+00 0.  1.
        -13    1    4    4    0    0 -0.65655532448E+02 -0.21876071464E+02 -0.43869989846E+02  0.81937704708E+02  0.00000000000E+00 0. -1.
         13    1    4    4    0    0  0.14225192348E+02  0.29212867818E+02 -0.43791238570E+01  0.32786040769E+02  0.00000000000E+00 0.  1.
          4    1    1    2  501    0  0.90282537176E+02 -0.26502041859E+02  0.99220487501E+02  0.13674062996E+03  0.00000000000E+00 0. -1.
<scales pt_clust_5="13000.00000" pt_clust_6="13000.00000" pt_clust_7="13000.00000" pt_clust_8="13000.00000" pt_clust_9="86.11661"></scales>
<clustering>
<clus scale="   81.625">  5  6 -1 -1</clus>
<clus scale="   90.192">  7  8 -1 -1</clus>
<clus scale="   92.409">  2  5  1 -1</clus>
<clus scale="   86.117">  1  9  2 -1</clus>
<clus scale="   86.117">  1  5  2 -1</clus>
</clustering>
</event>
<event>
 9    1  0.6296820E-005  0.1068130E+03  0.7546771E-02  0.1272469E+00
         21   -1    0    0  501  502  0.00000000000E+00  0.00000000000E+00  0.40801518452E+02  0.40801518452E+02  0.00000000000E+00 0. -1.
          3   -1    0    0  502    0 -0.00000000000E+00 -0.00000000000E+00 -0.57391644306E+03  0.57391644306E+03  0.00000000000E+00 0. -1.
         23    2    1    2    0    0 -0.18092598914E+02 -0.74896682227E+02 -0.39044330002E+03  0.40810657086E+03  0.90377804266E+02 0.  0.
        -24    2    1    2    0    0  0.31192780270E+02  0.12099103313E+02 -0.96452403587E+02  0.12754580358E+03  0.76455791219E+02 0.  0.
         11    1    4    4    0    0  0.20812825784E+02 -0.27609691318E+02 -0.17939871158E+02  0.38952634685E+02  0.00000000000E+00 0. -1.
        -12    1    4    4    0    0  0.10379954486E+02  0.39708794631E+02 -0.78512532429E+02  0.88593168893E+02  0.00000000000E+00 0.  1.
        -13    1    3    3    0    0 -0.24276498593E+02  0.15077354236E+02 -0.94534242993E+02  0.98759293704E+02  0.00000000000E+00 0.  1.
         13    1    3    3    0    0  0.61838996791E+01 -0.89974036463E+02 -0.29590905703E+03  0.30934727716E+03  0.00000000000E+00 0. -1.
          4    1    1    2  501    0 -0.13100181355E+02  0.62797578914E+02 -0.46219220995E+02  0.79065587068E+02  0.00000000000E+00 0. -1.
<scales pt_clust_5="13000.00000" pt_clust_6="13000.00000" pt_clust_7="13000.00000" pt_clust_8="13000.00000" pt_clust_9="64.14944"></scales>
<clustering>
<clus scale="   64.149">  1  9  2 -1</clus>
<clus scale="   76.456">  5  6 -1 -1</clus>
<clus scale="   90.378">  7  8 -1 -1</clus>
<clus scale="   95.322">  1  5  2 -1</clus>
<clus scale="   64.149">  1  5  2 -1</clus>
</clustering>
</event>
<event>
 9    1  0.6296820E-005  0.1157043E+03  0.7546771E-02  0.1260907E+00
          3   -1    0    0  502    0 -0.00000000000E+00  0.00000000000E+00  0.14984627198E+03  0.14984627198E+03  0.00000000000E+00 0. -1.
         21   -1    0    0  501  502  0.00000000000E+00 -0.00000000000E+00 -0.13450250128E+03  0.13450250128E+03  0.00000000000E+00 0.  1.
        -24    2    1    2    0    0  0.57444053540E+01 -0.40367452163E+02  0.54526446116E+02  0.11007142154E+03  0.86487311938E+02 0.  0.
         23    2    1    2    0    0  0.24220540966E+02  0.28385636658E+02  0.89897096298E+01  0.11629424563E+03  0.10977776511E+03 0.  0.
         11    1    3    3    0    0 -0.36856690279E+02 -0.29982448790E+01  0.10888747665E+02  0.38548280330E+02  0.00000000000E+00 0. -1.
        -12    1    3    3    0    0  0.42601095633E+02 -0.37369207284E+02  0.43637698451E+02  0.71523141208E+02  0.00000000000E+00 0.  1.
        -13    1    4    4    0    0  0.40639838641E+02  0.52558122360E+02 -0.25434483162E+02  0.71139761347E+02  0.00000000000E+00 0.  1.
         13    1    4    4    0    0 -0.16419297675E+02 -0.24172485703E+02  0.34424192792E+02  0.45154484279E+02  0.00000000000E+00 0. -1.
          4    1    1    2  501    0 -0.29964946320E+02  0.11981815506E+02 -0.48172385053E+02  0.57983106095E+02  0.00000000000E+00 0. -1.
<scales pt_clust_5="13000.00000" pt_clust_6="13000.00000" pt_clust_7="13000.00000" pt_clust_8="13000.00000" pt_clust_9="32.27169"></scales>
<clustering>
<clus scale="   32.272">  2  9  1 -1</clus>
<clus scale="   86.487">  5  6 -1 -1</clus>
<clus scale="   93.896">  1  5  2 -1</clus>
<clus scale="  109.778">  7  8 -1 -1</clus>
<clus scale="   32.272">  2  5  1 -1</clus>
</clustering>
</event>
<event>
 9    1  0.6296820E-005  0.9969839E+02  0.7546771E-02  0.1288027E+00
          1   -1    0    0  502    0 -0.00000000000E+00  0.00000000000E+00  0.28727596231E+03  0.28727596231E+03  0.00000000000E+00 0. -1.
         21   -1    0    0  501  502  0.00000000000E+00 -0.00000000000E+00 -0.12497710415E+03  0.12497710415E+03  0.00000000000E+00 0.  1.
         23    2    1    2    0    0  0.37535792589E+02 -0.10559629119E+02  0.25209960622E+03  0.27123067031E+03  0.92148920597E+02 0.  0.
        -24    2    1    2    0    0 -0.33289244033E+02 -0.11502544649E+02 -0.66974028571E+02  0.10899378694E+03  0.78445157828E+02 0.  0.
         11    1    4    4    0    0 -0.13073778289E+02 -0.32087028441E+02  0.15094557756E+01  0.34681112001E+02  0.00000000000E+00 0. -1.
        -12    1    4    4    0    0 -0.20215465744E+02  0.20584483791E+02 -0.68483484347E+02  0.74312674938E+02  0.00000000000E+00 0.  1.
        -11    1    3    3    0    0 -0.25005995472E+02  0.13614202347E+02  0.42403350142E+02  0.51075340609E+02  0.00000000000E+00 0.  1.
         11    1    3    3    0    0  0.62541788061E+02 -0.24173831466E+02  0.20969625608E+03  0.22015532970E+03  0.00000000000E+00 0. -1.
          2    1    1    2  501    0 -0.42465485562E+01  0.22062173769E+02 -0.22826719478E+02  0.32028609214E+02  0.00000000000E+00 0. -1.
<scales pt_clust_5="13000.00000" pt_clust_6="13000.00000" pt_clust_7="13000.00000" pt_clust_8="13000.00000" pt_clust_9="22.46715"></scales>
<clustering>
<clus scale="   22.467">  2  9  1 -1</clus>
<clus scale="   78.445">  5  6 -1 -1</clus>
<clus scale="   87.189">  2  5  1 -1</clus>
<clus scale="   92.149">  7  8 -1 -1</clus>
<clus scale="   22.467">  2  5  1 -1</clus>
</clustering>
</event>
<event>
 9    1  0.6296820E-005  0.2914456E+03  0.7546771E-02  0.1125987E+00
         21   -1    0    0  501  502  0.00000000000E+00  0.00000000000E+00  0.12450927908E+03  0.12450927908E+03  0.00000000000E+00 0. -1.
          1   -1    0    0  502    0 -0.00000000000E+00 -0.00000000000E+00 -0.12218930849E+04  0.12218930849E+04  0.00000000000E+00 0. -1.
        -24    2    1    2    0    0 -0.71954543004E+02  0.41855704874E+02 -0.60123753459E+02  0.12966183708E+03  0.79170512027E+02 0.  0.
         23    2    1    2    0    0 -0.14869792751E+03  0.15800853614E+03 -0.80526387221E+03  0.83930781079E+03  0.94392405610E+02 0.  0.
         11    1    3    3    0    0 -0.15740609516E+02  0.54774245273E+02 -0.33793548738E+02  0.66256989589E+02  0.00000000000E+00 0. -1.
        -12    1    3    3    0    0 -0.56213933488E+02 -0.12918540399E+02 -0.26330204720E+02  0.63404847487E+02  0.00000000000E+00 0.  1.
        -11    1    4    4    0    0 -0.13327058533E+03  0.10303528215E+03 -0.47135731624E+03  0.50055473013E+03  0.00000000000E+00 0. -1.
         11    1    4    4    0    0 -0.15427342181E+02  0.54973253993E+02 -0.33390655597E+03  0.33875308067E+03  0.00000000000E+00 0.  1.
          2    1    1    2  501    0  0.22065247052E+03 -0.19986424101E+03 -0.23199618015E+03  0.37743271610E+03  0.00000000000E+00 0. -1.
<scales pt_clust_5="13000.00000" pt_clust_6="13000.00000" pt_clust_7="13000.00000" pt_clust_8="13000.00000" pt_clust_9="275.73653"></scales>
<clustering>
<clus scale="   79.171">  5  6 -1 -1</clus>
<clus scale="   94.392">  7  8 -1 -1</clus>
<clus scale="  114.880">  2  5  1 -1</clus>
<clus scale="  275.737">  1  9  2 -1</clus>
<clus scale="  275.737">  1  5  2 -1</clus>
</clustering>
</event>
<event>
 9    1  0.6296820E-005  0.1690763E+03  0.7546771E-02  0.1197888E+00
         21   -1    0    0  501  502  0.00000000000E+00  0.00000000000E+00  0.10586188123E+04  0.10586188123E+04  0.00000000000E+00 0. -1.
          1   -1    0    0  502    0 -0.00000000000E+00 -0.00000000000E+00 -0.50022579812E+02  0.50022579812E+02  0.00000000000E+00 0. -1.
         23    2    1    2    0    0 -0.24558217445E+02 -0.60739180701E+02  0.38643734522E+03  0.40200793289E+03  0.89354363116E+02 0.  0.
        -24    2    1    2    0    0 -0.93820419613E+02 -0.61488245976E+02  0.14369645080E+03  0.19881523519E+03  0.79345776473E+02 0.  0.
         13    1    4    4    0    0 -0.62073644279E+02 -0.70623164000E+02  0.67439199688E+02  0.11571004391E+03  0.00000000000E+00 0. -1.
        -14    1    4    4    0    0 -0.31746775334E+02  0.91349180243E+01  0.76257251109E+02  0.83105191283E+02  0.00000000000E+00 0.  1.
        -13    1    3    3    0    0 -0.46310385694E+02 -0.38477342279E+02  0.34483122218E+03  0.35004818166E+03  0.00000000000E+00 0. -1.
         13    1    3    3    0    0  0.21752168249E+02 -0.22261838422E+02  0.41606123043E+02  0.51959751232E+02  0.00000000000E+00 0.  1.
          2    1    1    2  501    0  0.11837863706E+03  0.12222742668E+03  0.47846243649E+03  0.50781822405E+03  0.00000000000E+00 0. -1.
<scales pt_clust_5="13000.00000" pt_clust_6="13000.00000" pt_clust_7="13000.00000" pt_clust_8="13000.00000" pt_clust_9="149.30182"></scales>
<clustering>
<clus scale="   79.346">  5  6 -1 -1</clus>
<clus scale="   89.354">  7  8 -1 -1</clus>
<clus scale="  110.800">  2  7  1 -1</clus>
<clus scale="  149.302">  1  9  2 -1</clus>
<clus scale="  149.302">  1  5  2 -1</clus>
</clustering>
</event>
<event>
 9    1  0.6296820E-005  0.1022178E+03  0.7546771E-02  0.1286194E+00
          1   -1    0    0  502    0 -0.00000000000E+00  0.00000000000E+00  0.42305833552E+03  0.42305833552E+03  0.00000000000E+00 0. -1.
         21   -1    0    0  501  502  0.00000000000E+00 -0.00000000000E+00 -0.34858043506E+02  0.34858043506E+02  0.00000000000E+00 0.  1.
         23    2    1    2    0    0 -0.13106843849E+02 -0.27874214091E+02  0.31258250919E+03  0.32942473127E+03  0.99318011234E+02 0.  0.
        -24    2    1    2    0    0  0.66662583106E+01  0.55463485169E+01  0.58157476471E+02  0.99424879426E+02  0.80173646529E+02 0.  0.
         13    1    4    4    0    0 -0.20111005213E+02 -0.11645761510E+02  0.63080408080E+02  0.67225100784E+02  0.00000000000E+00 0. -1.
        -14    1    4    4    0    0  0.26777263524E+02  0.17192110027E+02 -0.49229316095E+01  0.32199778643E+02  0.00000000000E+00 0.  1.
        -11    1    3    3    0    0  0.39044309148E+02 -0.31682931608E+02  0.18036852151E+03  0.18724601407E+03  0.00000000000E+00 0. -1.
         11    1    3    3    0    0 -0.52151152996E+02  0.38087175173E+01  0.13221398767E+03  0.14217871720E+03  0.00000000000E+00 0.  1.
          2    1    1    2  501    0  0.64405855382E+01  0.22327865574E+02  0.17460306360E+02  0.29066768333E+02  0.00000000000E+00 0. -1.
<scales pt_clust_5="13000.00000" pt_clust_6="13000.00000" pt_clust_7="13000.00000" pt_clust_8="13000.00000" pt_clust_9="23.23822"></scales>
<clustering>
<clus scale="   23.238">  2  9  1 -1</clus>
<clus scale="   80.174">  5  6 -1 -1</clus>
<clus scale="   83.739">  2  5  1 -1</clus>
<clus scale="   99.318">  7  8 -1 -1</clus>
<clus scale="   23.238">  2  5  1 -1</clus>
</clustering>
</event>
<event>
 9    1  0.6296820E-005  0.8745473E+02  0.7546771E-02  0.1313356E+00
         21   -1    0    0  501  502  0.00000000000E+00  0.00000000000E+00  0.30233724821E+02  0.30233724821E+02  0.00000000000E+00 0.  1.
          1   -1    0    0  502    0 -0.00000000000E+00 -0.00000000000E+00 -0.30154513850E+03  0.30154513850E+03  0.00000000000E+00 0. -1.
        -24    2    1    2    0    0 -0.43409996632E+00 -0.78680434905E+01 -0.12649504194E+03  0.15011588123E+03  0.80446799877E+02 0.  0.
         23    2    1    2    0    0  0.19198569594E+02 -0.76108811451E+00 -0.11708096400E+03  0.14708235059E+03  0.86925838474E+02 0.  0.
         13    1    3    3    0    0 -0.25142201411E+02 -0.30253530006E+02 -0.10022817380E+03  0.10767122732E+03  0.00000000000E+00 0. -1.
        -14    1    3    3    0    0  0.24708101445E+02  0.22385486516E+02 -0.26266868147E+02  0.42444653913E+02  0.00000000000E+00 0.  1.
        -13    1    4    4    0    0 -0.69610403401E+01  0.33725431772E+02 -0.17776184154E+02  0.38753755353E+02  0.00000000000E+00 0.  1.
         13    1    4    4    0    0  0.26159609934E+02 -0.34486519887E+02 -0.99304779848E+02  0.10832859524E+03  0.00000000000E+00 0. -1.
          2    1    1    2  501    0 -0.18764469628E+02  0.86291316050E+01 -0.27735407739E+02  0.34580631502E+02  0.00000000000E+00 0. -1.
<scales pt_clust_5="13000.00000" pt_clust_6="13000.00000" pt_clust_7="13000.00000" pt_clust_8="13000.00000" pt_clust_9="20.65350"></scales>
<clustering>
<clus scale="   20.654">  1  9  2 -1</clus>
<clus scale="   80.447">  5  6 -1 -1</clus>
<clus scale="   81.018">  2  5  1 -1</clus>
<clus scale="   86.926">  7  8 -1 -1</clus>
<clus scale="   20.654">  1  5  2 -1</clus>
</clustering>
</event>
<event>
 9    1  0.6296820E-005  0.1226601E+03  0.7546771E-02  0.1241741E+00
         -2   -1    0    0    0  501 -0.00000000000E+00  0.00000000000E+00  0.24930421813E+03  0.24930421813E+03  0.00000000000E+00 0.  1.
         21   -1    0    0  501  502  0.00000000000E+00 -0.00000000000E+00 -0.10374376937E+03  0.10374376937E+03  0.00000000000E+00 0. -1.
         23    2    1    2    0    0 -0.83205585602E+02  0.33595206024E+02  0.15735153395E+03  0.20269106194E+03  0.90952482174E+02 0.  0.
        -24    2    1    2    0    0  0.68394563496E+02  0.69900729097E+01 -0.13556754249E+02  0.10711748951E+03  0.81016625075E+02 0.  0.
         11    1    4    4    0    0  0.63206303871E+02  0.25705225032E+02 -0.36236664338E+02  0.77258600073E+02  0.00000000000E+00 0. -1.
        -12    1    4    4    0    0  0.51882596249E+01 -0.18715152122E+02  0.22679910089E+02  0.29858889439E+02  0.00000000000E+00 0.  1.
        -13    1    3    3    0    0 -0.48676468290E+02 -0.11328648160E+02  0.19495742002E+02  0.53645324032E+02  0.00000000000E+00 0. -1.
         13    1    3    3    0    0 -0.34529117312E+02  0.44923854183E+02  0.13785579194E+03  0.14904573791E+03  0.00000000000E+00 0.  1.
         -1    1    1    2    0  502  0.14811022106E+02 -0.40585278933E+02  0.17656690696E+01  0.43239436042E+02  0.00000000000E+00 0.  1.
<scales pt_clust_5="13000.00000" pt_clust_6="13000.00000" pt_clust_7="13000.00000" pt_clust_8="13000.00000" pt_clust_9="43.20337"></scales>
<clustering>
<clus scale="   43.203">  2  9  1 -1</clus>
<clus scale="   81.017">  5  6 -1 -1</clus>
<clus scale="   90.952">  7  8 -1 -1</clus>
<clus scale="  115.485">  2  5  1 -1</clus>
<clus scale="   43.203">  2  5  1 -1</clus>
</clustering>
</event>
<event>
 9    1  0.6296820E-005  0.1185365E+03  0.7546771E-02  0.1250460E+00
          1   -1    0    0  502    0 -0.00000000000E+00  0.00000000000E+00  0.78906375574E+03  0.78906375574E+03  0.00000000000E+00 0. -1.
         21   -1    0    0  501  502  0.00000000000E+00 -0.00000000000E+00 -0.69968304384E+02  0.69968304384E+02  0.00000000000E+00 0. -1.
        -24    2    1    2    0    0 -0.64836139385E+02  0.18908541625E+02  0.52721963495E+03  0.53798087838E+03  0.83076014041E+02 0.  0.
         23    2    1    2    0    0  0.53410846835E+02 -0.55182121016E+02  0.23374356745E+03  0.26448954766E+03  0.97061220152E+02 0.  0.
         13    1    3    3    0    0 -0.31547357568E+02 -0.32575711562E+02  0.20125254492E+03  0.20629832668E+03  0.00000000000E+00 0. -1.
        -14    1    3    3    0    0 -0.33288781816E+02  0.51484253186E+02  0.32596709002E+03  0.33168255170E+03  0.00000000000E+00 0.  1.
        -13    1    4    4    0    0  0.73379758234E+02 -0.10127798180E+02  0.12964483412E+03  0.14931491629E+03  0.00000000000E+00 0.  1.
         13    1    4    4    0    0 -0.19968911400E+02 -0.45054322837E+02  0.10409873334E+03  0.11517463137E+03  0.00000000000E+00 0. -1.
          2    1    1    2  501    0  0.11425292550E+02  0.36273579392E+02 -0.41867751049E+02  0.56561634079E+02  0.00000000000E+00 0. -1.
<scales pt_clust_5="13000.00000" pt_clust_6="13000.00000" pt_clust_7="13000.00000" pt_clust_8="13000.00000" pt_clust_9="38.03038"></scales>
<clustering>
<clus scale="   38.030">  2  9  1 -1</clus>
<clus scale="   83.076">  5  6 -1 -1</clus>
<clus scale="   97.061">  7  8 -1 -1</clus>
<clus scale="  107.385">  1  5  2 -1</clus>
<clus scale="   38.030">  2  5  1 -1</clus>
</clustering>
</event>
<event>
 9    1  0.6296820E-005  0.9179707E+02  0.7546771E-02  0.1312085E+00
          1   -1    0    0  502    0 -0.00000000000E+00  0.00000000000E+00  0.19853050683E+03  0.19853050683E+03  0.00000000000E+00 0. -1.
         21   -1    0    0  501  502  0.00000000000E+00 -0.00000000000E+00 -0.60673165723E+02  0.60673165723E+02  0.00000000000E+00 0.  1.
        -24    2    1    2    0    0 -0.10628066261E+02  0.94736029466E+01  0.85703916387E+02  0.11237442863E+03  0.71275142794E+02 0.  0.
         23    2    1    2    0    0 -0.96743765073E+00  0.26735322625E+02  0.20811749715E+02  0.97556101199E+02  0.91478689013E+02 0.  0.
         13    1    3    3    0    0 -0.21907615637E+02  0.33161640923E+02  0.26925913685E+02  0.48006696193E+02  0.00000000000E+00 0. -1.
        -14    1    3    3    0    0  0.11279549376E+02 -0.23688037976E+02  0.58778002703E+02  0.64367732436E+02  0.00000000000E+00 0.  1.
        -13    1    4    4    0    0 -0.21947312583E+02  0.59444825324E+00  0.49042598315E+02  0.53732805137E+02  0.00000000000E+00 0. -1.
         13    1    4    4    0    0  0.20979874932E+02  0.26140874372E+02 -0.28230848601E+02  0.43823296063E+02  0.00000000000E+00 0.  1.
          2    1    1    2  501    0  0.11595503912E+02 -0.36208925572E+02  0.31341675010E+02  0.49273142729E+02  0.00000000000E+00 0. -1.
<scales pt_clust_5="13000.00000" pt_clust_6="13000.00000" pt_clust_7="13000.00000" pt_clust_8="13000.00000" pt_clust_9="38.02030"></scales>
<clustering>
<clus scale="   38.020">  2  9  1 -1</clus>
<clus scale="   71.275">  5  6 -1 -1</clus>
<clus scale="   71.683">  1  5  2 -1</clus>
<clus scale="   91.479">  7  8 -1 -1</clus>
<clus scale="   38.020">  2  5  1 -1</clus>
</clustering>
</event>
<event>
 9    1  0.6296820E-005  0.2321718E+03  0.7546771E-02  0.1125575E+00
          1   -1    0    0  502    0 -0.00000000000E+00  0.00000000000E+00  0.13210715593E+04  0.13210715593E+04  0.00000000000E+00 0. -1.
         21   -1    0    0  501  502  0.00000000000E+00 -0.00000000000E+00 -0.92795880935E+02  0.92795880935E+02  0.00000000000E+00 0. -1.
        -24    2    1    2    0    0  0.11023349555E+03 -0.14217421892E+03  0.27340038037E+03  0.33773138507E+03  0.83365390971E+02 0.  0.
         23    2    1    2    0    0 -0.27132396409E+03  0.93723597859E+02  0.42903151031E+03  0.52404069131E+03  0.90276259474E+02 0.  0.
         11    1    3    3    0    0  0.49637693037E+02 -0.89906466801E+02  0.85969387470E+02  0.13393210565E+03  0.00000000000E+00 0. -1.
        -12    1    3    3    0    0  0.60595802511E+02 -0.52267752119E+02  0.18743099290E+03  0.20379927942E+03  0.00000000000E+00 0.  1.
        -13    1    4    4    0    0 -0.96593161281E+02  0.80197935583E+02  0.18627445670E+03  0.22463330318E+03  0.00000000000E+00 0. -1.
         13    1    4    4    0    0 -0.17473080281E+03  0.13525662276E+02  0.24275705361E+03  0.29940738813E+03  0.00000000000E+00 0.  1.
          2    1    1    2  501    0  0.16109046854E+03  0.48450621062E+02  0.52584378770E+03  0.55209536386E+03  0.00000000000E+00 0. -1.
<scales pt_clust_5="13000.00000" pt_clust_6="13000.00000" pt_clust_7="13000.00000" pt_clust_8="13000.00000" pt_clust_9="168.21899"></scales>
<clustering>
<clus scale="   83.365">  5  6 -1 -1</clus>
<clus scale="   90.276">  7  8 -1 -1</clus>
<clus scale="  168.219">  2  9  1 -1</clus>
<clus scale="  229.573">  1  5  2 -1</clus>
<clus scale="  168.219">  2  5  1 -1</clus>
</clustering>
</event>
<event>
 9    1  0.6296820E-005  0.8929399E+02  0.7546771E-02  0.1310076E+00
         -2   -1    0    0    0  501 -0.00000000000E+00  0.00000000000E+00  0.13365620536E+03  0.13365620536E+03  0.00000000000E+00 0.  1.
         21   -1    0    0  501  502  0.00000000000E+00 -0.00000000000E+00 -0.10112130625E+03  0.10112130625E+03  0.00000000000E+00 0. -1.
        -24    2    1    2    0    0 -0.27602567430E+01 -0.18810381170E+02  0.80491663222E+02  0.11465486046E+03  0.79406421161E+02 0.  0.
         23    2    1    2    0    0 -0.61266055258E+01 -0.11300234802E+01 -0.37521477756E+02  0.95925724493E+02  0.88062881387E+02 0.  0.
         11    1    3    3    0    0  0.20195318540E+02 -0.36574024595E+02  0.17497975239E+02  0.45295577086E+02  0.00000000000E+00 0. -1.
        -12    1    3    3    0    0 -0.22955575283E+02  0.17763643426E+02  0.62993687983E+02  0.69359283373E+02  0.00000000000E+00 0.  1.
        -11    1    4    4    0    0  0.90673966395E+01 -0.37086002630E+02 -0.41854534015E+02  0.56651489746E+02  0.00000000000E+00 0. -1.
         11    1    4    4    0    0 -0.15194002165E+02  0.35955979150E+02  0.43330562585E+01  0.39274234747E+02  0.00000000000E+00 0.  1.
         -1    1    1    2    0  502  0.88868622688E+01  0.19940404650E+02 -0.10435286348E+02  0.24196926659E+02  0.00000000000E+00 0.  1.
<scales pt_clust_5="13000.00000" pt_clust_6="13000.00000" pt_clust_7="13000.00000" pt_clust_8="13000.00000" pt_clust_9="21.83108"></scales>
<clustering>
<clus scale="   21.831">  2  9  1 -1</clus>
<clus scale="   79.406">  5  6 -1 -1</clus>
<clus scale="   80.770">  1  5  2 -1</clus>
<clus scale="   88.063">  7  8 -1 -1</clus>
<clus scale="   21.831">  2  5  1 -1</clus>
</clustering>
</event>
<event>
 9    1  0.6296820E-005  0.9501814E+02  0.7546771E-02  0.1299067E+00
          1   -1    0    0  502    0 -0.00000000000E+00  0.00000000000E+00  0.30933174099E+03  0.30933174099E+03  0.00000000000E+00 0. -1.
         21   -1    0    0  501  502  0.00000000000E+00 -0.00000000000E+00 -0.17318926775E+03  0.17318926775E+03  0.00000000000E+00 0. -1.
         23    2    1    2    0    0 -0.41850956379E+01  0.11438361130E+02  0.14809785967E+03  0.17454545997E+03  0.91568501277E+02 0.  0.
        -24    2    1    2    0    0 -0.63150499103E+02 -0.14018709178E+01  0.12184607672E+03  0.15785011790E+03  0.77975909945E+02 0.  0.
         13    1    4    4    0    0 -0.79488285681E+02  0.10335446074E+02  0.94883895234E+02  0.12421015490E+03  0.00000000000E+00 0. -1.
        -14    1    4    4    0    0  0.16337786578E+02 -0.11737316992E+02  0.26962181483E+02  0.33639963001E+02  0.00000000000E+00 0.  1.
        -13    1    3    3    0    0  0.23033952393E+02 -0.30272110719E+02  0.38304319085E+02  0.53983187297E+02  0.00000000000E+00 0.  1.
         13    1    3    3    0    0 -0.27219048031E+02  0.41710471849E+02  0.10979354058E+03  0.12056227267E+03  0.00000000000E+00 0. -1.
          2    1    1    2  501    0  0.67335594741E+02 -0.10036490212E+02 -0.13380146314E+03  0.15012543087E+03  0.00000000000E+00 0. -1.
<scales pt_clust_5="13000.00000" pt_clust_6="13000.00000" pt_clust_7="13000.00000" pt_clust_8="13000.00000" pt_clust_9="68.07946"></scales>
<clustering>
<clus scale="   68.079">  2  9  1 -1</clus>
<clus scale="   77.976">  5  6 -1 -1</clus>
<clus scale="   81.999">  2  5  1 -1</clus>
<clus scale="   91.569">  7  8 -1 -1</clus>
<clus scale="   68.079">  2  5  1 -1</clus>
</clustering>
</event>
<event>
 9    1  0.6296820E-005  0.1186470E+03  0.7546771E-02  0.1247925E+00
          1   -1    0    0  502    0 -0.00000000000E+00  0.00000000000E+00  0.23489201520E+03  0.23489201520E+03  0.00000000000E+00 0. -1.
         21   -1    0    0  501  502  0.00000000000E+00 -0.00000000000E+00 -0.12303990267E+03  0.12303990267E+03  0.00000000000E+00 0. -1.
        -24    2    1    2    0    0 -0.23463933674E+02  0.71184082873E+02  0.15140529813E+03  0.18837424715E+03  0.83328043597E+02 0.  0.
         23    2    1    2    0    0 -0.82107127310E+01 -0.85570903842E+02 -0.47150459274E+02  0.13394893009E+03  0.91265298300E+02 0.  0.
         11    1    3    3    0    0 -0.45756204615E+02  0.68189272320E+02  0.84672074833E+02  0.11795239454E+03  0.00000000000E+00 0. -1.
        -12    1    3    3    0    0  0.22292270941E+02  0.29948105529E+01  0.66733223298E+02  0.70421852615E+02  0.00000000000E+00 0.  1.
        -11    1    4    4    0    0  0.15700686343E+01 -0.63572244274E+02  0.16668547621E+02  0.65739910537E+02  0.00000000000E+00 0. -1.
         11    1    4    4    0    0 -0.97807813653E+01 -0.21998659567E+02 -0.63819006895E+02  0.68209019550E+02  0.00000000000E+00 0.  1.
          2    1    1    2  501    0  0.31674646405E+02  0.14386820968E+02  0.75972736667E+01  0.35608740635E+02  0.00000000000E+00 0. -1.
<scales pt_clust_5="13000.00000" pt_clust_6="13000.00000" pt_clust_7="13000.00000" pt_clust_8="13000.00000" pt_clust_9="34.78885"></scales>
<clustering>
<clus scale="   34.789">  2  9  1 -1</clus>
<clus scale="   83.328">  5  6 -1 -1</clus>
<clus scale="   91.265">  7  8 -1 -1</clus>
<clus scale="  112.656">  1  5  2 -1</clus>
<clus scale="   34.789">  2  5  1 -1</clus>
</clustering>
</event>
<event>
 9    1  0.6296820E-005  0.1216396E+03  0.7546771E-02  0.1244380E+00
         21   -1    0    0  501  502  0.00000000000E+00  0.00000000000E+00  0.10145512175E+03  0.10145512175E+03  0.00000000000E+00 0. -1.
          1   -1    0    0  502    0 -0.00000000000E+00 -0.00000000000E+00 -0.21638485354E+03  0.21638485354E+03  0.00000000000E+00 0. -1.
        -24    2    1    2    0    0  0.76298157666E+02 -0.45580568824E+02 -0.78501462020E+02  0.14273294533E+03  0.79443168534E+02 0.  0.
         23    2    1    2    0    0 -0.29694345946E+02  0.65724675698E+02 -0.90293986215E+01  0.11741475622E+03  0.92212839462E+02 0.  0.
         13    1    3    3    0    0  0.79969791789E+02 -0.52424077580E+02 -0.88351157851E+02  0.13018977918E+03  0.00000000000E+00 0. -1.
        -14    1    3    3    0    0 -0.36716341231E+01  0.68435087558E+01  0.98496958314E+01  0.12543166155E+02  0.00000000000E+00 0.  1.
        -11    1    4    4    0    0 -0.59136056492E+02  0.39950390616E+02 -0.24331062350E+02  0.75399651742E+02  0.00000000000E+00 0.  1.
         11    1    4    4    0    0  0.29441710545E+02  0.25774285082E+02  0.15301663728E+02  0.42015104477E+02  0.00000000000E+00 0. -1.
          2    1    1    2  501    0 -0.46603811720E+02 -0.20144106875E+02 -0.27398871145E+02  0.57692273734E+02  0.00000000000E+00 0. -1.
<scales pt_clust_5="13000.00000" pt_clust_6="13000.00000" pt_clust_7="13000.00000" pt_clust_8="13000.00000" pt_clust_9="50.77108"></scales>
<clustering>
<clus scale="   50.771">  1  9  2 -1</clus>
<clus scale="   79.443">  5  6 -1 -1</clus>
<clus scale="   92.213">  7  8 -1 -1</clus>
<clus scale="  112.268">  2  5  1 -1</clus>
<clus scale="   50.771">  1  5  2 -1</clus>
</clustering>
</event>
<event>
 9    1  0.6296820E-005  0.1609479E+03  0.7546771E-02  0.1208223E+00
         21   -1    0    0  501  502  0.00000000000E+00  0.00000000000E+00  0.13007496838E+03  0.13007496838E+03  0.00000000000E+00 0. -1.
          1   -1    0    0  502    0 -0.00000000000E+00 -0.00000000000E+00 -0.61224193907E+03  0.61224193907E+03  0.00000000000E+00 0. -1.
         23    2    1    2    0    0  0.46266277801E+02 -0.29123116071E+01 -0.41968295685E+03  0.43207596813E+03  0.91688646747E+02 0.  0.
        -24    2    1    2    0    0  0.11087918808E+03 -0.27357024462E+02 -0.54356502517E+02  0.15000053682E+03  0.80640749896E+02 0.  0.
         11    1    4    4    0    0  0.11223126824E+03 -0.80500400251E+01 -0.25694797232E+02  0.11541613111E+03  0.00000000000E+00 0. -1.
        -12    1    4    4    0    0 -0.13520801571E+01 -0.19306984437E+02 -0.28661705285E+02  0.34584405715E+02  0.00000000000E+00 0.  1.
        -13    1    3    3    0    0  0.25536843690E+02 -0.44646656987E+02 -0.15468237026E+03  0.16300947836E+03  0.00000000000E+00 0.  1.
         13    1    3    3    0    0  0.20729434111E+02  0.41734345380E+02 -0.26500058660E+03  0.26906648978E+03  0.00000000000E+00 0. -1.
          2    1    1    2  501    0 -0.15714546588E+03  0.30269336069E+02 -0.81275113178E+01  0.16024040250E+03  0.00000000000E+00 0. -1.
<scales pt_clust_5="13000.00000" pt_clust_6="13000.00000" pt_clust_7="13000.00000" pt_clust_8="13000.00000" pt_clust_9="139.28852"></scales>
<clustering>
<clus scale="   80.641">  5  6 -1 -1</clus>
<clus scale="   91.689">  7  8 -1 -1</clus>
<clus scale="  102.742">  2  7  1 -1</clus>
<clus scale="  139.289">  1  9  2 -1</clus>
<clus scale="  139.289">  1  5  2 -1</clus>
</clustering>
</event>
<event>
 9    1  0.6296820E-005  0.3030083E+03  0.7546771E-02  0.1110459E+00
          3   -1    0    0  502    0 -0.00000000000E+00  0.00000000000E+00  0.30252636717E+04  0.30252636717E+04  0.00000000000E+00 0. -1.
         21   -1    0    0  501  502  0.00000000000E+00 -0.00000000000E+00 -0.53288836490E+02  0.53288836490E+02  0.00000000000E+00 0. -1.
         23    2    1    2    0    0  0.11500041627E+03 -0.34757908127E+02  0.62113944110E+03  0.63921302670E+03  0.91355789630E+02 0.  0.
        -24    2    1    2    0    0  0.69575647796E+02  0.28332883386E+03  0.74742045365E+03  0.80630693440E+03  0.79859495803E+02 0.  0.
         11    1    4    4    0    0  0.18062053837E+02  0.15582641934E+03  0.30453446522E+03  0.34256291577E+03  0.00000000000E+00 0. -1.
        -12    1    4    4    0    0  0.51513593959E+02  0.12750241451E+03  0.44288598843E+03  0.46374401863E+03  0.00000000000E+00 0.  1.
        -11    1    3    3    0    0  0.78705949954E+01 -0.40789653427E+02  0.22479028430E+03  0.22859661854E+03  0.00000000000E+00 0.  1.
         11    1    3    3    0    0  0.10712982127E+03  0.60317452995E+01  0.39634915680E+03  0.41061640816E+03  0.00000000000E+00 0. -1.
          4    1    1    2  501    0 -0.18457606407E+03 -0.24857092573E+03  0.16034149405E+04  0.16330325471E+04  0.00000000000E+00 0. -1.
<scales pt_clust_5="13000.00000" pt_clust_6="13000.00000" pt_clust_7="13000.00000" pt_clust_8="13000.00000" pt_clust_9="292.29539"></scales>
<clustering>
<clus scale="   79.859">  5  6 -1 -1</clus>
<clus scale="   91.356">  7  8 -1 -1</clus>
<clus scale="  150.927">  1  7  2 -1</clus>
<clus scale="  292.295">  2  9  1 -1</clus>
<clus scale="  292.295">  2  5  1 -1</clus>
</clustering>
</event>
<event>
 9    1  0.6296820E-005  0.9089474E+02  0.7546771E-02  0.1305771E+00
         -2   -1    0    0    0  501 -0.00000000000E+00  0.00000000000E+00  0.33840595332E+03  0.33840595332E+03  0.00000000000E+00 0.  1.
         21   -1    0    0  501  502  0.00000000000E+00 -0.00000000000E+00 -0.17306354848E+03  0.17306354848E+03  0.00000000000E+00 0. -1.
         23    2    1    2    0    0 -0.23389156739E+02 -0.57355469759E+00  0.29841937340E+03  0.31198504147E+03  0.87938399266E+02 0.  0.
        -24    2    1    2    0    0  0.11720585728E+02  0.51730382768E+02 -0.93720956131E+02  0.13389427569E+03  0.79565412158E+02 0.  0.
         11    1    4    4    0    0  0.25775051269E+02  0.17545076679E+02 -0.91724070581E+02  0.96878728870E+02  0.00000000000E+00 0. -1.
        -12    1    4    4    0    0 -0.14054465541E+02  0.34185306090E+02 -0.19968855500E+01  0.37015546815E+02  0.00000000000E+00 0.  1.
        -11    1    3    3    0    0 -0.24979078275E+02  0.41659994445E+02  0.16874268255E+03  0.17559499538E+03  0.00000000000E+00 0. -1.
         11    1    3    3    0    0  0.15899215365E+01 -0.42233549142E+02  0.12967669085E+03  0.13639004609E+03  0.00000000000E+00 0.  1.
         -1    1    1    2    0  502  0.11668571011E+02 -0.51156828071E+02 -0.39356012419E+02  0.65590184641E+02  0.00000000000E+00 0.  1.
<scales pt_clust_5="13000.00000" pt_clust_6="13000.00000" pt_clust_7="13000.00000" pt_clust_8="13000.00000" pt_clust_9="52.47072"></scales>
<clustering>
<clus scale="   52.471">  2  9  1 -1</clus>
<clus scale="   79.565">  5  6 -1 -1</clus>
<clus scale="   82.821">  2  5  1 -1</clus>
<clus scale="   87.938">  7  8 -1 -1</clus>
<clus scale="   52.471">  2  5  1 -1</clus>
</clustering>
</event>
<event>
 9    1  0.6296820E-005  0.1066731E+03  0.7546771E-02  0.1271173E+00
         21   -1    0    0  501  502  0.00000000000E+00  0.00000000000E+00  0.70750830805E+02  0.70750830805E+02  0.00000000000E+00 0.  1.
          1   -1    0    0  502    0 -0.00000000000E+00 -0.00000000000E+00 -0.43950946795E+03  0.43950946795E+03  0.00000000000E+00 0. -1.
         23    2    1    2    0    0  0.16957209267E+02  0.59666799137E+02 -0.34282462621E+03  0.36004534877E+03  0.90863936590E+02 0.  0.
        -24    2    1    2    0    0  0.44526224449E+00 -0.39915435517E+02 -0.59258681950E+02  0.10774736142E+03  0.80650246475E+02 0.  0.
         13    1    4    4    0    0 -0.19999152422E+01 -0.59869977293E+02 -0.63397574126E+02  0.87221936731E+02  0.00000000000E+00 0. -1.
        -14    1    4    4    0    0  0.24451774867E+01  0.19954541775E+02  0.41388921766E+01  0.20525424694E+02  0.00000000000E+00 0.  1.
        -13    1    3    3    0    0 -0.31888793018E+02  0.18529590011E+02 -0.62781952521E+02  0.72813559098E+02  0.00000000000E+00 0. -1.
         13    1    3    3    0    0  0.48846002285E+02  0.41137209127E+02 -0.28004267369E+03  0.28723178967E+03  0.00000000000E+00 0.  1.
          2    1    1    2  501    0 -0.17402471511E+02 -0.19751363620E+02  0.33324671015E+02  0.42467588556E+02  0.00000000000E+00 0. -1.
<scales pt_clust_5="13000.00000" pt_clust_6="13000.00000" pt_clust_7="13000.00000" pt_clust_8="13000.00000" pt_clust_9="26.32418"></scales>
<clustering>
<clus scale="   26.324">  1  9  2 -1</clus>
<clus scale="   80.650">  5  6 -1 -1</clus>
<clus scale="   90.864">  7  8 -1 -1</clus>
<clus scale="   98.119">  1  5  2 -1</clus>
<clus scale="   26.324">  1  5  2 -1</clus>
</clustering>
</event>
<event>
 9    1  0.6296820E-005  0.1917922E+03  0.7546771E-02  0.1189984E+00
          1   -1    0    0  502    0 -0.00000000000E+00  0.00000000000E+00  0.20679629538E+03  0.20679629538E+03  0.00000000000E+00 0. -1.
         21   -1    0    0  501  502  0.00000000000E+00 -0.00000000000E+00 -0.39096528169E+03  0.39096528169E+03  0.00000000000E+00 0. -1.
         23    2    1    2    0    0 -0.29009729342E+02 -0.25910820530E+02  0.77936770208E+02  0.11927187722E+03  0.81478251872E+02 0.  0.
        -24    2    1    2    0    0  0.18514304476E+03 -0.32642233832E+01 -0.53337897504E+02  0.21616773293E+03  0.97953842548E+02 0.  0.
         13    1    4    4    0    0  0.16388616259E+03 -0.37550834208E+02 -0.34461493170E+02  0.17162847651E+03  0.00000000000E+00 0. -1.
        -14    1    4    4    0    0  0.21256882178E+02  0.34286610825E+02 -0.18876404334E+02  0.44539256419E+02  0.00000000000E+00 0.  1.
        -13    1    3    3    0    0 -0.34063445726E+02  0.21353566935E+02  0.49919118335E+02  0.64095331585E+02  0.00000000000E+00 0.  1.
         13    1    3    3    0    0  0.50537163840E+01 -0.47264387466E+02  0.28017651872E+02  0.55176545635E+02  0.00000000000E+00 0. -1.
          2    1    1    2  501    0 -0.15613331542E+03  0.29175043913E+02 -0.20876785902E+03  0.26232196692E+03  0.00000000000E+00 0. -1.
<scales pt_clust_5="13000.00000" pt_clust_6="13000.00000" pt_clust_7="13000.00000" pt_clust_8="13000.00000" pt_clust_9="164.89175"></scales>
<clustering>
<clus scale="   81.478">  7  8 -1 -1</clus>
<clus scale="   90.286">  1  7  2 -1</clus>
<clus scale="   97.954">  5  6 -1 -1</clus>
<clus scale="  164.892">  2  9  1 -1</clus>
<clus scale="  164.892">  2  5  1 -1</clus>
</clustering>
</event>
<event>
 9    1  0.6296820E-005  0.1416592E+03  0.7546771E-02  0.1235386E+00
          1   -1    0    0  502    0 -0.00000000000E+00  0.00000000000E+00  0.41119198069E+03  0.41119198069E+03  0.00000000000E+00 0. -1.
         21   -1    0    0  501  502  0.00000000000E+00 -0.00000000000E+00 -0.12877195659E+03  0.12877195659E+03  0.00000000000E+00 0. -1.
        -24    2    1    2    0    0  0.77026851019E+01  0.25667567769E+02  0.23496671094E+03  0.24998044223E+03  0.81010560121E+02 0.  0.
         23    2    1    2    0    0 -0.11452203418E+03 -0.25217834434E+02  0.91576693131E+02  0.17440906770E+03  0.90999981781E+02 0.  0.
         11    1    3    3    0    0 -0.35418830929E+02  0.41761274020E+01  0.12350437529E+03  0.12855062948E+03  0.00000000000E+00 0. -1.
        -12    1    3    3    0    0  0.43121516031E+02  0.21491440367E+02  0.11146233566E+03  0.12142981275E+03  0.00000000000E+00 0.  1.
        -13    1    4    4    0    0 -0.18191402272E+02 -0.42927924275E+02  0.48918056763E+02  0.67577437630E+02  0.00000000000E+00 0.  1.
         13    1    4    4    0    0 -0.96330631910E+02  0.17710089842E+02  0.42658636368E+02  0.10683163007E+03  0.00000000000E+00 0. -1.
          2    1    1    2  501    0  0.10681934908E+03 -0.44973333537E+00 -0.44123379979E+02  0.11557442736E+03  0.00000000000E+00 0. -1.
<scales pt_clust_5="13000.00000" pt_clust_6="13000.00000" pt_clust_7="13000.00000" pt_clust_8="13000.00000" pt_clust_9="108.56489"></scales>
<clustering>
<clus scale="   81.011">  5  6 -1 -1</clus>
<clus scale="   85.328">  1  5  2 -1</clus>
<clus scale="   91.000">  7  8 -1 -1</clus>
<clus scale="  108.565">  2  9  1 -1</clus>
<clus scale="  108.565">  2  5  1 -1</clus>
</clustering>
</event>
<event>
 9    1  0.6296820E-005  0.2130730E+03  0.7546771E-02  0.1139155E+00
         21   -1    0    0  501  502  0.00000000000E+00  0.00000000000E+00  0.41792819180E+03  0.41792819180E+03  0.00000000000E+00 0. -1.
          1   -1    0    0  502    0 -0.00000000000E+00 -0.00000000000E+00 -0.83917085789E+02  0.83917085789E+02  0.00000000000E+00 0. -1.
        -24    2    1    2    0    0 -0.56343493175E+01  0.52469423190E+02  0.40157272130E+02  0.10413131636E+03  0.80286600868E+02 0.  0.
         23    2    1    2    0    0 -0.17971720123E+02  0.71541442932E+02  0.58568280046E+02  0.13070228869E+03  0.90618342845E+02 0.  0.
         13    1    3    3    0    0 -0.21643495316E+02  0.23202087426E+02 -0.18443335397E+02  0.36700604504E+02  0.00000000000E+00 0. -1.
        -14    1    3    3    0    0  0.16009145998E+02  0.29267335764E+02  0.58600607527E+02  0.67430711852E+02  0.00000000000E+00 0.  1.
        -13    1    4    4    0    0 -0.54815316064E+02  0.43924299395E+02  0.41556852221E+02  0.81615163537E+02  0.00000000000E+00 0. -1.
         13    1    4    4    0    0  0.36843595942E+02  0.27617143536E+02  0.17011427824E+02  0.49087125152E+02  0.00000000000E+00 0.  1.
          2    1    1    2  501    0  0.23606069440E+02 -0.12401086612E+03  0.23528555383E+03  0.26701167254E+03  0.00000000000E+00 0. -1.
<scales pt_clust_5="13000.00000" pt_clust_6="13000.00000" pt_clust_7="13000.00000" pt_clust_8="13000.00000" pt_clust_9="126.23764"></scales>
<clustering>
<clus scale="   80.287">  5  6 -1 -1</clus>
<clus scale="   90.618">  7  8 -1 -1</clus>
<clus scale="   91.465">  5  7 -1 -1</clus>
<clus scale="  126.238">  1  9  2 -1</clus>
<clus scale="  126.238">  1  5  2 -1</clus>
</clustering>
</event>
<event>
 9    1  0.6296820E-005  0.2522095E+03  0.7546771E-02  0.1112358E+00
          3   -1    0    0  502    0 -0.00000000000E+00  0.00000000000E+00  0.24142493505E+03  0.24142493505E+03  0.00000000000E+00 0. -1.
         21   -1    0    0  501  502  0.00000000000E+00 -0.00000000000E+00 -0.73498935018E+03  0.73498935018E+03  0.00000000000E+00 0.  1.
        -24    2    1    2    0    0 -0.84392993423E+02  0.24126924071E+03 -0.24782137281E+03  0.36559132821E+03  0.83117763388E+02 0.  0.
         23    2    1    2    0    0 -0.12875803988E+03 -0.22709157903E+03 -0.28107602477E+03  0.39429861950E+03  0.91205545513E+02 0.  0.
         11    1    3    3    0    0 -0.23753278421E+02  0.17392202920E+03 -0.13853322554E+03  0.22361696057E+03  0.00000000000E+00 0. -1.
        -12    1    3    3    0    0 -0.60639715002E+02  0.67347211518E+02 -0.10928814727E+03  0.14197436765E+03  0.00000000000E+00 0.  1.
        -13    1    4    4    0    0 -0.87748522656E+02 -0.19023917037E+03 -0.26306882247E+03  0.33629741380E+03  0.00000000000E+00 0.  1.
         13    1    4    4    0    0 -0.41009517227E+02 -0.36852408664E+02 -0.18007202298E+02  0.58001205696E+02  0.00000000000E+00 0. -1.
          4    1    1    2  501    0  0.21315103331E+03 -0.14177661679E+02  0.35332982444E+02  0.21652433752E+03  0.00000000000E+00 0. -1.
<scales pt_clust_5="13000.00000" pt_clust_6="13000.00000" pt_clust_7="13000.00000" pt_clust_8="13000.00000" pt_clust_9="213.62213"></scales>
<clustering>
<clus scale="   83.118">  5  6 -1 -1</clus>
<clus scale="   91.206">  7  8 -1 -1</clus>
<clus scale="  213.622">  2  9  1 -1</clus>
<clus scale="  249.399">  1  5  2 -1</clus>
<clus scale="  213.622">  2  5  1 -1</clus>
</clustering>
</event>
<event>
 9    1  0.7259325E-005  0.1311037E+03  0.7546771E-02  0.1229031E+00
         21   -1    0    0  501  502  0.00000000000E+00  0.00000000000E+00  0.75807730206E+02  0.75807730206E+02  0.00000000000E+00 0. -1.
          1   -1    0    0  502    0 -0.00000000000E+00 -0.00000000000E+00 -0.66118169147E+03  0.66118169147E+03  0.00000000000E+00 0. -1.
        -24    2    1    2    0    0 -0.10896123561E+03  0.47409953258E+01 -0.50805072886E+03  0.52543709308E+03  0.77933098104E+02 0.  0.
         23    2    1    2    0    0  0.56104986192E+02  0.20236587653E+02 -0.10124050630E+03  0.14838826646E+03  0.90620905704E+02 0.  0.
         11    1    3    3    0    0 -0.10163914118E+03  0.51303630109E+01 -0.50801130523E+03  0.51810454725E+03  0.00000000000E+00 0. -1.
        -12    1    3    3    0    0 -0.73220944305E+01 -0.38936768509E+00 -0.39423635538E-01  0.73325458244E+01  0.00000000000E+00 0.  1.
        -13    1    4    4    0    0  0.71378444983E+02 -0.10174202294E+02 -0.82399109199E+02  0.10948977120E+03  0.00000000000E+00 0. -1.
         13    1    4    4    0    0 -0.15273458791E+02  0.30410789946E+02 -0.18841397105E+02  0.38898495260E+02  0.00000000000E+00 0.  1.
          2    1    1    2  501    0  0.52856249419E+02 -0.24977582978E+02  0.23917273910E+02  0.63164062134E+02  0.00000000000E+00 0. -1.
<scales pt_clust_5="13000.00000" pt_clust_6="13000.00000" pt_clust_7="13000.00000" pt_clust_8="13000.00000" pt_clust_9="58.46078"></scales>
<clustering>
<clus scale="   58.461">  1  9  2 -1</clus>
<clus scale="   77.933">  5  6 -1 -1</clus>
<clus scale="   90.621">  7  8 -1 -1</clus>
<clus scale="  122.677">  2  5  1 -1</clus>
<clus scale="   58.461">  1  5  2 -1</clus>
</clustering>
</event>
<event>
 9    1  0.6296820E-005  0.9826721E+02  0.7546771E-02  0.1286026E+00
          1   -1    0    0  502    0 -0.00000000000E+00  0.00000000000E+00  0.11638863135E+03  0.11638863135E+03  0.00000000000E+00 0. -1.
         21   -1    0    0  501  502  0.00000000000E+00 -0.00000000000E+00 -0.13635937974E+03  0.13635937974E+03  0.00000000000E+00 0.  1.
        -24    2    1    2    0    0 -0.63957365308E+00  0.45473265258E+02  0.42447850507E+02  0.10580957432E+03  0.85589830571E+02 0.  0.
         23    2    1    2    0    0  0.23402484093E+02 -0.23114561817E+02 -0.64018822723E+02  0.11499125493E+03  0.89680654646E+02 0.  0.
         11    1    3    3    0    0 -0.32045494582E+02  0.54365903589E+02  0.35606939876E+02  0.72459777555E+02  0.00000000000E+00 0. -1.
        -12    1    3    3    0    0  0.31405920929E+02 -0.88926383313E+01  0.68409106305E+01  0.33349796763E+02  0.00000000000E+00 0.  1.
        -11    1    4    4    0    0  0.55916758104E+02 -0.27511476951E+02 -0.46819369740E+02  0.77946254456E+02  0.00000000000E+00 0.  1.
         11    1    4    4    0    0 -0.32514274011E+02  0.43969151338E+01 -0.17199452984E+02  0.37045000474E+02  0.00000000000E+00 0. -1.
          2    1    1    2  501    0 -0.22762910440E+02 -0.22358703441E+02  0.16002238204E+01  0.31947181840E+02  0.00000000000E+00 0. -1.
<scales pt_clust_5="13000.00000" pt_clust_6="13000.00000" pt_clust_7="13000.00000" pt_clust_8="13000.00000" pt_clust_9="31.90710"></scales>
<clustering>
<clus scale="   31.907">  2  9  1 -1</clus>
<clus scale="   85.590">  5  6 -1 -1</clus>
<clus scale="   89.681">  7  8 -1 -1</clus>
<clus scale="   94.549">  1  5  2 -1</clus>
<clus scale="   31.907">  2  5  1 -1</clus>
</clustering>
</event>
<event>
 9    1  0.6296820E-005  0.1327934E+03  0.7546771E-02  0.1228723E+00
         21   -1    0    0  501  502  0.00000000000E+00  0.00000000000E+00  0.32533484961E+03  0.32533484961E+03  0.00000000000E+00 0.  1.
          1   -1    0    0  502    0 -0.00000000000E+00 -0.00000000000E+00 -0.86050550316E+02  0.86050550316E+02  0.00000000000E+00 0. -1.
         23    2    1    2    0    0  0.56684207639E+00  0.93491889009E+02  0.35347640145E+02  0.13941630181E+03  0.97192566206E+02 0.  0.
        -24    2    1    2    0    0 -0.29625808994E+02 -0.81250255173E+02  0.21005051461E+03  0.23984962760E+03  0.76989172282E+02 0.  0.
         13    1    4    4    0    0 -0.28735974646E+02 -0.36296063885E+02  0.32169848271E+02  0.56374281638E+02  0.00000000000E+00 0. -1.
        -14    1    4    4    0    0 -0.88983434788E+00 -0.44954191288E+02  0.17788066634E+03  0.18347534596E+03  0.00000000000E+00 0.  1.
        -13    1    3    3    0    0 -0.23155326005E+02  0.10218246877E+03  0.42645078604E+02  0.11311953313E+03  0.00000000000E+00 0.  1.
         13    1    3    3    0    0  0.23722168081E+02 -0.86905797582E+01 -0.72974384592E+01  0.26296768681E+02  0.00000000000E+00 0. -1.
          2    1    1    2  501    0  0.29058966918E+02 -0.12241633836E+02 -0.61138554648E+01  0.32119470512E+02  0.00000000000E+00 0. -1.
<scales pt_clust_5="13000.00000" pt_clust_6="13000.00000" pt_clust_7="13000.00000" pt_clust_8="13000.00000" pt_clust_9="31.53224"></scales>
<clustering>
<clus scale="   31.532">  1  9  2 -1</clus>
<clus scale="   76.989">  5  6 -1 -1</clus>
<clus scale="   97.193">  7  8 -1 -1</clus>
<clus scale="  118.807">  1  5  2 -1</clus>
<clus scale="   31.532">  1  5  2 -1</clus>
</clustering>
</event>
<event>
 9    1  0.6296820E-005  0.1229680E+03  0.7546771E-02  0.1240140E+00
          1   -1    0    0  502    0 -0.00000000000E+00  0.00000000000E+00  0.41258726590E+03  0.41258726590E+03  0.00000000000E+00 0. -1.
         21   -1    0    0  501  502  0.00000000000E+00 -0.00000000000E+00 -0.27039530396E+03  0.27039530396E+03  0.00000000000E+00 0.  1.
         23    2    1    2    0    0 -0.66797787004E+02 -0.51809174024E+02  0.38585388236E+03  0.40520180257E+03  0.90327999020E+02 0.  0.
        -24    2    1    2    0    0  0.38637920926E+02  0.49497314742E+02 -0.18475686898E+03  0.21244985702E+03  0.84005761778E+02 0.  0.
         13    1    4    4    0    0 -0.17768977906E+02  0.36270149203E+02 -0.41446322716E+02  0.57871046005E+02  0.00000000000E+00 0. -1.
        -14    1    4    4    0    0  0.56406898831E+02  0.13227165539E+02 -0.14331054626E+03  0.15457881101E+03  0.00000000000E+00 0.  1.
        -13    1    3    3    0    0 -0.58221347456E+01 -0.50325974341E+02  0.91441986399E+02  0.10453821226E+03  0.00000000000E+00 0.  1.
         13    1    3    3    0    0 -0.60975652259E+02 -0.14831996833E+01  0.29441189596E+03  0.30066359030E+03  0.00000000000E+00 0. -1.
          2    1    1    2  501    0  0.28159866078E+02  0.23118592820E+01 -0.58905051442E+02  0.65330910267E+02  0.00000000000E+00 0. -1.
<scales pt_clust_5="13000.00000" pt_clust_6="13000.00000" pt_clust_7="13000.00000" pt_clust_8="13000.00000" pt_clust_9="28.25461"></scales>
<clustering>
<clus scale="   28.255">  2  9  1 -1</clus>
<clus scale="   84.006">  5  6 -1 -1</clus>
<clus scale="   90.328">  7  8 -1 -1</clus>
<clus scale="  118.402">  2  5  1 -1</clus>
<clus scale="   28.255">  2  5  1 -1</clus>
</clustering>
</event>
<event>
 9    1  0.6296820E-005  0.9198780E+02  0.7546771E-02  0.1304660E+00
          1   -1    0    0  502    0 -0.00000000000E+00  0.00000000000E+00  0.36571942659E+02  0.36571942659E+02  0.00000000000E+00 0. -1.
         21   -1    0    0  501  502  0.00000000000E+00 -0.00000000000E+00 -0.67583278488E+03  0.67583278488E+03  0.00000000000E+00 0. -1.
         23    2    1    2    0    0  0.70760468941E+01 -0.12220435242E+02 -0.67375412048E+02  0.11463396284E+03  0.91662914046E+02 0.  0.
        -24    2    1    2    0    0 -0.50066204417E+01 -0.59967348168E+02 -0.30600966786E+03  0.32226163675E+03  0.81175714337E+02 0.  0.
         11    1    4    4    0    0  0.31445685842E+02 -0.10491911287E+02 -0.16723367357E+03  0.17048757414E+03  0.00000000000E+00 0. -1.
        -12    1    4    4    0    0 -0.36452306283E+02 -0.49475436880E+02 -0.13877599429E+03  0.15177406260E+03  0.00000000000E+00 0.  1.
        -13    1    3    3    0    0 -0.29445720065E+02 -0.37356157158E+02 -0.42554390703E+02  0.63823264378E+02  0.00000000000E+00 0. -1.
         13    1    3    3    0    0  0.36521766959E+02  0.25135721915E+02 -0.24821021345E+02  0.50810698466E+02  0.00000000000E+00 0.  1.
          2    1    1    2  501    0 -0.20694264524E+01  0.72187783410E+02 -0.26587576231E+03  0.27550912795E+03  0.00000000000E+00 0. -1.
<scales pt_clust_5="13000.00000" pt_clust_6="13000.00000" pt_clust_7="13000.00000" pt_clust_8="13000.00000" pt_clust_9="72.21744"></scales>
<clustering>
<clus scale="   72.217">  2  9  1 -1</clus>
<clus scale="   81.176">  5  6 -1 -1</clus>
<clus scale="   81.542">  2  5  1 -1</clus>
<clus scale="   91.663">  7  8 -1 -1</clus>
<clus scale="   72.217">  2  5  1 -1</clus>
</clustering>
</event>
<event>
 9    1  0.6296820E-005  0.1848520E+03  0.7546771E-02  0.1164672E+00
          3   -1    0    0  502    0 -0.00000000000E+00  0.00000000000E+00  0.27456397141E+03  0.27456397141E+03  0.00000000000E+00 0. -1.
         21   -1    0    0  501  502  0.00000000000E+00 -0.00000000000E+00 -0.44257456188E+03  0.44257456188E+03  0.00000000000E+00 0.  1.
         23    2    1    2    0    0  0.13732878126E+03  0.75480738593E+02  0.18451033231E+03  0.25951632808E+03  0.93531415844E+02 0.  0.
        -24    2    1    2    0    0 -0.16617843464E+03 -0.55050649568E+02 -0.13029873786E+03  0.23260578246E+03  0.80509892483E+02 0.  0.
         11    1    4    4    0    0 -0.62774156684E+02  0.13624611399E+02 -0.68621759967E+02  0.93995588855E+02  0.00000000000E+00 0. -1.
        -12    1    4    4    0    0 -0.10340427796E+03 -0.68675260967E+02 -0.61676977888E+02  0.13861019360E+03  0.00000000000E+00 0.  1.
        -13    1    3    3    0    0  0.14160718258E+03  0.50260855285E+02  0.12763526799E+03  0.19715351726E+03  0.00000000000E+00 0. -1.
         13    1    3    3    0    0 -0.42784013233E+01  0.25219883309E+02  0.56875064319E+02  0.62362810819E+02  0.00000000000E+00 0.  1.
          4    1    1    2  501    0  0.28849653381E+02 -0.20430089026E+02 -0.22222218492E+03  0.22501642275E+03  0.00000000000E+00 0. -1.
<scales pt_clust_5="13000.00000" pt_clust_6="13000.00000" pt_clust_7="13000.00000" pt_clust_8="13000.00000" pt_clust_9="35.35097"></scales>
<clustering>
<clus scale="   35.351">  2  9  1 -1</clus>
<clus scale="   80.510">  5  6 -1 -1</clus>
<clus scale="   93.531">  7  8 -1 -1</clus>
<clus scale="  178.617">  2  5  1 -1</clus>
<clus scale="   35.351">  2  5  1 -1</clus>
</clustering>
</event>
<event>
 9    1  0.6296820E-005  0.1295159E+03  0.7546771E-02  0.1230951E+00
          1   -1    0    0  502    0 -0.00000000000E+00  0.00000000000E+00  0.70344908484E+03  0.70344908484E+03  0.00000000000E+00 0. -1.
         21   -1    0    0  501  502  0.00000000000E+00 -0.00000000000E+00 -0.28507258879E+02  0.28507258879E+02  0.00000000000E+00 0.  1.
         23    2    1    2    0    0  0.83577056221E+02 -0.47229189592E+02  0.42432078795E+03  0.44463330883E+03  0.91841861691E+02 0.  0.
        -24    2    1    2    0    0 -0.63456525665E+02  0.57073855897E+02  0.20464083846E+03  0.23617685267E+03  0.81347878252E+02 0.  0.
         13    1    4    4    0    0 -0.41717983161E+01  0.34532769471E+02  0.14500342667E+03  0.14911710101E+03  0.00000000000E+00 0. -1.
        -14    1    4    4    0    0 -0.59284727349E+02  0.22541086425E+02  0.59637411794E+02  0.87059751662E+02  0.00000000000E+00 0.  1.
        -13    1    3    3    0    0  0.23958780926E+02  0.14664791300E+02  0.30169496814E+02  0.41222297672E+02  0.00000000000E+00 0.  1.
         13    1    3    3    0    0  0.59618275295E+02 -0.61893980892E+02  0.39415129114E+03  0.40341101116E+03  0.00000000000E+00 0. -1.
          2    1    1    2  501    0 -0.20120530556E+02 -0.98446663044E+01  0.45980199547E+02  0.51146182212E+02  0.00000000000E+00 0. -1.
<scales pt_clust_5="13000.00000" pt_clust_6="13000.00000" pt_clust_7="13000.00000" pt_clust_8="13000.00000" pt_clust_9="22.39985"></scales>
<clustering>
<clus scale="   22.400">  2  9  1 -1</clus>
<clus scale="   81.348">  5  6 -1 -1</clus>
<clus scale="   91.842">  7  8 -1 -1</clus>
<clus scale="  122.298">  2  5  1 -1</clus>
<clus scale="   22.400">  2  5  1 -1</clus>
</clustering>
</event>
<event>
 9    1  0.9669245E-005  0.1278857E+03  0.7546771E-02  0.1239840E+00
         21   -1    0    0  501  502  0.00000000000E+00  0.00000000000E+00  0.18457685139E+03  0.18457685139E+03  0.00000000000E+00 0. -1.
          1   -1    0    0  502    0 -0.00000000000E+00 -0.00000000000E+00 -0.96452769247E+03  0.96452769247E+03  0.00000000000E+00 0. -1.
        -24    2    1    2    0    0 -0.64076162477E+02  0.35983005112E+02 -0.88111434034E+03  0.88767157269E+03  0.78726164290E+02 0.  0.
         23    2    1    2    0    0  0.44511203017E+02  0.81537118181E+01 -0.31795786372E+02  0.11997976669E+03  0.10647272972E+03 0.  0.
         11    1    3    3    0    0 -0.58340484383E+02  0.41129190419E+02 -0.38887763821E+03  0.39537455649E+03  0.00000000000E+00 0. -1.
        -12    1    3    3    0    0 -0.57356780948E+01 -0.51461853063E+01 -0.49223670214E+03  0.49229701620E+03  0.00000000000E+00 0.  1.
        -13    1    4    4    0    0  0.33798275309E+02 -0.41686613685E+02 -0.41805211759E+02  0.68027736289E+02  0.00000000000E+00 0.  1.
         13    1    4    4    0    0  0.10712927708E+02  0.49840325503E+02  0.10009425387E+02  0.51952030402E+02  0.00000000000E+00 0. -1.
          2    1    1    2  501    0  0.19564959460E+02 -0.44136716930E+02  0.13295928564E+03  0.14145320448E+03  0.00000000000E+00 0. -1.
<scales pt_clust_5="13000.00000" pt_clust_6="13000.00000" pt_clust_7="13000.00000" pt_clust_8="13000.00000" pt_clust_9="48.27875"></scales>
<clustering>
<clus scale="   48.279">  1  9  2 -1</clus>
<clus scale="   78.726">  5  6 -1 -1</clus>
<clus scale="  105.906">  2  5  1 -1</clus>
<clus scale="  106.473">  7  8 -1 -1</clus>
<clus scale="   48.279">  1  5  2 -1</clus>
</clustering>
</event>
<event>
 9    1  0.6296820E-005  0.2022336E+03  0.7546771E-02  0.1166267E+00
         21   -1    0    0  501  502  0.00000000000E+00  0.00000000000E+00  0.10468806448E+03  0.10468806448E+03  0.00000000000E+00 0.  1.
          1   -1    0    0  502    0 -0.00000000000E+00 -0.00000000000E+00 -0.71279153698E+03  0.71279153698E+03  0.00000000000E+00 0. -1.
        -24    2    1    2    0    0 -0.72820737828E+02  0.71565313755E+02 -0.92835516414E+02  0.16095351605E+03  0.82844114033E+02 0.  0.
         23    2    1    2    0    0  0.22588741266E+03 -0.68718725489E+02 -0.33617354509E+03  0.42091556345E+03  0.91705358120E+02 0.  0.
         11    1    3    3    0    0 -0.42716152398E+02  0.86995272252E+02 -0.61099277456E+02  0.11456862038E+03  0.00000000000E+00 0. -1.
        -12    1    3    3    0    0 -0.30104585431E+02 -0.15429958497E+02 -0.31736238958E+02  0.46384895670E+02  0.00000000000E+00 0.  1.
        -13    1    4    4    0    0  0.19755107392E+03 -0.84533932204E+02 -0.25479863641E+03  0.33330880219E+03  0.00000000000E+00 0.  1.
         13    1    4    4    0    0  0.28336338742E+02  0.15815206715E+02 -0.81374908675E+02  0.87606761261E+02  0.00000000000E+00 0. -1.
          2    1    1    2  501    0 -0.15306667483E+03 -0.28465882661E+01 -0.17909441100E+03  0.23561052196E+03  0.00000000000E+00 0. -1.
<scales pt_clust_5="13000.00000" pt_clust_6="13000.00000" pt_clust_7="13000.00000" pt_clust_8="13000.00000" pt_clust_9="180.24580"></scales>
<clustering>
<clus scale="   82.844">  5  6 -1 -1</clus>
<clus scale="   91.705">  7  8 -1 -1</clus>
<clus scale="  131.482">  2  5  1 -1</clus>
<clus scale="  180.246">  1  9  2 -1</clus>
<clus scale="  180.246">  1  5  2 -1</clus>
</clustering>
</event>
<event>
 9    1  0.6296820E-005  0.9482012E+02  0.7546771E-02  0.1298489E+00
          1   -1    0    0  502    0 -0.00000000000E+00  0.00000000000E+00  0.44929591652E+03  0.44929591652E+03  0.00000000000E+00 0. -1.
         21   -1    0    0  501  502  0.00000000000E+00 -0.00000000000E+00 -0.80088201055E+02  0.80088201055E+02  0.00000000000E+00 0. -1.
         23    2    1    2    0    0 -0.14889133838E+02  0.12873427192E+02  0.26739632615E+03  0.28376095741E+03  0.92908956937E+02 0.  0.
        -24    2    1    2    0    0  0.24194442571E+02  0.25475297075E+02  0.15554493243E+03  0.17895602374E+03  0.81219890504E+02 0.  0.
         13    1    4    4    0    0  0.27446006758E+02  0.43705580037E+02  0.15143482234E+03  0.15998739459E+03  0.00000000000E+00 0. -1.
        -14    1    4    4    0    0 -0.32515641875E+01 -0.18230282962E+02  0.41101100984E+01  0.18968629143E+02  0.00000000000E+00 0.  1.
        -13    1    3    3    0    0 -0.20654246136E+02 -0.38271710771E+02  0.12476963453E+03  0.13213168972E+03  0.00000000000E+00 0.  1.
         13    1    3    3    0    0  0.57651122979E+01  0.51145137963E+02  0.14262669162E+03  0.15162926769E+03  0.00000000000E+00 0. -1.
          2    1    1    2  501    0 -0.93053087322E+01 -0.38348724267E+02 -0.53733543117E+02  0.66667136428E+02  0.00000000000E+00 0. -1.
<scales pt_clust_5="13000.00000" pt_clust_6="13000.00000" pt_clust_7="13000.00000" pt_clust_8="13000.00000" pt_clust_9="39.46154"></scales>
<clustering>
<clus scale="   39.462">  2  9  1 -1</clus>
<clus scale="   81.220">  5  6 -1 -1</clus>
<clus scale="   83.399">  2  5  1 -1</clus>
<clus scale="   92.909">  7  8 -1 -1</clus>
<clus scale="   39.462">  2  5  1 -1</clus>
</clustering>
</event>
<event>
 9    1  0.6296820E-005  0.1051057E+03  0.7546771E-02  0.1271591E+00
          1   -1    0    0  502    0 -0.00000000000E+00  0.00000000000E+00  0.71383650167E+03  0.71383650167E+03  0.00000000000E+00 0. -1.
         21   -1    0    0  501  502  0.00000000000E+00 -0.00000000000E+00 -0.30138353999E+02  0.30138353999E+02  0.00000000000E+00 0. -1.
        -24    2    1    2    0    0 -0.62158189059E+02 -0.79640683318E+01  0.51438541381E+03  0.52559490453E+03  0.87923733286E+02 0.  0.
         23    2    1    2    0    0  0.19472104976E+02  0.58538257525E-01  0.12555005733E+03  0.15673766827E+03  0.91786237864E+02 0.  0.
         13    1    3    3    0    0 -0.83598051363E+02  0.29918000397E+01  0.41345387387E+03  0.42183135359E+03  0.00000000000E+00 0. -1.
        -14    1    3    3    0    0  0.21439862304E+02 -0.10955868371E+02  0.10093153994E+03  0.10376355093E+03  0.00000000000E+00 0.  1.
        -13    1    4    4    0    0 -0.29895928386E+01  0.39700347017E+02  0.91721194711E+02  0.99989163302E+02  0.00000000000E+00 0.  1.
         13    1    4    4    0    0  0.22461697814E+02 -0.39641808759E+02  0.33828862621E+02  0.56748504973E+02  0.00000000000E+00 0. -1.
          2    1    1    2  501    0  0.42686084083E+02  0.79055300742E+01  0.43762676537E+02  0.61642282873E+02  0.00000000000E+00 0. -1.
<scales pt_clust_5="13000.00000" pt_clust_6="13000.00000" pt_clust_7="13000.00000" pt_clust_8="13000.00000" pt_clust_9="43.41197"></scales>
<clustering>
<clus scale="   43.412">  2  9  1 -1</clus>
<clus scale="   87.924">  5  6 -1 -1</clus>
<clus scale="   91.786">  7  8 -1 -1</clus>
<clus scale="  101.750">  1  5  2 -1</clus>
<clus scale="   43.412">  2  5  1 -1</clus>
</clustering>
</event>
<event>
 9    1  0.6296820E-005  0.1479883E+03  0.7546771E-02  0.1205844E+00
         21   -1    0    0  501  502  0.00000000000E+00  0.00000000000E+00  0.10465395904E+03  0.10465395904E+03  0.00000000000E+00 0.  1.
          1   -1    0    0  502    0 -0.00000000000E+00 -0.00000000000E+00 -0.31102650963E+03  0.31102650963E+03  0.00000000000E+00 0. -1.
         23    2    1    2    0    0  0.12280259700E+03  0.12882924883E+02 -0.19836737331E+03  0.25197037269E+03  0.94302737692E+02 0.  0.
        -24    2    1    2    0    0 -0.95323214831E+02 -0.16517045978E+02 -0.29403965075E+02  0.12869250897E+03  0.79610555896E+02 0.  0.
         11    1    4    4    0    0 -0.39319458292E+02 -0.44521390409E+02 -0.28945010820E+02  0.66075620736E+02  0.00000000000E+00 0. -1.
        -12    1    4    4    0    0 -0.56003756539E+02  0.28004344431E+02 -0.45895425506E+00  0.62616888237E+02  0.00000000000E+00 0.  1.
        -13    1    3    3    0    0  0.59079642999E+02 -0.14865107211E+02 -0.26223471165E+02  0.66325304894E+02  0.00000000000E+00 0.  1.
         13    1    3    3    0    0  0.63722954003E+02  0.27748032094E+02 -0.17214390214E+03  0.18564506780E+03  0.00000000000E+00 0. -1.
          2    1    1    2  501    0 -0.27479382170E+02  0.36341210951E+01  0.21398787799E+02  0.35017587008E+02  0.00000000000E+00 0. -1.
<scales pt_clust_5="13000.00000" pt_clust_6="13000.00000" pt_clust_7="13000.00000" pt_clust_8="13000.00000" pt_clust_9="27.71864"></scales>
<clustering>
<clus scale="   27.719">  1  9  2 -1</clus>
<clus scale="   79.611">  5  6 -1 -1</clus>
<clus scale="   94.303">  7  8 -1 -1</clus>
<clus scale="  139.088">  1  5  2 -1</clus>
<clus scale="   27.719">  1  5  2 -1</clus>
</clustering>
</event>
<event>
 9    1  0.6296820E-005  0.1435409E+03  0.7546771E-02  0.1231785E+00
         -2   -1    0    0    0  501 -0.00000000000E+00  0.00000000000E+00  0.96385296090E+03  0.96385296090E+03  0.00000000000E+00 0.  1.
         21   -1    0    0  501  502  0.00000000000E+00 -0.00000000000E+00 -0.37520898178E+02  0.37520898178E+02  0.00000000000E+00 0.  1.
        -24    2    1    2    0    0  0.32771173810E+02  0.15694951826E+01  0.97057180959E+02  0.13121916462E+03  0.81987557833E+02 0.  0.
         23    2    1    2    0    0 -0.90837215057E+02  0.85404069850E+02  0.56804536354E+03  0.58877074440E+03  0.91816118606E+02 0.  0.
         13    1    3    3    0    0  0.35255561940E+02  0.60952867014E+01  0.18017500440E+01  0.35823923164E+02  0.00000000000E+00 0. -1.
        -14    1    3    3    0    0 -0.24843881298E+01 -0.45257915188E+01  0.95255430915E+02  0.95395241454E+02  0.00000000000E+00 0.  1.
        -11    1    4    4    0    0 -0.98186253851E+02  0.53228836865E+02  0.50917514620E+03  0.52128032672E+03  0.00000000000E+00 0.  1.
         11    1    4    4    0    0  0.73490387933E+01  0.32175232985E+02  0.58870217344E+02  0.67490417682E+02  0.00000000000E+00 0. -1.
         -1    1    1    2    0  502  0.58066041248E+02 -0.86973565032E+02  0.26122951822E+03  0.28138395006E+03  0.00000000000E+00 0.  1.
<scales pt_clust_5="13000.00000" pt_clust_6="13000.00000" pt_clust_7="13000.00000" pt_clust_8="13000.00000" pt_clust_9="110.33489"></scales>
<clustering>
<clus scale="   81.988">  5  6 -1 -1</clus>
<clus scale="   88.308">  1  5  2 -1</clus>
<clus scale="   91.816">  7  8 -1 -1</clus>
<clus scale="  110.335">  2  9  1 -1</clus>
<clus scale="  110.335">  2  5  1 -1</clus>
</clustering>
</event>
<event>
 9    1  0.6296820E-005  0.2022779E+03  0.7546771E-02  0.1178954E+00
         21   -1    0    0  501  502  0.00000000000E+00  0.00000000000E+00  0.27429366330E+03  0.27429366330E+03  0.00000000000E+00 0.  1.
         -2   -1    0    0    0  501 -0.00000000000E+00 -0.00000000000E+00 -0.28183123476E+03  0.28183123476E+03  0.00000000000E+00 0.  1.
         23    2    1    2    0    0  0.12267511735E+02 -0.33024534902E+02  0.82539272018E+02  0.12845660301E+03  0.91908953225E+02 0.  0.
        -24    2    1    2    0    0 -0.18067019686E+03  0.66965417637E+02  0.39031907689E+02  0.21277176761E+03  0.81377196332E+02 0.  0.
         13    1    4    4    0    0 -0.62300651079E+02  0.64560057828E+02  0.63140317206E+01  0.89940197844E+02  0.00000000000E+00 0. -1.
        -14    1    4    4    0    0 -0.11836954578E+03  0.24053598087E+01  0.32717875969E+02  0.12283156977E+03  0.00000000000E+00 0.  1.
        -11    1    3    3    0    0 -0.35089562556E+02 -0.12210077005E+02  0.84611813751E+01  0.38104526911E+02  0.00000000000E+00 0. -1.
         11    1    3    3    0    0  0.47357074291E+02 -0.20814457897E+02  0.74078090643E+02  0.90352076103E+02  0.00000000000E+00 0.  1.
         -1    1    1    2    0  502  0.16840268513E+03 -0.33940882735E+02 -0.12910875116E+03  0.21489652744E+03  0.00000000000E+00 0.  1.
<scales pt_clust_5="13000.00000" pt_clust_6="13000.00000" pt_clust_7="13000.00000" pt_clust_8="13000.00000" pt_clust_9="185.18681"></scales>
<clustering>
<clus scale="   81.377">  5  6 -1 -1</clus>
<clus scale="   91.909">  7  8 -1 -1</clus>
<clus scale="   98.430">  2  7  1 -1</clus>
<clus scale="  185.187">  1  9  2 -1</clus>
<clus scale="  185.187">  1  5  2 -1</clus>
</clustering>
</event>
<event>
 9    1  0.6296820E-005  0.9106757E+02  0.7546771E-02  0.1304264E+00
          1   -1    0    0  502    0 -0.00000000000E+00  0.00000000000E+00  0.74788261823E+02  0.74788261823E+02  0.00000000000E+00 0. -1.
         21   -1    0    0  501  502  0.00000000000E+00 -0.00000000000E+00 -0.26894684500E+03  0.26894684500E+03  0.00000000000E+00 0. -1.
         23    2    1    2    0    0 -0.74727471364E+01 -0.20131979612E+02  0.24402587586E+02  0.94107222514E+02  0.88315029840E+02 0.  0.
        -24    2    1    2    0    0 -0.10929393458E+02  0.31216776706E+02 -0.20755714849E+03  0.22549077572E+03  0.81683420933E+02 0.  0.
         11    1    4    4    0    0 -0.42558958452E+02  0.26512542771E+01 -0.13231656564E+03  0.13901786804E+03  0.00000000000E+00 0. -1.
        -12    1    4    4    0    0  0.31629564994E+02  0.28565522429E+02 -0.75240582853E+02  0.86472907673E+02  0.00000000000E+00 0.  1.
        -13    1    3    3    0    0  0.33079534041E+02  0.14697002732E+02  0.17505150752E+02  0.40208055965E+02  0.00000000000E+00 0.  1.
         13    1    3    3    0    0 -0.40552281177E+02 -0.34828982344E+02  0.68974368338E+01  0.53899166549E+02  0.00000000000E+00 0. -1.
          2    1    1    2  501    0  0.18402140594E+02 -0.11084797094E+02 -0.11004022279E+02  0.24137108596E+02  0.00000000000E+00 0. -1.
<scales pt_clust_5="13000.00000" pt_clust_6="13000.00000" pt_clust_7="13000.00000" pt_clust_8="13000.00000" pt_clust_9="21.48283"></scales>
<clustering>
<clus scale="   21.483">  2  9  1 -1</clus>
<clus scale="   81.683">  5  6 -1 -1</clus>
<clus scale="   84.652">  2  5  1 -1</clus>
<clus scale="   88.315">  7  8 -1 -1</clus>
<clus scale="   21.483">  2  5  1 -1</clus>
</clustering>
</event>
<event>
 9    1  0.6296820E-005  0.1044071E+03  0.7546771E-02  0.1276695E+00
         -2   -1    0    0    0  501 -0.00000000000E+00  0.00000000000E+00  0.33620060083E+02  0.33620060083E+02  0.00000000000E+00 0.  1.
         21   -1    0    0  501  502  0.00000000000E+00 -0.00000000000E+00 -0.62386762406E+03  0.62386762406E+03  0.00000000000E+00 0. -1.
         23    2    1    2    0    0 -0.35430921515E+02  0.23072651781E+02 -0.14501089961E+03  0.17682497456E+03  0.91930480057E+02 0.  0.
        -24    2    1    2    0    0  0.13900326226E+01 -0.81019495353E+02 -0.28136018436E+03  0.30354094498E+03  0.80046618396E+02 0.  0.
         13    1    4    4    0    0  0.11747904456E+02 -0.95420027084E+02 -0.23531581374E+03  0.25419781082E+03  0.00000000000E+00 0. -1.
        -14    1    4    4    0    0 -0.10357871833E+02  0.14400531730E+02 -0.46044370619E+02  0.49343134160E+02  0.00000000000E+00 0.  1.
        -11    1    3    3    0    0 -0.60501991530E+02  0.25541183726E+02 -0.62896448768E+02  0.90932977037E+02  0.00000000000E+00 0.  1.
         11    1    3    3    0    0  0.25071070015E+02 -0.24685319449E+01 -0.82114450842E+02  0.85891997524E+02  0.00000000000E+00 0. -1.
         -1    1    1    2    0  502  0.34040888892E+02  0.57946843572E+02 -0.16387648000E+03  0.17712176460E+03  0.00000000000E+00 0.  1.
<scales pt_clust_5="13000.00000" pt_clust_6="13000.00000" pt_clust_7="13000.00000" pt_clust_8="13000.00000" pt_clust_9="67.20579"></scales>
<clustering>
<clus scale="   67.206">  2  9  1 -1</clus>
<clus scale="   80.047">  5  6 -1 -1</clus>
<clus scale="   91.930">  7  8 -1 -1</clus>
<clus scale="   94.112">  2  5  1 -1</clus>
<clus scale="   67.206">  2  5  1 -1</clus>
</clustering>
</event>
<event>
 9    1  0.6296820E-005  0.9890077E+02  0.7546771E-02  0.1286124E+00
         21   -1    0    0  501  502  0.00000000000E+00  0.00000000000E+00  0.48638260818E+02  0.48638260818E+02  0.00000000000E+00 0. -1.
          1   -1    0    0  502    0 -0.00000000000E+00 -0.00000000000E+00 -0.38998184802E+03  0.38998184802E+03  0.00000000000E+00 0. -1.
        -24    2    1    2    0    0 -0.29463940866E+02 -0.37810112614E+02 -0.24973980682E+03  0.26809809652E+03  0.84905181353E+02 0.  0.
         23    2    1    2    0    0  0.22173701219E+02 -0.94711055510E+01 -0.70654233237E+02  0.11829611155E+03  0.91763688180E+02 0.  0.
         11    1    3    3    0    0  0.13780584709E+02 -0.30819353024E+02 -0.33845267959E+02  0.47804175539E+02  0.00000000000E+00 0. -1.
        -12    1    3    3    0    0 -0.43244525574E+02 -0.69907595899E+01 -0.21589453886E+03  0.22029392098E+03  0.00000000000E+00 0.  1.
        -11    1    4    4    0    0  0.38915470343E+02  0.21999176854E+02 -0.68714148561E+01  0.45228242907E+02  0.00000000000E+00 0.  1.
         11    1    4    4    0    0 -0.16741769124E+02 -0.31470282405E+02 -0.63782818381E+02  0.73067868648E+02  0.00000000000E+00 0. -1.
          2    1    1    2  501    0  0.72902396466E+01  0.47281218165E+02 -0.20949547153E+02  0.52225900769E+02  0.00000000000E+00 0. -1.
<scales pt_clust_5="13000.00000" pt_clust_6="13000.00000" pt_clust_7="13000.00000" pt_clust_8="13000.00000" pt_clust_9="47.83995"></scales>
<clustering>
<clus scale="   47.840">  1  9  2 -1</clus>
<clus scale="   84.905">  5  6 -1 -1</clus>
<clus scale="   91.764">  7  8 -1 -1</clus>
<clus scale="   92.573">  2  5  1 -1</clus>
<clus scale="   47.840">  1  5  2 -1</clus>
</clustering>
</event>
<event>
 9    1  0.6296820E-005  0.3374910E+03  0.7546771E-02  0.1096505E+00
          1   -1    0    0  502    0 -0.00000000000E+00  0.00000000000E+00  0.20642525611E+04  0.20642525611E+04  0.00000000000E+00 0. -1.
         21   -1    0    0  501  502  0.00000000000E+00 -0.00000000000E+00 -0.13920724484E+03  0.13920724484E+03  0.00000000000E+00 0. -1.
        -24    2    1    2    0    0  0.13201351311E+03  0.19328422184E+02  0.12281397843E+02  0.15700405270E+03  0.81843046638E+02 0.  0.
         23    2    1    2    0    0 -0.31839327675E+03  0.16615585796E+03  0.57997349666E+03  0.68797419548E+03  0.89203077299E+02 0.  0.
         11    1    3    3    0    0  0.13799369656E+03  0.27714326419E+02 -0.29331971406E+00  0.14074953008E+03  0.00000000000E+00 0. -1.
        -12    1    3    3    0    0 -0.59801834553E+01 -0.83859042353E+01  0.12574717557E+02  0.16254522621E+02  0.00000000000E+00 0.  1.
        -13    1    4    4    0    0 -0.23894287034E+03  0.12937623307E+03  0.35860632073E+03  0.44992265807E+03  0.00000000000E+00 0.  1.
         13    1    4    4    0    0 -0.79450406404E+02  0.36779624885E+02  0.22136717593E+03  0.23805153741E+03  0.00000000000E+00 0. -1.
          2    1    1    2  501    0  0.18637976364E+03 -0.18548428014E+03  0.13327904217E+04  0.13584815577E+04  0.00000000000E+00 0. -1.
<scales pt_clust_5="13000.00000" pt_clust_6="13000.00000" pt_clust_7="13000.00000" pt_clust_8="13000.00000" pt_clust_9="325.48896"></scales>
<clustering>
<clus scale="   81.843">  5  6 -1 -1</clus>
<clus scale="   89.203">  7  8 -1 -1</clus>
<clus scale="  156.523">  1  5  2 -1</clus>
<clus scale="  325.489">  2  9  1 -1</clus>
<clus scale="  325.489">  2  5  1 -1</clus>
</clustering>
</event>
<event>
 9    1  0.6296820E-005  0.1380469E+03  0.7546771E-02  0.1217449E+00
         21   -1    0    0  501  502  0.00000000000E+00  0.00000000000E+00  0.23631953005E+03  0.23631953005E+03  0.00000000000E+00 0.  1.
          1   -1    0    0  502    0 -0.00000000000E+00 -0.00000000000E+00 -0.16535319789E+03  0.16535319789E+03  0.00000000000E+00 0. -1.
        -24    2    1    2    0    0  0.43881830260E+02 -0.89105536469E+02 -0.77506563896E+02  0.14975185361E+03  0.80950222716E+02 0.  0.
         23    2    1    2    0    0 -0.50950029641E+02  0.12779496329E+03  0.10920705667E+03  0.19634536413E+03  0.87737464220E+02 0.  0.
         13    1    3    3    0    0 -0.23256161430E+02 -0.13862501912E+02 -0.12909259789E+02  0.29994449354E+02  0.00000000000E+00 0. -1.
        -14    1    3    3    0    0  0.67137991690E+02 -0.75243034557E+02 -0.64597304107E+02  0.11975740426E+03  0.00000000000E+00 0.  1.
        -11    1    4    4    0    0 -0.59563393682E+02  0.80072735549E+02  0.10909054884E+03  0.14785191473E+03  0.00000000000E+00 0.  1.
         11    1    4    4    0    0  0.86133640403E+01  0.47722227737E+02  0.11650783135E+00  0.48493449397E+02  0.00000000000E+00 0. -1.
          2    1    1    2  501    0  0.70681993816E+01 -0.38689426818E+02  0.39265839393E+02  0.55575510193E+02  0.00000000000E+00 0. -1.
<scales pt_clust_5="13000.00000" pt_clust_6="13000.00000" pt_clust_7="13000.00000" pt_clust_8="13000.00000" pt_clust_9="39.32977"></scales>
<clustering>
<clus scale="   39.330">  1  9  2 -1</clus>
<clus scale="   80.950">  5  6 -1 -1</clus>
<clus scale="   87.737">  7  8 -1 -1</clus>
<clus scale="  133.836">  2  5  1 -1</clus>
<clus scale="   39.330">  1  5  2 -1</clus>
</clustering>
</event>
<event>
 9    1  0.6296820E-005  0.9691276E+02  0.7546771E-02  0.1293327E+00
          1   -1    0    0  502    0 -0.00000000000E+00  0.00000000000E+00  0.45522011408E+02  0.45522011408E+02  0.00000000000E+00 0. -1.
         21   -1    0    0  501  502  0.00000000000E+00 -0.00000000000E+00 -0.33077388843E+03  0.33077388843E+03  0.00000000000E+00 0. -1.
         23    2    1    2    0    0  0.57749459522E+01 -0.36245713824E+02 -0.33026248942E+02  0.10374611894E+03  0.91243752143E+02 0.  0.
        -24    2    1    2    0    0 -0.14462330655E+02  0.18182302764E+02 -0.19313794961E+03  0.21015497967E+03  0.79517876997E+02 0.  0.
         11    1    4    4    0    0 -0.28003841062E+02  0.18811506387E+02 -0.19367211274E+03  0.19658833928E+03  0.00000000000E+00 0. -1.
        -12    1    4    4    0    0  0.13541510407E+02 -0.62920362337E+00  0.53416313674E+00  0.13566640394E+02  0.00000000000E+00 0.  1.
        -11    1    3    3    0    0  0.73088082128E+01 -0.63651133737E+02 -0.46054253366E+01  0.64234690363E+02  0.00000000000E+00 0. -1.
         11    1    3    3    0    0 -0.15338622606E+01  0.27405419913E+02 -0.28420823606E+02  0.39511428580E+02  0.00000000000E+00 0.  1.
          2    1    1    2  501    0  0.86873847026E+01  0.18063411060E+02 -0.59087678474E+02  0.62394801222E+02  0.00000000000E+00 0. -1.
<scales pt_clust_5="13000.00000" pt_clust_6="13000.00000" pt_clust_7="13000.00000" pt_clust_8="13000.00000" pt_clust_9="20.04389"></scales>
<clustering>
<clus scale="   20.044">  2  9  1 -1</clus>
<clus scale="   79.518">  5  6 -1 -1</clus>
<clus scale="   85.964">  2  5  1 -1</clus>
<clus scale="   91.244">  7  8 -1 -1</clus>
<clus scale="   20.044">  2  5  1 -1</clus>
</clustering>
</event>
<event>
 9    1  0.6296820E-005  0.1452426E+03  0.7546771E-02  0.1209017E+00
         -4   -1    0    0    0  501 -0.00000000000E+00  0.00000000000E+00  0.27940899361E+03  0.27940899361E+03  0.00000000000E+00 0.  1.
         21   -1    0    0  501  502  0.00000000000E+00 -0.00000000000E+00 -0.35611384863E+03  0.35611384863E+03  0.00000000000E+00 0.  1.
         23    2    1    2    0    0 -0.81294462501E+01 -0.11095092965E+03  0.11559932863E+03  0.18466017854E+03  0.91432926636E+02 0.  0.
        -24    2    1    2    0    0  0.67670919867E+02  0.12125704808E+03 -0.29290091564E+03  0.33351230944E+03  0.78465846466E+02 0.  0.
         11    1    4    4    0    0  0.26300417877E+02  0.10926709450E+02 -0.12618595698E+03  0.12935996559E+03  0.00000000000E+00 0. -1.
        -12    1    4    4    0    0  0.41370501990E+02  0.11033033863E+03 -0.16671495866E+03  0.20415234384E+03  0.00000000000E+00 0.  1.
        -13    1    3    3    0    0 -0.34153237631E+02 -0.55685743174E+02  0.10349455797E+03  0.12238655630E+03  0.00000000000E+00 0. -1.
         13    1    3    3    0    0  0.26023791381E+02 -0.55265186473E+02  0.12104770651E+02  0.62273622235E+02  0.00000000000E+00 0.  1.
         -3    1    1    2    0  502 -0.59541473617E+02 -0.10306118429E+02  0.10059673200E+03  0.11735035426E+03  0.00000000000E+00 0.  1.
<scales pt_clust_5="13000.00000" pt_clust_6="13000.00000" pt_clust_7="13000.00000" pt_clust_8="13000.00000" pt_clust_9="60.42687"></scales>
<clustering>
<clus scale="   60.427">  2  9  1 -1</clus>
<clus scale="   78.466">  5  6 -1 -1</clus>
<clus scale="   91.433">  7  8 -1 -1</clus>
<clus scale="  137.449">  2  5  1 -1</clus>
<clus scale="   60.427">  2  5  1 -1</clus>
</clustering>
</event>
<event>
 9    1  0.6296820E-005  0.1225732E+03  0.7546771E-02  0.1243984E+00
         21   -1    0    0  501  502  0.00000000000E+00  0.00000000000E+00  0.94084394876E+02  0.94084394876E+02  0.00000000000E+00 0.  1.
          3   -1    0    0  502    0 -0.00000000000E+00 -0.00000000000E+00 -0.24109701542E+03  0.24109701542E+03  0.00000000000E+00 0. -1.
        -24    2    1    2    0    0 -0.19009912090E+02  0.83063169023E+02 -0.93707676807E+02  0.14734433583E+03  0.75288497141E+02 0.  0.
         23    2    1    2    0    0 -0.28907467369E+02 -0.76488439020E+02 -0.10966083352E+02  0.12355736206E+03  0.91978496193E+02 0.  0.
         11    1    3    3    0    0  0.66236833670E+01  0.87351584757E+02 -0.69437498418E+02  0.11178434026E+03  0.00000000000E+00 0. -1.
        -12    1    3    3    0    0 -0.25633595457E+02 -0.42884157349E+01 -0.24270178390E+02  0.35559995566E+02  0.00000000000E+00 0.  1.
        -13    1    4    4    0    0 -0.34336313991E+02  0.10338993234E+02 -0.65183383935E+01  0.36446755343E+02  0.00000000000E+00 0. -1.
         13    1    4    4    0    0  0.54288466221E+01 -0.86827432254E+02 -0.44477449583E+01  0.87110606718E+02  0.00000000000E+00 0.  1.
          4    1    1    2  501    0  0.47917379460E+02 -0.65747300025E+01 -0.42338860387E+02  0.64279712412E+02  0.00000000000E+00 0. -1.
<scales pt_clust_5="13000.00000" pt_clust_6="13000.00000" pt_clust_7="13000.00000" pt_clust_8="13000.00000" pt_clust_9="48.36636"></scales>
<clustering>
<clus scale="   48.366">  1  9  2 -1</clus>
<clus scale="   75.288">  5  6 -1 -1</clus>
<clus scale="   91.978">  7  8 -1 -1</clus>
<clus scale="  110.601">  2  5  1 -1</clus>
<clus scale="   48.366">  1  5  2 -1</clus>
</clustering>
</event>
<event>
 9    1  0.6296820E-005  0.2992479E+03  0.7546771E-02  0.1103339E+00
         21   -1    0    0  501  502  0.00000000000E+00  0.00000000000E+00  0.18479372117E+03  0.18479372117E+03  0.00000000000E+00 0. -1.
          1   -1    0    0  502    0 -0.00000000000E+00 -0.00000000000E+00 -0.12915375912E+04  0.12915375912E+04  0.00000000000E+00 0. -1.
         23    2    1    2    0    0  0.16409410909E+03  0.10611677179E+02 -0.25171255994E+03  0.31419492807E+03  0.91212694611E+02 0.  0.
        -24    2    1    2    0    0  0.10181363572E+03 -0.17212125218E+03 -0.82147309562E+03  0.84921718496E+03  0.79749849759E+02 0.  0.
         11    1    4    4    0    0  0.52111826651E+02 -0.73174090921E+02 -0.52724316096E+03  0.53484151002E+03  0.00000000000E+00 0. -1.
        -12    1    4    4    0    0  0.49701809074E+02 -0.98947161263E+02 -0.29422993465E+03  0.31437567494E+03  0.00000000000E+00 0.  1.
        -13    1    3    3    0    0  0.15632892049E+03 -0.93116086816E+01 -0.17631038560E+03  0.23581940020E+03  0.00000000000E+00 0.  1.
         13    1    3    3    0    0  0.77651886020E+01  0.19923285861E+02 -0.75402174340E+02  0.78375527868E+02  0.00000000000E+00 0. -1.
          2    1    1    2  501    0 -0.26590774482E+03  0.16150957500E+03 -0.33558214486E+02  0.31291919937E+03  0.00000000000E+00 0. -1.
<scales pt_clust_5="13000.00000" pt_clust_6="13000.00000" pt_clust_7="13000.00000" pt_clust_8="13000.00000" pt_clust_9="288.42554"></scales>
<clustering>
<clus scale="   79.750">  5  6 -1 -1</clus>
<clus scale="   91.213">  7  8 -1 -1</clus>
<clus scale="  188.041">  2  7  1 -1</clus>
<clus scale="  288.426">  1  9  2 -1</clus>
<clus scale="  288.426">  1  5  2 -1</clus>
</clustering>
</event>
<event>
 9    1  0.6296820E-005  0.9704397E+02  0.7546771E-02  0.1289843E+00
         21   -1    0    0  501  502  0.00000000000E+00  0.00000000000E+00  0.34748062989E+03  0.34748062989E+03  0.00000000000E+00 0. -1.
          1   -1    0    0  502    0 -0.00000000000E+00 -0.00000000000E+00 -0.13893246028E+03  0.13893246028E+03  0.00000000000E+00 0. -1.
         23    2    1    2    0    0  0.52916536484E+02 -0.23393469493E+02 -0.69958210700E+02  0.12543464004E+03  0.86557977276E+02 0.  0.
        -24    2    1    2    0    0 -0.25743944057E+02 -0.11288087523E+02  0.62338872749E+01  0.85164254267E+02  0.80149343596E+02 0.  0.
         13    1    4    4    0    0  0.13623529802E+02 -0.34015051969E+02  0.13659417000E+02  0.39105038006E+02  0.00000000000E+00 0. -1.
        -14    1    4    4    0    0 -0.39367473859E+02  0.22726964445E+02 -0.74255297249E+01  0.46059216261E+02  0.00000000000E+00 0.  1.
        -13    1    3    3    0    0  0.48944995405E+02  0.22450031415E+02 -0.55190541294E+02  0.77107796843E+02  0.00000000000E+00 0. -1.
         13    1    3    3    0    0  0.39715410797E+01 -0.45843500908E+02 -0.14767669406E+02  0.48326843200E+02  0.00000000000E+00 0.  1.
          2    1    1    2  501    0 -0.27172592428E+02  0.34681557016E+02  0.27227249304E+03  0.27581419586E+03  0.00000000000E+00 0. -1.
<scales pt_clust_5="13000.00000" pt_clust_6="13000.00000" pt_clust_7="13000.00000" pt_clust_8="13000.00000" pt_clust_9="44.05860"></scales>
<clustering>
<clus scale="   44.059">  1  9  2 -1</clus>
<clus scale="   80.149">  5  6 -1 -1</clus>
<clus scale="   86.558">  7  8 -1 -1</clus>
<clus scale="   91.374">  1  5  2 -1</clus>
<clus scale="   44.059">  1  5  2 -1</clus>
</clustering>
</event>
<event>
 9    1  0.6296820E-005  0.1214720E+03  0.7546771E-02  0.1245196E+00
          1   -1    0    0  502    0 -0.00000000000E+00  0.00000000000E+00  0.60816158179E+02  0.60816158179E+02  0.00000000000E+00 0. -1.
         21   -1    0    0  501  502  0.00000000000E+00 -0.00000000000E+00 -0.14395457951E+04  0.14395457951E+04  0.00000000000E+00 0. -1.
         23    2    1    2    0    0  0.56840015311E+02  0.43189192113E+02 -0.24737672662E+02  0.12284862445E+03  0.96869698171E+02 0.  0.
        -24    2    1    2    0    0 -0.12787924341E+03  0.23775557944E+02 -0.75657409473E+03  0.77217130939E+03  0.83221344405E+02 0.  0.
         13    1    4    4    0    0 -0.11617277866E+03  0.38311837680E+02 -0.49346398054E+03  0.50840005064E+03  0.00000000000E+00 0. -1.
        -14    1    4    4    0    0 -0.11706464758E+02 -0.14536279736E+02 -0.26311011420E+03  0.26377125874E+03  0.00000000000E+00 0.  1.
        -13    1    3    3    0    0 -0.41107006403E+01  0.46558897290E+02 -0.38168774827E+02  0.60344711023E+02  0.00000000000E+00 0.  1.
         13    1    3    3    0    0  0.60950715951E+02 -0.33697051767E+01  0.13431102165E+02  0.62503913424E+02  0.00000000000E+00 0. -1.
          2    1    1    2  501    0  0.71039228102E+02 -0.66964750057E+02 -0.59741786949E+03  0.60534201941E+03  0.00000000000E+00 0. -1.
<scales pt_clust_5="13000.00000" pt_clust_6="13000.00000" pt_clust_7="13000.00000" pt_clust_8="13000.00000" pt_clust_9="97.62607"></scales>
<clustering>
<clus scale="   83.221">  5  6 -1 -1</clus>
<clus scale="   96.870">  7  8 -1 -1</clus>
<clus scale="   97.626">  2  9  1 -1</clus>
<clus scale="  110.894">  2  5  1 -1</clus>
<clus scale="   97.626">  2  5  1 -1</clus>
</clustering>
</event>
<event>
 9    1  0.6296820E-005  0.1045816E+03  0.7546771E-02  0.1275395E+00
         -4   -1    0    0    0  501 -0.00000000000E+00  0.00000000000E+00  0.12143425037E+04  0.12143425037E+04  0.00000000000E+00 0.  1.
         21   -1    0    0  501  502  0.00000000000E+00 -0.00000000000E+00 -0.15297160391E+02  0.15297160391E+02  0.00000000000E+00 0. -1.
        -24    2    1    2    0    0 -0.44589835432E+02  0.39325519590E+02  0.85476205054E+03  0.86057534363E+03  0.80230973495E+02 0.  0.
         23    2    1    2    0    0  0.31194010008E+02 -0.18794523129E+02  0.32026426507E+03  0.33474401092E+03  0.90321940900E+02 0.  0.
         13    1    3    3    0    0  0.21087987338E+02  0.49574477076E+01  0.10854325726E+03  0.11068386600E+03  0.00000000000E+00 0. -1.
        -14    1    3    3    0    0 -0.65677822770E+02  0.34368071882E+02  0.74621879328E+03  0.74989147763E+03  0.00000000000E+00 0.  1.
        -11    1    4    4    0    0 -0.14856913911E+02  0.24556974716E+02  0.54933364201E+02  0.61979411103E+02  0.00000000000E+00 0.  1.
         11    1    4    4    0    0  0.46050923919E+02 -0.43351497846E+02  0.26533090087E+03  0.27276459982E+03  0.00000000000E+00 0. -1.
         -3    1    1    2    0  502  0.13395825424E+02 -0.20530996460E+02  0.24019027668E+02  0.34320309505E+02  0.00000000000E+00 0.  1.
<scales pt_clust_5="13000.00000" pt_clust_6="13000.00000" pt_clust_7="13000.00000" pt_clust_8="13000.00000" pt_clust_9="24.51469"></scales>
<clustering>
<clus scale="   24.515">  2  9  1 -1</clus>
<clus scale="   80.231">  5  6 -1 -1</clus>
<clus scale="   90.322">  7  8 -1 -1</clus>
<clus scale="   96.001">  1  5  2 -1</clus>
<clus scale="   24.515">  2  5  1 -1</clus>
</clustering>
</event>
<event>
 9    1  0.6296820E-005  0.9141875E+02  0.7546771E-02  0.1305293E+00
          1   -1    0    0  502    0 -0.00000000000E+00  0.00000000000E+00  0.73714253293E+03  0.73714253293E+03  0.00000000000E+00 0. -1.
         21   -1    0    0  501  502  0.00000000000E+00 -0.00000000000E+00 -0.24432604474E+02  0.24432604474E+02  0.00000000000E+00 0. -1.
        -24    2    1    2    0    0  0.27662273526E+01  0.38594024820E+01  0.49098064836E+03  0.49782244944E+03  0.82113623108E+02 0.  0.
         23    2    1    2    0    0  0.96176955752E+01  0.12886296800E+02  0.22432025330E+03  0.24276475968E+03  0.91414417843E+02 0.  0.
         13    1    3    3    0    0  0.17752782093E+02 -0.28126697113E+02  0.10299871155E+03  0.10823588566E+03  0.00000000000E+00 0. -1.
        -14    1    3    3    0    0 -0.14986554741E+02  0.31986099595E+02  0.38798193680E+03  0.38958656378E+03  0.00000000000E+00 0.  1.
        -13    1    4    4    0    0  0.47138878227E+02 -0.10587264172E+02  0.10822698399E+03  0.11852107014E+03  0.00000000000E+00 0. -1.
         13    1    4    4    0    0 -0.37521182652E+02  0.23473560972E+02  0.11609326931E+03  0.12424368954E+03  0.00000000000E+00 0.  1.
          2    1    1    2  501    0 -0.12383922928E+02 -0.16745699282E+02 -0.25909732029E+01  0.20987928284E+02  0.00000000000E+00 0. -1.
<scales pt_clust_5="13000.00000" pt_clust_6="13000.00000" pt_clust_7="13000.00000" pt_clust_8="13000.00000" pt_clust_9="20.82739"></scales>
<clustering>
<clus scale="   20.827">  2  9  1 -1</clus>
<clus scale="   82.114">  5  6 -1 -1</clus>
<clus scale="   82.118">  1  5  2 -1</clus>
<clus scale="   91.414">  7  8 -1 -1</clus>
<clus scale="   20.827">  2  5  1 -1</clus>
</clustering>
</event>
<event>
 9    1  0.6296820E-005  0.9810561E+02  0.7546771E-02  0.1290382E+00
         -4   -1    0    0    0  501 -0.00000000000E+00  0.00000000000E+00  0.16647308429E+03  0.16647308429E+03  0.00000000000E+00 0.  1.
         21   -1    0    0  501  502  0.00000000000E+00 -0.00000000000E+00 -0.19643110092E+03  0.19643110092E+03  0.00000000000E+00 0. -1.
         23    2    1    2    0    0  0.23905062801E+02  0.27824092051E+02  0.12626540844E+03  0.16090380567E+03  0.92743998101E+02 0.  0.
        -24    2    1    2    0    0 -0.91351494081E+01  0.12938647340E+02 -0.11747853038E+03  0.14385471651E+03  0.81499170637E+02 0.  0.
         13    1    4    4    0    0 -0.44235702223E+02  0.43624421388E+01 -0.81675191862E+02  0.92987446563E+02  0.00000000000E+00 0. -1.
        -14    1    4    4    0    0  0.35100552815E+02  0.85762052013E+01 -0.35803338514E+02  0.50867269952E+02  0.00000000000E+00 0.  1.
        -11    1    3    3    0    0  0.56245458058E+02  0.74432640101E+01  0.98450435722E+02  0.11362852646E+03  0.00000000000E+00 0.  1.
         11    1    3    3    0    0 -0.32340395257E+02  0.20380828041E+02  0.27814972717E+02  0.47275279208E+02  0.00000000000E+00 0. -1.
         -3    1    1    2    0  502 -0.14769913393E+02 -0.40762739391E+02 -0.38744894691E+02  0.58145663028E+02  0.00000000000E+00 0.  1.
<scales pt_clust_5="13000.00000" pt_clust_6="13000.00000" pt_clust_7="13000.00000" pt_clust_8="13000.00000" pt_clust_9="43.35610"></scales>
<clustering>
<clus scale="   43.356">  2  9  1 -1</clus>
<clus scale="   81.499">  5  6 -1 -1</clus>
<clus scale="   87.552">  2  5  1 -1</clus>
<clus scale="   92.744">  7  8 -1 -1</clus>
<clus scale="   43.356">  2  5  1 -1</clus>
</clustering>
</event>
<event>
 9    1  0.6296820E-005  0.1017677E+03  0.7546771E-02  0.1279457E+00
         21   -1    0    0  501  502  0.00000000000E+00  0.00000000000E+00  0.13129944548E+03  0.13129944548E+03  0.00000000000E+00 0.  1.
          1   -1    0    0  502    0 -0.00000000000E+00 -0.00000000000E+00 -0.19246924195E+03  0.19246924195E+03  0.00000000000E+00 0. -1.
        -24    2    1    2    0    0 -0.23922441711E+01  0.55819753600E+02 -0.11054085615E+03  0.15074335190E+03  0.85922695133E+02 0.  0.
         23    2    1    2    0    0 -0.29642725667E+02  0.25795880769E+01  0.44166565913E+02  0.10621359138E+03  0.91898291545E+02 0.  0.
         13    1    3    3    0    0 -0.18239858688E+02  0.68132092397E+02 -0.10999701748E+03  0.13066758708E+03  0.00000000000E+00 0. -1.
        -14    1    3    3    0    0  0.15847614517E+02 -0.12312338797E+02 -0.54383867223E+00  0.20075764818E+02  0.00000000000E+00 0.  1.
        -13    1    4    4    0    0  0.76596835492E+00  0.30038406648E+02  0.56012965896E+02  0.63563707648E+02  0.00000000000E+00 0.  1.
         13    1    4    4    0    0 -0.30408694022E+02 -0.27458818571E+02 -0.11846399983E+02  0.42649883728E+02  0.00000000000E+00 0. -1.
          2    1    1    2  501    0  0.32034969838E+02 -0.58399341677E+02  0.52044937662E+01  0.66811744149E+02  0.00000000000E+00 0. -1.
<scales pt_clust_5="13000.00000" pt_clust_6="13000.00000" pt_clust_7="13000.00000" pt_clust_8="13000.00000" pt_clust_9="66.60873"></scales>
<clustering>
<clus scale="   66.609">  1  9  2 -1</clus>
<clus scale="   85.923">  5  6 -1 -1</clus>
<clus scale="   91.898">  7  8 -1 -1</clus>
<clus scale="   96.406">  2  5  1 -1</clus>
<clus scale="   66.609">  1  5  2 -1</clus>
</clustering>
</event>
<event>
 9    1  0.6296820E-005  0.9047066E+02  0.7546771E-02  0.1308320E+00
         21   -1    0    0  501  502  0.00000000000E+00  0.00000000000E+00  0.14547920973E+03  0.14547920973E+03  0.00000000000E+00 0.  1.
         -2   -1    0    0    0  501 -0.00000000000E+00 -0.00000000000E+00 -0.12959765217E+03  0.12959765217E+03  0.00000000000E+00 0.  1.
        -24    2    1    2    0    0  0.37670412946E+01 -0.43548212845E+01 -0.80592841523E+02  0.11379834901E+03  0.80135529346E+02 0.  0.
         23    2    1    2    0    0  0.50381775829E+01 -0.27226454672E+02  0.82994194439E+02  0.12582960899E+03  0.90434457601E+02 0.  0.
         11    1    3    3    0    0 -0.16277708599E+02  0.23556570247E+02 -0.73266203557E+02  0.78662649222E+02  0.00000000000E+00 0. -1.
        -12    1    3    3    0    0  0.20044749893E+02 -0.27911391531E+02 -0.73266379659E+01  0.35135699785E+02  0.00000000000E+00 0.  1.
        -13    1    4    4    0    0 -0.30391505638E+01  0.30515747615E+02  0.50498962121E+02  0.59081236141E+02  0.00000000000E+00 0. -1.
         13    1    4    4    0    0  0.80773281467E+01 -0.57742202288E+02  0.32495232318E+02  0.66748372852E+02  0.00000000000E+00 0.  1.
         -1    1    1    2    0  502 -0.88052188775E+01  0.31581275957E+02  0.13480204639E+02  0.35448903899E+02  0.00000000000E+00 0.  1.
<scales pt_clust_5="13000.00000" pt_clust_6="13000.00000" pt_clust_7="13000.00000" pt_clust_8="13000.00000" pt_clust_9="32.78580"></scales>
<clustering>
<clus scale="   32.786">  1  9  2 -1</clus>
<clus scale="   80.136">  5  6 -1 -1</clus>
<clus scale="   80.176">  2  5  1 -1</clus>
<clus scale="   90.434">  7  8 -1 -1</clus>
<clus scale="   32.786">  1  5  2 -1</clus>
</clustering>
</event>
<event>
 9    1  0.6296820E-005  0.9084004E+02  0.7546771E-02  0.1305712E+00
         21   -1    0    0  501  502  0.00000000000E+00  0.00000000000E+00  0.38180909886E+03  0.38180909886E+03  0.00000000000E+00 0. -1.
          1   -1    0    0  502    0 -0.00000000000E+00 -0.00000000000E+00 -0.39006288330E+02  0.39006288330E+02  0.00000000000E+00 0. -1.
        -24    2    1    2    0    0 -0.73043042713E+01 -0.53643228423E+02  0.11221259824E+03  0.14705477013E+03  0.78118431870E+02 0.  0.
         23    2    1    2    0    0 -0.15323333826E+02 -0.17542859606E+01  0.13818010746E+03  0.16366737440E+03  0.86344572877E+02 0.  0.
         13    1    3    3    0    0  0.24536624616E+02 -0.40558396400E+02  0.25648624507E+02  0.53896951725E+02  0.00000000000E+00 0. -1.
        -14    1    3    3    0    0 -0.31840928888E+02 -0.13084832023E+02  0.86563973737E+02  0.93157818409E+02  0.00000000000E+00 0.  1.
        -11    1    4    4    0    0  0.12690388392E+02 -0.36735239011E+02  0.89083008918E+02  0.97192109868E+02  0.00000000000E+00 0. -1.
         11    1    4    4    0    0 -0.28013722218E+02  0.34980953050E+02  0.49097098541E+02  0.66475264527E+02  0.00000000000E+00 0.  1.
          2    1    1    2  501    0  0.22627638097E+02  0.55397514383E+02  0.92410104828E+02  0.11009324266E+03  0.00000000000E+00 0. -1.
<scales pt_clust_5="13000.00000" pt_clust_6="13000.00000" pt_clust_7="13000.00000" pt_clust_8="13000.00000" pt_clust_9="59.84058"></scales>
<clustering>
<clus scale="   59.841">  1  9  2 -1</clus>
<clus scale="   78.118">  5  6 -1 -1</clus>
<clus scale="   83.060">  2  5  1 -1</clus>
<clus scale="   86.345">  7  8 -1 -1</clus>
<clus scale="   59.841">  1  5  2 -1</clus>
</clustering>
</event>
<event>
 9    1  0.6296820E-005  0.9617594E+02  0.7546771E-02  0.1293635E+00
         21   -1    0    0  501  502  0.00000000000E+00  0.00000000000E+00  0.69465472437E+02  0.69465472437E+02  0.00000000000E+00 0.  1.
         -2   -1    0    0    0  501 -0.00000000000E+00 -0.00000000000E+00 -0.31964349373E+03  0.31964349373E+03  0.00000000000E+00 0.  1.
        -24    2    1    2    0    0 -0.26993383091E+02  0.10638090847E+02 -0.21723762752E+03  0.23371424569E+03  0.81168652327E+02 0.  0.
         23    2    1    2    0    0  0.28161963088E+02 -0.49956422404E+02 -0.41916621383E+02  0.11504785644E+03  0.90500087403E+02 0.  0.
         11    1    3    3    0    0  0.19795459796E+02 -0.18087599581E+02 -0.11021971291E+03  0.11343459173E+03  0.00000000000E+00 0. -1.
        -12    1    3    3    0    0 -0.46788842888E+02  0.28725690428E+02 -0.10701791461E+03  0.12027965396E+03  0.00000000000E+00 0.  1.
        -13    1    4    4    0    0  0.72357005050E+01 -0.74507934411E+02 -0.30359661192E+02  0.80780546419E+02  0.00000000000E+00 0.  1.
         13    1    4    4    0    0  0.20926262583E+02  0.24551512007E+02 -0.11556960190E+02  0.34267310025E+02  0.00000000000E+00 0. -1.
         -1    1    1    2    0  502 -0.11685799969E+01  0.39318331557E+02  0.89762276050E+01  0.40346864037E+02  0.00000000000E+00 0.  1.
<scales pt_clust_5="13000.00000" pt_clust_6="13000.00000" pt_clust_7="13000.00000" pt_clust_8="13000.00000" pt_clust_9="39.33569"></scales>
<clustering>
<clus scale="   39.336">  1  9  2 -1</clus>
<clus scale="   81.169">  5  6 -1 -1</clus>
<clus scale="   87.452">  2  5  1 -1</clus>
<clus scale="   90.500">  7  8 -1 -1</clus>
<clus scale="   39.336">  1  5  2 -1</clus>
</clustering>
</event>
<event>
 9    1  0.6509089E-005  0.1530902E+03  0.7546771E-02  0.1204241E+00
         21   -1    0    0  501  502  0.00000000000E+00  0.00000000000E+00  0.62550880694E+02  0.62550880694E+02  0.00000000000E+00 0. -1.
          1   -1    0    0  502    0 -0.00000000000E+00 -0.00000000000E+00 -0.79353660634E+03  0.79353660634E+03  0.00000000000E+00 0. -1.
         23    2    1    2    0    0  0.21760667961E+02 -0.89962380833E+02 -0.21693158127E+03  0.25292953584E+03  0.91363463769E+02 0.  0.
        -24    2    1    2    0    0  0.10859708074E+03 -0.17127669025E+02 -0.17233537258E+03  0.22206329048E+03  0.86752183530E+02 0.  0.
         11    1    4    4    0    0  0.11958625339E+03 -0.85590417810E+00 -0.15571515304E+03  0.19633851751E+03  0.00000000000E+00 0. -1.
        -12    1    4    4    0    0 -0.10989172656E+02 -0.16271764847E+02 -0.16620219540E+02  0.25724772972E+02  0.00000000000E+00 0.  1.
        -13    1    3    3    0    0  0.22286164430E+02  0.13829515427E+02 -0.41527813049E+02  0.49117083368E+02  0.00000000000E+00 0.  1.
         13    1    3    3    0    0 -0.52549646917E+00 -0.10379189626E+03 -0.17540376822E+03  0.20381245247E+03  0.00000000000E+00 0. -1.
          2    1    1    2  501    0 -0.13035774870E+03  0.10709004986E+03 -0.34171877180E+03  0.38109466071E+03  0.00000000000E+00 0. -1.
<scales pt_clust_5="13000.00000" pt_clust_6="13000.00000" pt_clust_7="13000.00000" pt_clust_8="13000.00000" pt_clust_9="126.13760"></scales>
<clustering>
<clus scale="   86.752">  5  6 -1 -1</clus>
<clus scale="   91.363">  7  8 -1 -1</clus>
<clus scale="  130.054">  2  7  1 -1</clus>
<clus scale="  126.138">  1  9  2 -1</clus>
<clus scale="  126.138">  1  5  2 -1</clus>
</clustering>
</event>
<event>
 9    1  0.6296820E-005  0.9469029E+02  0.7546771E-02  0.1296699E+00
         21   -1    0    0  501  502  0.00000000000E+00  0.00000000000E+00  0.16827447682E+02  0.16827447682E+02  0.00000000000E+00 0. -1.
          1   -1    0    0  502    0 -0.00000000000E+00 -0.00000000000E+00 -0.75905674036E+03  0.75905674036E+03  0.00000000000E+00 0. -1.
         23    2    1    2    0    0 -0.46340431982E+01  0.38131939861E+02 -0.31493933334E+03  0.32998744077E+03  0.90716085613E+02 0.  0.
        -24    2    1    2    0    0 -0.24552058084E+02 -0.12724606118E+02 -0.25602066480E+03  0.27031049391E+03  0.82197707744E+02 0.  0.
         11    1    4    4    0    0 -0.50483423458E+02  0.69132444740E+01 -0.11841891456E+03  0.12891628415E+03  0.00000000000E+00 0. -1.
        -12    1    4    4    0    0  0.25931365374E+02 -0.19637850592E+02 -0.13760175024E+03  0.14139420976E+03  0.00000000000E+00 0.  1.
        -13    1    3    3    0    0  0.30544677620E+02 -0.15068383951E+02 -0.91907136297E+02  0.98015076535E+02  0.00000000000E+00 0.  1.
         13    1    3    3    0    0 -0.35178720819E+02  0.53200323812E+02 -0.22303219704E+03  0.23197236424E+03  0.00000000000E+00 0. -1.
          2    1    1    2  501    0  0.29186101282E+02 -0.25407333742E+02 -0.17126929454E+03  0.17558625336E+03  0.00000000000E+00 0. -1.
<scales pt_clust_5="13000.00000" pt_clust_6="13000.00000" pt_clust_7="13000.00000" pt_clust_8="13000.00000" pt_clust_9="38.69577"></scales>
<clustering>
<clus scale="   38.696">  1  9  2 -1</clus>
<clus scale="   82.198">  5  6 -1 -1</clus>
<clus scale="   86.564">  1  5  2 -1</clus>
<clus scale="   90.716">  7  8 -1 -1</clus>
<clus scale="   38.696">  1  5  2 -1</clus>
</clustering>
</event>
<event>
 9    1  0.6296820E-005  0.9684750E+02  0.7546771E-02  0.1294631E+00
         -2   -1    0    0    0  501 -0.00000000000E+00  0.00000000000E+00  0.41354578040E+03  0.41354578040E+03  0.00000000000E+00 0.  1.
         21   -1    0    0  501  502  0.00000000000E+00 -0.00000000000E+00 -0.12286480309E+03  0.12286480309E+03  0.00000000000E+00 0.  1.
        -24    2    1    2    0    0  0.18321616461E+02  0.55004850196E+01  0.31481200445E+03  0.32553570799E+03  0.80628543746E+02 0.  0.
         23    2    1    2    0    0 -0.45504414943E+02 -0.28326706573E+02  0.57082002653E+02  0.12224363310E+03  0.93872768799E+02 0.  0.
         11    1    3    3    0    0 -0.25646736509E+02 -0.18995268449E+02  0.14206462997E+03  0.14560540651E+03  0.00000000000E+00 0. -1.
        -12    1    3    3    0    0  0.43968352970E+02  0.24495753469E+02  0.17274737448E+03  0.17993030148E+03  0.00000000000E+00 0.  1.
        -11    1    4    4    0    0  0.32623947501E+01 -0.30875300143E+02  0.65689962062E+02  0.72657404951E+02  0.00000000000E+00 0.  1.
         11    1    4    4    0    0 -0.48766809693E+02  0.25485935696E+01 -0.86079594097E+01  0.49586228149E+02  0.00000000000E+00 0. -1.
         -1    1    1    2    0  502  0.27182798482E+02  0.22826221553E+02 -0.81213029783E+02  0.88631242405E+02  0.00000000000E+00 0.  1.
<scales pt_clust_5="13000.00000" pt_clust_6="13000.00000" pt_clust_7="13000.00000" pt_clust_8="13000.00000" pt_clust_9="35.49565"></scales>
<clustering>
<clus scale="   35.496">  2  9  1 -1</clus>
<clus scale="   80.629">  5  6 -1 -1</clus>
<clus scale="   84.073">  1  5  2 -1</clus>
<clus scale="   93.873">  7  8 -1 -1</clus>
<clus scale="   35.496">  2  5  1 -1</clus>
</clustering>
</event>
<event>
 9    1  0.6296820E-005  0.1251119E+03  0.7546771E-02  0.1251374E+00
         21   -1    0    0  501  502  0.00000000000E+00  0.00000000000E+00  0.98462846132E+02  0.98462846132E+02  0.00000000000E+00 0. -1.
          3   -1    0    0  502    0 -0.00000000000E+00 -0.00000000000E+00 -0.26303242072E+03  0.26303242072E+03  0.00000000000E+00 0. -1.
        -24    2    1    2    0    0 -0.42268826414E+02 -0.28024782444E+01 -0.35206319113E+02  0.96341433940E+02  0.79042263489E+02 0.  0.
         23    2    1    2    0    0 -0.41742320587E+02 -0.60532089458E+02 -0.32483392372E+02  0.12213338626E+03  0.91950193454E+02 0.  0.
         13    1    3    3    0    0 -0.21291920287E+02  0.38016607080E+02 -0.13842995331E+02  0.45719107637E+02  0.00000000000E+00 0. -1.
        -14    1    3    3    0    0 -0.20976906126E+02 -0.40819085324E+02 -0.21363323782E+02  0.50622326303E+02  0.00000000000E+00 0.  1.
        -13    1    4    4    0    0  0.50147901858E+01  0.22141059832E+02 -0.48263572269E+01  0.23209230387E+02  0.00000000000E+00 0.  1.
         13    1    4    4    0    0 -0.46757110773E+02 -0.82673149290E+02 -0.27657035146E+02  0.98924155869E+02  0.00000000000E+00 0. -1.
          4    1    1    2  501    0  0.84011147001E+02  0.63334567702E+02 -0.96879863099E+02  0.14302044665E+03  0.00000000000E+00 0. -1.
<scales pt_clust_5="13000.00000" pt_clust_6="13000.00000" pt_clust_7="13000.00000" pt_clust_8="13000.00000" pt_clust_9="84.84189"></scales>
<clustering>
<clus scale="   79.042">  5  6 -1 -1</clus>
<clus scale="   89.678">  2  5  1 -1</clus>
<clus scale="   84.842">  1  9  2 -1</clus>
<clus scale="   91.950">  7  8 -1 -1</clus>
<clus scale="   84.842">  1  5  2 -1</clus>
</clustering>
</event>
<event>
 9    1  0.6296820E-005  0.2194004E+03  0.7546771E-02  0.1135822E+00
         21   -1    0    0  501  502  0.00000000000E+00  0.00000000000E+00  0.23634297156E+03  0.23634297156E+03  0.00000000000E+00 0.  1.
          3   -1    0    0  502    0 -0.00000000000E+00 -0.00000000000E+00 -0.49815973125E+03  0.49815973125E+03  0.00000000000E+00 0. -1.
        -24    2    1    2    0    0 -0.16480346357E+03 -0.10417891349E+03 -0.38924786093E+03  0.44204670187E+03  0.76667866670E+02 0.  0.
         23    2    1    2    0    0  0.16807768756E+03  0.13105562775E+03  0.10129235858E+03  0.25482207768E+03  0.96168928165E+02 0.  0.
         13    1    3    3    0    0 -0.12984039936E+03 -0.11169092376E+03 -0.34484093086E+03  0.38503072520E+03  0.00000000000E+00 0. -1.
        -14    1    3    3    0    0 -0.34963064217E+02  0.75120102656E+01 -0.44406930065E+02  0.57015976669E+02  0.00000000000E+00 0.  1.
        -13    1    4    4    0    0  0.61118388932E+02  0.66479486986E+02  0.92962470636E+02  0.12960324302E+03  0.00000000000E+00 0.  1.
         13    1    4    4    0    0  0.10695929863E+03  0.64576140766E+02  0.83298879462E+01  0.12521883465E+03  0.00000000000E+00 0. -1.
          4    1    1    2  501    0 -0.32742239858E+01 -0.26876714259E+02  0.26138742650E+02  0.37633923253E+02  0.00000000000E+00 0. -1.
<scales pt_clust_5="13000.00000" pt_clust_6="13000.00000" pt_clust_7="13000.00000" pt_clust_8="13000.00000" pt_clust_9="27.07542"></scales>
<clustering>
<clus scale="   27.075">  1  9  2 -1</clus>
<clus scale="   76.668">  5  6 -1 -1</clus>
<clus scale="   96.169">  7  8 -1 -1</clus>
<clus scale="  211.580">  2  5  1 -1</clus>
<clus scale="   27.075">  1  5  2 -1</clus>
</clustering>
</event>
<event>
 9    1  0.6296820E-005  0.1681908E+03  0.7546771E-02  0.1181396E+00
         21   -1    0    0  501  502  0.00000000000E+00  0.00000000000E+00  0.66874300303E+03  0.66874300303E+03  0.00000000000E+00 0. -1.
          3   -1    0    0  502    0 -0.00000000000E+00 -0.00000000000E+00 -0.68558352511E+02  0.68558352511E+02  0.00000000000E+00 0. -1.
         23    2    1    2    0    0 -0.12578857912E+03  0.73361292291E+02  0.99480935906E+02  0.19866457562E+03  0.91468634820E+02 0.  0.
        -24    2    1    2    0    0  0.95361902982E+02 -0.93245646477E+02  0.33908977970E+03  0.37298583932E+03  0.79673800659E+02 0.  0.
         13    1    4    4    0    0 -0.12557725339E+02 -0.24130858462E+02  0.60165053924E+02  0.66028997490E+02  0.00000000000E+00 0. -1.
        -14    1    4    4    0    0  0.10791962832E+03 -0.69114788015E+02  0.27892472577E+03  0.30695684183E+03  0.00000000000E+00 0.  1.
        -13    1    3    3    0    0 -0.28983923157E+02 -0.64464905294E+01  0.60323475950E+02  0.67235011657E+02  0.00000000000E+00 0.  1.
         13    1    3    3    0    0 -0.96804655959E+02  0.79807782820E+02  0.39157459955E+02  0.13142956397E+03  0.00000000000E+00 0. -1.
          4    1    1    2  501    0  0.30426676134E+02  0.19884354186E+02  0.16161393492E+03  0.16565094060E+03  0.00000000000E+00 0. -1.
<scales pt_clust_5="13000.00000" pt_clust_6="13000.00000" pt_clust_7="13000.00000" pt_clust_8="13000.00000" pt_clust_9="36.34790"></scales>
<clustering>
<clus scale="   36.348">  1  9  2 -1</clus>
<clus scale="   79.674">  5  6 -1 -1</clus>
<clus scale="   91.469">  7  8 -1 -1</clus>
<clus scale="  162.079">  1  5  2 -1</clus>
<clus scale="   36.348">  1  5  2 -1</clus>
</clustering>
</event>
<event>
 9    1  0.6296820E-005  0.8835343E+02  0.7546771E-02  0.1308105E+00
          1   -1    0    0  502    0 -0.00000000000E+00  0.00000000000E+00  0.44444498024E+03  0.44444498024E+03  0.00000000000E+00 0. -1.
         21   -1    0    0  501  502  0.00000000000E+00 -0.00000000000E+00 -0.33471527302E+02  0.33471527302E+02  0.00000000000E+00 0. -1.
        -24    2    1    2    0    0 -0.57280700484E+01  0.22732024252E+02  0.25305922512E+03  0.26707327298E+03  0.82095103433E+02 0.  0.
         23    2    1    2    0    0  0.28794108151E+02 -0.31808102071E+02  0.64919056742E+02  0.11460125232E+03  0.84131486875E+02 0.  0.
         11    1    3    3    0    0  0.64470110551E+01 -0.30017834894E+02  0.10640498312E+03  0.11074590194E+03  0.00000000000E+00 0. -1.
        -12    1    3    3    0    0 -0.12175081103E+02  0.52749859145E+02  0.14665424200E+03  0.15632737104E+03  0.00000000000E+00 0.  1.
        -11    1    4    4    0    0  0.42171875085E+02 -0.51625835182E+02  0.32076842386E+02  0.73977143253E+02  0.00000000000E+00 0. -1.
         11    1    4    4    0    0 -0.13377766934E+02  0.19817733111E+02  0.32842214356E+02  0.40624109068E+02  0.00000000000E+00 0.  1.
          2    1    1    2  501    0 -0.23066038103E+02  0.90760778197E+01  0.92995171079E+02  0.96241982245E+02  0.00000000000E+00 0. -1.
<scales pt_clust_5="13000.00000" pt_clust_6="13000.00000" pt_clust_7="13000.00000" pt_clust_8="13000.00000" pt_clust_9="24.78745"></scales>
<clustering>
<clus scale="   24.787">  2  9  1 -1</clus>
<clus scale="   82.095">  5  6 -1 -1</clus>
<clus scale="   84.131">  7  8 -1 -1</clus>
<clus scale="   86.417">  1  5  2 -1</clus>
<clus scale="   24.787">  2  5  1 -1</clus>
</clustering>
</event>
<event>
 9    1  0.6296820E-005  0.9216695E+02  0.7546771E-02  0.1304335E+00
         -4   -1    0    0    0  501 -0.00000000000E+00  0.00000000000E+00  0.30406372140E+03  0.30406372140E+03  0.00000000000E+00 0.  1.
         21   -1    0    0  501  502  0.00000000000E+00 -0.00000000000E+00 -0.16881661267E+03  0.16881661267E+03  0.00000000000E+00 0.  1.
         23    2    1    2    0    0  0.92805125865E+01  0.69356857199E+01  0.26259715640E+03  0.27833266449E+03  0.91529087875E+02 0.  0.
        -24    2    1    2    0    0 -0.15000958871E+02  0.15161961520E+02 -0.21572568693E+02  0.86335357076E+02  0.80830095369E+02 0.  0.
         13    1    4    4    0    0 -0.24119098088E+02 -0.22786719988E+02 -0.31831799043E+02  0.45980745217E+02  0.00000000000E+00 0. -1.
        -14    1    4    4    0    0  0.91181392175E+01  0.37948681508E+02  0.10259230350E+02  0.40354611860E+02  0.00000000000E+00 0.  1.
        -13    1    3    3    0    0  0.32927940407E+02 -0.21902782254E+02  0.56970764684E+02  0.69351634145E+02  0.00000000000E+00 0.  1.
         13    1    3    3    0    0 -0.23647427820E+02  0.28838467974E+02  0.20562639171E+03  0.20898103035E+03  0.00000000000E+00 0. -1.
         -3    1    1    2    0  502  0.57204462843E+01 -0.22097647240E+02 -0.10577747897E+03  0.10821231250E+03  0.00000000000E+00 0.  1.
<scales pt_clust_5="13000.00000" pt_clust_6="13000.00000" pt_clust_7="13000.00000" pt_clust_8="13000.00000" pt_clust_9="22.82607"></scales>
<clustering>
<clus scale="   22.826">  2  9  1 -1</clus>
<clus scale="   80.830">  5  6 -1 -1</clus>
<clus scale="   81.552">  2  5  1 -1</clus>
<clus scale="   91.529">  7  8 -1 -1</clus>
<clus scale="   22.826">  2  5  1 -1</clus>
</clustering>
</event>
<event>
 9    1  0.6296820E-005  0.1168222E+03  0.7546771E-02  0.1251959E+00
          1   -1    0    0  502    0 -0.00000000000E+00  0.00000000000E+00  0.30976548765E+03  0.30976548765E+03  0.00000000000E+00 0. -1.
         21   -1    0    0  501  502  0.00000000000E+00 -0.00000000000E+00 -0.83181297859E+02  0.83181297859E+02  0.00000000000E+00 0. -1.
        -24    2    1    2    0    0  0.37443088014E+02 -0.12480493686E+02  0.25904383267E+02  0.93999258387E+02  0.81283921794E+02 0.  0.
         23    2    1    2    0    0 -0.99384488274E+02  0.46754949504E+02  0.94901113047E+02  0.17166592051E+03  0.91649687370E+02 0.  0.
         11    1    3    3    0    0  0.33050544165E+02  0.30558219483E+02  0.23232265332E+02  0.50654529907E+02  0.00000000000E+00 0. -1.
        -12    1    3    3    0    0  0.43925438490E+01 -0.43038713170E+02  0.26721179347E+01  0.43344728480E+02  0.00000000000E+00 0.  1.
        -13    1    4    4    0    0 -0.10304661057E+03  0.71710830032E+01  0.68614916075E+02  0.12400820573E+03  0.00000000000E+00 0. -1.
         13    1    4    4    0    0  0.36621222928E+01  0.39583866501E+02  0.26286196971E+02  0.47657714780E+02  0.00000000000E+00 0.  1.
          2    1    1    2  501    0  0.61941400260E+02 -0.34274455818E+02  0.10577869348E+03  0.12728160662E+03  0.00000000000E+00 0. -1.
<scales pt_clust_5="13000.00000" pt_clust_6="13000.00000" pt_clust_7="13000.00000" pt_clust_8="13000.00000" pt_clust_9="70.79181"></scales>
<clustering>
<clus scale="   70.792">  2  9  1 -1</clus>
<clus scale="   81.284">  5  6 -1 -1</clus>
<clus scale="   91.650">  7  8 -1 -1</clus>
<clus scale="  108.880">  1  5  2 -1</clus>
<clus scale="   70.792">  2  5  1 -1</clus>
</clustering>
</event>
<event>
 9    1  0.6296820E-005  0.9366885E+02  0.7546771E-02  0.1300003E+00
          3   -1    0    0  502    0 -0.00000000000E+00  0.00000000000E+00  0.11337120100E+03  0.11337120100E+03  0.00000000000E+00 0. -1.
         21   -1    0    0  501  502  0.00000000000E+00 -0.00000000000E+00 -0.30933497307E+03  0.30933497307E+03  0.00000000000E+00 0.  1.
         23    2    1    2    0    0  0.16825544541E+02 -0.46737083808E+01  0.48208029131E+02  0.10447001034E+03  0.91022120876E+02 0.  0.
        -24    2    1    2    0    0 -0.67570000945E+02 -0.10475916048E+02 -0.24311086595E+03  0.26526790380E+03  0.81170917195E+02 0.  0.
         13    1    4    4    0    0  0.11442740153E+02 -0.17446446738E+02 -0.21815707731E+02  0.30186750567E+02  0.00000000000E+00 0. -1.
        -14    1    4    4    0    0 -0.79012741097E+02  0.69705306893E+01 -0.22129515822E+03  0.23508115323E+03  0.00000000000E+00 0.  1.
        -11    1    3    3    0    0 -0.21378524686E+02 -0.23390504778E+02  0.52904691087E+02  0.61668982240E+02  0.00000000000E+00 0.  1.
         11    1    3    3    0    0  0.38204069227E+02  0.18716796398E+02 -0.46966619557E+01  0.42801028100E+02  0.00000000000E+00 0. -1.
          4    1    1    2  501    0  0.50744456403E+02  0.15149624429E+02 -0.10609352490E+01  0.52968259926E+02  0.00000000000E+00 0. -1.
<scales pt_clust_5="13000.00000" pt_clust_6="13000.00000" pt_clust_7="13000.00000" pt_clust_8="13000.00000" pt_clust_9="52.95766"></scales>
<clustering>
<clus scale="   52.958">  2  9  1 -1</clus>
<clus scale="   81.171">  5  6 -1 -1</clus>
<clus scale="   84.128">  2  5  1 -1</clus>
<clus scale="   91.022">  7  8 -1 -1</clus>
<clus scale="   52.958">  2  5  1 -1</clus>
</clustering>
</event>
<event>
 9    1  0.6296820E-005  0.9520446E+02  0.7546771E-02  0.1304883E+00
         -4   -1    0    0    0  501 -0.00000000000E+00  0.00000000000E+00  0.34011080028E+03  0.34011080028E+03  0.00000000000E+00 0.  1.
         21   -1    0    0  501  502  0.00000000000E+00 -0.00000000000E+00 -0.86846389658E+02  0.86846389658E+02  0.00000000000E+00 0. -1.
         23    2    1    2    0    0  0.20312105510E+02 -0.17061095034E+02  0.26368170219E+03  0.27998413261E+03  0.90329462803E+02 0.  0.
        -24    2    1    2    0    0 -0.45260208340E+02  0.40996496324E+02 -0.42338336991E+02  0.99917086284E+02  0.66795884473E+02 0.  0.
         13    1    4    4    0    0 -0.11978883594E-01  0.44920139555E+02 -0.24071530592E+02  0.50963297246E+02  0.00000000000E+00 0. -1.
        -14    1    4    4    0    0 -0.45248229457E+02 -0.39236432312E+01 -0.18266806399E+02  0.48953789038E+02  0.00000000000E+00 0.  1.
        -13    1    3    3    0    0  0.30801822002E+02 -0.41384018151E+02  0.23638156516E+03  0.24194551772E+03  0.00000000000E+00 0.  1.
         13    1    3    3    0    0 -0.10489716492E+02  0.24322923117E+02  0.27300137030E+02  0.38038614892E+02  0.00000000000E+00 0. -1.
         -3    1    1    2    0  502  0.24948102830E+02 -0.23935401290E+02  0.31921045421E+02  0.47055971040E+02  0.00000000000E+00 0.  1.
<scales pt_clust_5="13000.00000" pt_clust_6="13000.00000" pt_clust_7="13000.00000" pt_clust_8="13000.00000" pt_clust_9="34.57329"></scales>
<clustering>
<clus scale="   34.573">  2  9  1 -1</clus>
<clus scale="   66.796">  5  6 -1 -1</clus>
<clus scale="   73.254">  2  5  1 -1</clus>
<clus scale="   90.329">  7  8 -1 -1</clus>
<clus scale="   34.573">  2  5  1 -1</clus>
</clustering>
</event>
<event>
 9    1  0.6296820E-005  0.9761995E+02  0.7546771E-02  0.1291971E+00
         21   -1    0    0  501  502  0.00000000000E+00  0.00000000000E+00  0.62293551479E+02  0.62293551479E+02  0.00000000000E+00 0. -1.
          1   -1    0    0  502    0 -0.00000000000E+00 -0.00000000000E+00 -0.62433706930E+03  0.62433706930E+03  0.00000000000E+00 0. -1.
         23    2    1    2    0    0  0.21744940548E+02 -0.71519001117E+01 -0.47058983632E+03  0.48043014134E+03  0.93991140763E+02 0.  0.
        -24    2    1    2    0    0 -0.15418839284E+02  0.51044883858E+02 -0.11890982953E+03  0.15404251127E+03  0.82135418338E+02 0.  0.
         11    1    4    4    0    0 -0.44964887461E+02  0.39111326327E+02 -0.10157688659E+03  0.11776842038E+03  0.00000000000E+00 0. -1.
        -12    1    4    4    0    0  0.29546048177E+02  0.11933557530E+02 -0.17332942944E+02  0.36274090882E+02  0.00000000000E+00 0.  1.
        -11    1    3    3    0    0  0.42737438258E+02  0.30466220998E+02 -0.29503352938E+03  0.29966558479E+03  0.00000000000E+00 0.  1.
         11    1    3    3    0    0 -0.20992497710E+02 -0.37618121110E+02 -0.17555630695E+03  0.18076455655E+03  0.00000000000E+00 0. -1.
          2    1    1    2  501    0 -0.63261012641E+01 -0.43892983746E+02  0.27456148031E+02  0.52157968174E+02  0.00000000000E+00 0. -1.
<scales pt_clust_5="13000.00000" pt_clust_6="13000.00000" pt_clust_7="13000.00000" pt_clust_8="13000.00000" pt_clust_9="44.34652"></scales>
<clustering>
<clus scale="   44.347">  1  9  2 -1</clus>
<clus scale="   82.135">  5  6 -1 -1</clus>
<clus scale="   86.264">  1  5  2 -1</clus>
<clus scale="   93.991">  7  8 -1 -1</clus>
<clus scale="   44.347">  1  5  2 -1</clus>
</clustering>
</event>
<event>
 9    1  0.6296820E-005  0.1013919E+03  0.7546771E-02  0.1285271E+00
          1   -1    0    0  502    0 -0.00000000000E+00  0.00000000000E+00  0.54906409577E+03  0.54906409577E+03  0.00000000000E+00 0. -1.
         21   -1    0    0  501  502  0.00000000000E+00 -0.00000000000E+00 -0.37330006205E+02  0.37330006205E+02  0.00000000000E+00 0. -1.
         23    2    1    2    0    0 -0.15803618947E+02  0.17348854739E+02  0.24463235592E+03  0.26359526462E+03  0.95324376913E+02 0.  0.
        -24    2    1    2    0    0  0.54700736306E+02  0.27907732814E+02  0.23328349304E+03  0.25420716255E+03  0.80181551864E+02 0.  0.
         13    1    4    4    0    0  0.39394786125E+01  0.25564919210E+02  0.14610926785E+02  0.29707974813E+02  0.00000000000E+00 0. -1.
        -14    1    4    4    0    0  0.50761257693E+02  0.23428136035E+01  0.21867256626E+03  0.22449918773E+03  0.00000000000E+00 0.  1.
        -13    1    3    3    0    0 -0.42743705862E+02  0.43165688194E+02  0.14543710958E+03  0.15761425656E+03  0.00000000000E+00 0. -1.
         13    1    3    3    0    0  0.26940086915E+02 -0.25816833455E+02  0.99195246341E+02  0.10598100806E+03  0.00000000000E+00 0.  1.
          2    1    1    2  501    0 -0.38897117359E+02 -0.45256587552E+02  0.33818240597E+02  0.68591674807E+02  0.00000000000E+00 0. -1.
<scales pt_clust_5="13000.00000" pt_clust_6="13000.00000" pt_clust_7="13000.00000" pt_clust_8="13000.00000" pt_clust_9="59.67533"></scales>
<clustering>
<clus scale="   59.675">  2  9  1 -1</clus>
<clus scale="   80.182">  5  6 -1 -1</clus>
<clus scale="   87.308">  2  5  1 -1</clus>
<clus scale="   95.324">  7  8 -1 -1</clus>
<clus scale="   59.675">  2  5  1 -1</clus>
</clustering>
</event>
<event>
 9    1  0.7253023E-005  0.1139100E+03  0.7546771E-02  0.1259428E+00
         21   -1    0    0  501  502  0.00000000000E+00  0.00000000000E+00  0.27129209339E+03  0.27129209339E+03  0.00000000000E+00 0.  1.
         -2   -1    0    0    0  501 -0.00000000000E+00 -0.00000000000E+00 -0.32401146003E+03  0.32401146003E+03  0.00000000000E+00 0.  1.
        -24    2    1    2    0    0 -0.30514781766E+01 -0.50057680686E+02 -0.29004481717E+03  0.31213818736E+03  0.10387092530E+03 0.  0.
         23    2    1    2    0    0 -0.31379277789E+02  0.44154595829E+01  0.12556751939E+03  0.15763240434E+03  0.89870003983E+02 0.  0.
         13    1    3    3    0    0  0.47291822965E+02 -0.37945945346E+02 -0.19072707319E+03  0.20013302510E+03  0.00000000000E+00 0. -1.
        -14    1    3    3    0    0 -0.50343301142E+02 -0.12111735341E+02 -0.99317743981E+02  0.11200516226E+03  0.00000000000E+00 0.  1.
        -13    1    4    4    0    0 -0.50975966383E+02 -0.27037988121E+02  0.84425665655E+02  0.10226091615E+03  0.00000000000E+00 0.  1.
         13    1    4    4    0    0  0.19596688594E+02  0.31453447704E+02  0.41141853732E+02  0.55371488194E+02  0.00000000000E+00 0. -1.
         -1    1    1    2    0  502  0.34430755966E+02  0.45642221104E+02  0.11175793114E+03  0.12553296172E+03  0.00000000000E+00 0.  1.
<scales pt_clust_5="13000.00000" pt_clust_6="13000.00000" pt_clust_7="13000.00000" pt_clust_8="13000.00000" pt_clust_9="57.17245"></scales>
<clustering>
<clus scale="   57.172">  1  9  2 -1</clus>
<clus scale="   89.870">  7  8 -1 -1</clus>
<clus scale="  101.306">  1  7  2 -1</clus>
<clus scale="  103.871">  5  6 -1 -1</clus>
<clus scale="   57.172">  1  5  2 -1</clus>
</clustering>
</event>
<event>
 9    1  0.6296820E-005  0.9425323E+02  0.7546771E-02  0.1299236E+00
          1   -1    0    0  502    0 -0.00000000000E+00  0.00000000000E+00  0.13859490835E+03  0.13859490835E+03  0.00000000000E+00 0. -1.
         21   -1    0    0  501  502  0.00000000000E+00 -0.00000000000E+00 -0.17515519538E+03  0.17515519538E+03  0.00000000000E+00 0. -1.
        -24    2    1    2    0    0 -0.11899681647E+02 -0.24358669809E+02  0.98433615151E+02  0.12998908604E+03  0.80455196722E+02 0.  0.
         23    2    1    2    0    0  0.51737890175E+01 -0.44826860604E+01 -0.81441279031E+02  0.12256506288E+03  0.91338108921E+02 0.  0.
         13    1    3    3    0    0 -0.38730232206E+02  0.11226013087E+02  0.45798640993E+02  0.61021060080E+02  0.00000000000E+00 0. -1.
        -14    1    3    3    0    0  0.26830550559E+02 -0.35584682896E+02  0.52634974158E+02  0.68968025959E+02  0.00000000000E+00 0.  1.
        -11    1    4    4    0    0 -0.19038411485E+02 -0.24455209559E+02  0.42725159177E+01  0.31285344472E+02  0.00000000000E+00 0. -1.
         11    1    4    4    0    0  0.24212200502E+02  0.19972523498E+02 -0.85713794949E+02  0.91279718408E+02  0.00000000000E+00 0.  1.
          2    1    1    2  501    0  0.67258926295E+01  0.28841355870E+02 -0.53552623150E+02  0.61195954820E+02  0.00000000000E+00 0. -1.
<scales pt_clust_5="13000.00000" pt_clust_6="13000.00000" pt_clust_7="13000.00000" pt_clust_8="13000.00000" pt_clust_9="29.61522"></scales>
<clustering>
<clus scale="   29.615">  2  9  1 -1</clus>
<clus scale="   80.455">  5  6 -1 -1</clus>
<clus scale="   83.750">  1  5  2 -1</clus>
<clus scale="   91.338">  7  8 -1 -1</clus>
<clus scale="   29.615">  2  5  1 -1</clus>
</clustering>
</event>
<event>
 9    1  0.6296820E-005  0.9294256E+02  0.7546771E-02  0.1304725E+00
         21   -1    0    0  501  502  0.00000000000E+00  0.00000000000E+00  0.92868653380E+02  0.92868653380E+02  0.00000000000E+00 0.  1.
          1   -1    0    0  502    0 -0.00000000000E+00 -0.00000000000E+00 -0.17701813814E+03  0.17701813814E+03  0.00000000000E+00 0. -1.
         23    2    1    2    0    0  0.82422639675E+01 -0.25991884209E+02 -0.71425079136E+02  0.11920645966E+03  0.91461058024E+02 0.  0.
        -24    2    1    2    0    0 -0.55339383202E+01 -0.14360043150E+02  0.36660785459E+02  0.86848441965E+02  0.77212715071E+02 0.  0.
         11    1    4    4    0    0  0.33365954305E+02 -0.21752818040E+01  0.22668676879E+01  0.33513541244E+02  0.00000000000E+00 0. -1.
        -12    1    4    4    0    0 -0.38899892625E+02 -0.12184761346E+02  0.34393917771E+02  0.53334900721E+02  0.00000000000E+00 0.  1.
        -11    1    3    3    0    0  0.34419653811E+02  0.15691590445E+02 -0.75622108431E+01  0.38576231179E+02  0.00000000000E+00 0. -1.
         11    1    3    3    0    0 -0.26177389843E+02 -0.41683474654E+02 -0.63862868292E+02  0.80630228480E+02  0.00000000000E+00 0.  1.
          2    1    1    2  501    0 -0.27083256473E+01  0.40351927359E+02 -0.49385191085E+02  0.63831889898E+02  0.00000000000E+00 0. -1.
<scales pt_clust_5="13000.00000" pt_clust_6="13000.00000" pt_clust_7="13000.00000" pt_clust_8="13000.00000" pt_clust_9="40.44273"></scales>
<clustering>
<clus scale="   40.443">  1  9  2 -1</clus>
<clus scale="   77.213">  5  6 -1 -1</clus>
<clus scale="   78.962">  1  5  2 -1</clus>
<clus scale="   91.461">  7  8 -1 -1</clus>
<clus scale="   40.443">  1  5  2 -1</clus>
</clustering>
</event>
<event>
 9    1  0.6296820E-005  0.2258239E+03  0.7546771E-02  0.1130306E+00
         21   -1    0    0  501  502  0.00000000000E+00  0.00000000000E+00  0.10520557530E+03  0.10520557530E+03  0.00000000000E+00 0.  1.
         -4   -1    0    0    0  501 -0.00000000000E+00 -0.00000000000E+00 -0.74077401851E+03  0.74077401851E+03  0.00000000000E+00 0.  1.
        -24    2    1    2    0    0 -0.20987731152E+03 -0.80042185658E+02 -0.41103294888E+03  0.47531140625E+03  0.80731719109E+02 0.  0.
         23    2    1    2    0    0  0.18168216335E+03  0.42781196076E+02 -0.24377709110E+03  0.32013516102E+03  0.90667590433E+02 0.  0.
         11    1    3    3    0    0 -0.18079444727E+03 -0.51130305680E+02 -0.27367343222E+03  0.33196097335E+03  0.00000000000E+00 0. -1.
        -12    1    3    3    0    0 -0.29082864256E+02 -0.28911879978E+02 -0.13735951665E+03  0.14335043290E+03  0.00000000000E+00 0.  1.
        -13    1    4    4    0    0  0.14927419872E+03  0.25093069601E+02 -0.12677040333E+03  0.19744159569E+03  0.00000000000E+00 0. -1.
         13    1    4    4    0    0  0.32407964625E+02  0.17688126475E+02 -0.11700668778E+03  0.12269356533E+03  0.00000000000E+00 0.  1.
         -3    1    1    2    0  502  0.28195148175E+02  0.37260989581E+02  0.19241596768E+02  0.50533026541E+02  0.00000000000E+00 0.  1.
<scales pt_clust_5="13000.00000" pt_clust_6="13000.00000" pt_clust_7="13000.00000" pt_clust_8="13000.00000" pt_clust_9="46.72631"></scales>
<clustering>
<clus scale="   46.726">  1  9  2 -1</clus>
<clus scale="   80.732">  5  6 -1 -1</clus>
<clus scale="   90.668">  7  8 -1 -1</clus>
<clus scale="  222.021">  2  5  1 -1</clus>
<clus scale="   46.726">  1  5  2 -1</clus>
</clustering>
</event>
<event>
 9    1  0.6296820E-005  0.1029428E+03  0.7546771E-02  0.1274591E+00
          1   -1    0    0  502    0 -0.00000000000E+00  0.00000000000E+00  0.95585643980E+03  0.95585643980E+03  0.00000000000E+00 0. -1.
         21   -1    0    0  501  502  0.00000000000E+00 -0.00000000000E+00 -0.19536266082E+02  0.19536266082E+02  0.00000000000E+00 0. -1.
        -24    2    1    2    0    0  0.36834220609E+02  0.37100062291E+02  0.63365081086E+03  0.64156149291E+03  0.85759108248E+02 0.  0.
         23    2    1    2    0    0 -0.34753418872E+02 -0.60111514457E+02  0.20147893846E+03  0.23003642188E+03  0.86612923162E+02 0.  0.
         11    1    3    3    0    0  0.45922060446E+02 -0.13890545943E+02  0.26798290868E+03  0.27224368174E+03  0.00000000000E+00 0. -1.
        -12    1    3    3    0    0 -0.90878398376E+01  0.50990608234E+02  0.36566790218E+03  0.36931781117E+03  0.00000000000E+00 0.  1.
        -11    1    4    4    0    0  0.24145553023E+02 -0.28501365643E+02  0.37379638303E+02  0.52844800444E+02  0.00000000000E+00 0.  1.
         11    1    4    4    0    0 -0.58898971895E+02 -0.31610148814E+02  0.16409930015E+03  0.17719162144E+03  0.00000000000E+00 0. -1.
          2    1    1    2  501    0 -0.20808017364E+01  0.23011452166E+02  0.10119042441E+03  0.10379479109E+03  0.00000000000E+00 0. -1.
<scales pt_clust_5="13000.00000" pt_clust_6="13000.00000" pt_clust_7="13000.00000" pt_clust_8="13000.00000" pt_clust_9="23.10535"></scales>
<clustering>
<clus scale="   23.105">  2  9  1 -1</clus>
<clus scale="   85.759">  5  6 -1 -1</clus>
<clus scale="   86.613">  7  8 -1 -1</clus>
<clus scale="  102.225">  1  5  2 -1</clus>
<clus scale="   23.105">  2  5  1 -1</clus>
</clustering>
</event>
<event>
 9    1  0.6296820E-005  0.1345440E+03  0.7546771E-02  0.1223324E+00
         21   -1    0    0  501  502  0.00000000000E+00  0.00000000000E+00  0.15296371535E+03  0.15296371535E+03  0.00000000000E+00 0. -1.
          3   -1    0    0  502    0 -0.00000000000E+00 -0.00000000000E+00 -0.18971556870E+03  0.18971556870E+03  0.00000000000E+00 0. -1.
         23    2    1    2    0    0  0.10261563388E+03 -0.30890946801E+02 -0.10513116729E+02  0.14142811817E+03  0.91690610609E+02 0.  0.
        -24    2    1    2    0    0 -0.67682472645E+02  0.65556978052E+02  0.28355435228E+02  0.12774890010E+03  0.81468498786E+02 0.  0.
         11    1    4    4    0    0 -0.29835835615E+02  0.56841532458E+02  0.51708496682E+02  0.82431216952E+02  0.00000000000E+00 0. -1.
        -12    1    4    4    0    0 -0.37846637030E+02  0.87154455942E+01 -0.23353061455E+02  0.45317683146E+02  0.00000000000E+00 0.  1.
        -11    1    3    3    0    0 -0.76951351550E+01 -0.29391663040E+02  0.17201683758E+01  0.30430970089E+02  0.00000000000E+00 0.  1.
         11    1    3    3    0    0  0.11031076903E+03 -0.14992837608E+01 -0.12233285105E+02  0.11099714808E+03  0.00000000000E+00 0. -1.
          4    1    1    2  501    0 -0.34933161233E+02 -0.34666031251E+02 -0.54594171851E+02  0.73502265792E+02  0.00000000000E+00 0. -1.
<scales pt_clust_5="13000.00000" pt_clust_6="13000.00000" pt_clust_7="13000.00000" pt_clust_8="13000.00000" pt_clust_9="49.21445"></scales>
<clustering>
<clus scale="   49.214">  1  9  2 -1</clus>
<clus scale="   81.468">  5  6 -1 -1</clus>
<clus scale="   91.691">  7  8 -1 -1</clus>
<clus scale="  127.797">  1  5  2 -1</clus>
<clus scale="   49.214">  1  5  2 -1</clus>
</clustering>
</event>
<event>
 9    1  0.6296820E-005  0.9731998E+02  0.7546771E-02  0.1291757E+00
          1   -1    0    0  502    0 -0.00000000000E+00  0.00000000000E+00  0.19468040515E+03  0.19468040515E+03  0.00000000000E+00 0. -1.
         21   -1    0    0  501  502  0.00000000000E+00 -0.00000000000E+00 -0.14443619858E+03  0.14443619858E+03  0.00000000000E+00 0. -1.
         23    2    1    2    0    0 -0.13829716355E+02 -0.29513617987E+02  0.15104636792E+03  0.17965532608E+03  0.91644510067E+02 0.  0.
        -24    2    1    2    0    0 -0.14080363771E+02  0.42062689051E+02 -0.82093181164E+02  0.12359377569E+03  0.81046928018E+02 0.  0.
         13    1    4    4    0    0 -0.44192347618E+02  0.39084800370E+02 -0.38208946572E+02  0.70288753055E+02  0.00000000000E+00 0. -1.
        -14    1    4    4    0    0  0.30111983847E+02  0.29778886812E+01 -0.43884234592E+02  0.53305022633E+02  0.00000000000E+00 0.  1.
        -11    1    3    3    0    0  0.20766868158E+02  0.24608733351E+02  0.39789574458E+02  0.51186549071E+02  0.00000000000E+00 0.  1.
         11    1    3    3    0    0 -0.34596584513E+02 -0.54122351338E+02  0.11125679346E+03  0.12846877701E+03  0.00000000000E+00 0. -1.
          2    1    1    2  501    0  0.27910080126E+02 -0.12549071064E+02 -0.18708980188E+02  0.35867501961E+02  0.00000000000E+00 0. -1.
<scales pt_clust_5="13000.00000" pt_clust_6="13000.00000" pt_clust_7="13000.00000" pt_clust_8="13000.00000" pt_clust_9="30.60150"></scales>
<clustering>
<clus scale="   30.601">  2  9  1 -1</clus>
<clus scale="   81.047">  5  6 -1 -1</clus>
<clus scale="   87.413">  2  5  1 -1</clus>
<clus scale="   91.645">  7  8 -1 -1</clus>
<clus scale="   30.601">  2  5  1 -1</clus>
</clustering>
</event>
<event>
 9    1  0.6296820E-005  0.1018438E+03  0.7546771E-02  0.1282080E+00
          1   -1    0    0  502    0 -0.00000000000E+00  0.00000000000E+00  0.38423489300E+03  0.38423489300E+03  0.00000000000E+00 0. -1.
         21   -1    0    0  501  502  0.00000000000E+00 -0.00000000000E+00 -0.28571423045E+03  0.28571423045E+03  0.00000000000E+00 0.  1.
         23    2    1    2    0    0  0.49885365268E+01 -0.43306408643E+02  0.35286399310E+03  0.36720336365E+03  0.91787701392E+02 0.  0.
        -24    2    1    2    0    0  0.44726256583E+02  0.62276901176E+02 -0.16791532588E+03  0.20125073414E+03  0.80171384417E+02 0.  0.
         11    1    4    4    0    0  0.19719079108E+02  0.34144572898E+02 -0.12531773517E+02  0.41373171099E+02  0.00000000000E+00 0. -1.
        -12    1    4    4    0    0  0.25007177475E+02  0.28132328277E+02 -0.15538355237E+03  0.15987756305E+03  0.00000000000E+00 0.  1.
        -11    1    3    3    0    0 -0.24663453702E+02  0.16149045051E+02  0.59408418903E+02  0.66320719547E+02  0.00000000000E+00 0.  1.
         11    1    3    3    0    0  0.29651990229E+02 -0.59455453694E+02  0.29345557419E+03  0.30088264410E+03  0.00000000000E+00 0. -1.
          2    1    1    2  501    0 -0.49714793109E+02 -0.18970492533E+02 -0.86428004669E+02  0.10149502565E+03  0.00000000000E+00 0. -1.
<scales pt_clust_5="13000.00000" pt_clust_6="13000.00000" pt_clust_7="13000.00000" pt_clust_8="13000.00000" pt_clust_9="53.21128"></scales>
<clustering>
<clus scale="   53.211">  2  9  1 -1</clus>
<clus scale="   80.171">  5  6 -1 -1</clus>
<clus scale="   91.513">  2  5  1 -1</clus>
<clus scale="   91.788">  7  8 -1 -1</clus>
<clus scale="   53.211">  2  5  1 -1</clus>
</clustering>
</event>
<event>
 9    1  0.6296820E-005  0.1990947E+03  0.7546771E-02  0.1178577E+00
         21   -1    0    0  501  502  0.00000000000E+00  0.00000000000E+00  0.13310665635E+03  0.13310665635E+03  0.00000000000E+00 0. -1.
         -2   -1    0    0    0  501 -0.00000000000E+00 -0.00000000000E+00 -0.69811273321E+03  0.69811273321E+03  0.00000000000E+00 0.  1.
         23    2    1    2    0    0 -0.51351138628E+02 -0.62600155710E+01 -0.60353772878E+01  0.10428126378E+03  0.90343948129E+02 0.  0.
        -24    2    1    2    0    0  0.18284460517E+03 -0.62785219635E+02 -0.77252900719E+02  0.22284506495E+03  0.79484456725E+02 0.  0.
         11    1    4    4    0    0  0.14809483242E+03 -0.78902995692E+02 -0.47659933242E+02  0.17443976426E+03  0.00000000000E+00 0. -1.
        -12    1    4    4    0    0  0.34749772750E+02  0.16117776057E+02 -0.29592967477E+02  0.48405300694E+02  0.00000000000E+00 0.  1.
        -11    1    3    3    0    0 -0.18316411406E+02 -0.44690488525E+02 -0.19114751231E+02  0.51943280663E+02  0.00000000000E+00 0.  1.
         11    1    3    3    0    0 -0.33034727222E+02  0.38430472954E+02  0.13079373943E+02  0.52337983118E+02  0.00000000000E+00 0. -1.
         -1    1    1    2    0  502 -0.13149346654E+03  0.69045235206E+02 -0.48171779884E+03  0.50409306082E+03  0.00000000000E+00 0.  1.
<scales pt_clust_5="13000.00000" pt_clust_6="13000.00000" pt_clust_7="13000.00000" pt_clust_8="13000.00000" pt_clust_9="182.54023"></scales>
<clustering>
<clus scale="   79.484">  5  6 -1 -1</clus>
<clus scale="   90.344">  7  8 -1 -1</clus>
<clus scale="  104.107">  2  7  1 -1</clus>
<clus scale="  182.540">  1  9  2 -1</clus>
<clus scale="  182.540">  1  5  2 -1</clus>
</clustering>
</event>
<event>
 9    1  0.6296820E-005  0.1646832E+03  0.7546771E-02  0.1190680E+00
         -2   -1    0    0    0  501 -0.00000000000E+00  0.00000000000E+00  0.49248980386E+03  0.49248980386E+03  0.00000000000E+00 0.  1.
         21   -1    0    0  501  502  0.00000000000E+00 -0.00000000000E+00 -0.12405220987E+03  0.12405220987E+03  0.00000000000E+00 0.  1.
        -24    2    1    2    0    0  0.30993643525E+02 -0.11081586252E+03  0.27808647983E+02  0.14316731871E+03  0.80515830247E+02 0.  0.
         23    2    1    2    0    0 -0.14916923481E+03  0.28683231171E+02  0.23540619361E+03  0.29509663374E+03  0.92691741230E+02 0.  0.
         13    1    3    3    0    0  0.57493416017E+02 -0.79894678339E+02  0.28379217473E+02  0.10244038509E+03  0.00000000000E+00 0. -1.
        -14    1    3    3    0    0 -0.26499772492E+02 -0.30921184179E+02 -0.57056948932E+00  0.40726933628E+02  0.00000000000E+00 0.  1.
        -11    1    4    4    0    0 -0.12791080028E+03 -0.14804781808E+02  0.18292543165E+03  0.22370084474E+03  0.00000000000E+00 0.  1.
         11    1    4    4    0    0 -0.21258434525E+02  0.43488012979E+02  0.52480761966E+02  0.71395789006E+02  0.00000000000E+00 0. -1.
         -1    1    1    2    0  502  0.11817559128E+03  0.82132631347E+02  0.10522275239E+03  0.17827806126E+03  0.00000000000E+00 0.  1.
<scales pt_clust_5="13000.00000" pt_clust_6="13000.00000" pt_clust_7="13000.00000" pt_clust_8="13000.00000" pt_clust_9="136.12056"></scales>
<clustering>
<clus scale="   80.516">  5  6 -1 -1</clus>
<clus scale="   92.692">  7  8 -1 -1</clus>
<clus scale="  140.441">  1  5  2 -1</clus>
<clus scale="  136.121">  2  9  1 -1</clus>
<clus scale="  136.121">  2  5  1 -1</clus>
</clustering>
</event>
<event>
 9    1  0.6296820E-005  0.9697204E+02  0.7546771E-02  0.1293918E+00
         21   -1    0    0  501  502  0.00000000000E+00  0.00000000000E+00  0.14546502413E+03  0.14546502413E+03  0.00000000000E+00 0.  1.
          1   -1    0    0  502    0 -0.00000000000E+00 -0.00000000000E+00 -0.23717580993E+03  0.23717580993E+03  0.00000000000E+00 0. -1.
         23    2    1    2    0    0  0.26117795359E+01 -0.30644928704E+02 -0.18298878286E+03  0.20653356452E+03  0.90693360126E+02 0.  0.
        -24    2    1    2    0    0  0.22303042274E+01  0.69102962035E+02  0.89726005341E+02  0.13731455397E+03  0.77616603116E+02 0.  0.
         11    1    4    4    0    0 -0.80373273956E+01  0.22920869035E+02 -0.10517057799E+02  0.26468346637E+02  0.00000000000E+00 0. -1.
        -12    1    4    4    0    0  0.10267631623E+02  0.46182093001E+02  0.10024306314E+03  0.11084620734E+03  0.00000000000E+00 0.  1.
        -13    1    3    3    0    0  0.59678319062E+01 -0.62103448704E+02 -0.13889875742E+03  0.15226725902E+03  0.00000000000E+00 0. -1.
         13    1    3    3    0    0 -0.33560523702E+01  0.31458520000E+02 -0.44090025444E+02  0.54266305492E+02  0.00000000000E+00 0.  1.
          2    1    1    2  501    0 -0.48420837633E+01 -0.38458033331E+02  0.15519917275E+01  0.38792715569E+02  0.00000000000E+00 0. -1.
<scales pt_clust_5="13000.00000" pt_clust_6="13000.00000" pt_clust_7="13000.00000" pt_clust_8="13000.00000" pt_clust_9="38.76166"></scales>
<clustering>
<clus scale="   38.762">  1  9  2 -1</clus>
<clus scale="   77.617">  5  6 -1 -1</clus>
<clus scale="   84.868">  1  5  2 -1</clus>
<clus scale="   90.693">  7  8 -1 -1</clus>
<clus scale="   38.762">  1  5  2 -1</clus>
</clustering>
</event>
<event>
 9    1  0.6296820E-005  0.1817329E+03  0.7546771E-02  0.1192665E+00
         -2   -1    0    0    0  501 -0.00000000000E+00  0.00000000000E+00  0.13050538832E+03  0.13050538832E+03  0.00000000000E+00 0.  1.
         21   -1    0    0  501  502  0.00000000000E+00 -0.00000000000E+00 -0.48983816724E+03  0.48983816724E+03  0.00000000000E+00 0.  1.
         23    2    1    2    0    0  0.38623515979E+02 -0.94791676084E+01  0.22306112950E+02  0.10249085945E+03  0.91788795564E+02 0.  0.
        -24    2    1    2    0    0  0.10748868011E+03 -0.99690378720E+02 -0.19273740614E+03  0.25526835728E+03  0.80760377301E+02 0.  0.
         13    1    4    4    0    0  0.42524056284E+01 -0.54255079158E+02 -0.57551198655E+02  0.79207556677E+02  0.00000000000E+00 0. -1.
        -14    1    4    4    0    0  0.10323627448E+03 -0.45435299562E+02 -0.13518620749E+03  0.17606080061E+03  0.00000000000E+00 0.  1.
        -13    1    3    3    0    0  0.33696144657E+01 -0.40389182762E+02  0.35398364368E+02  0.53811565539E+02  0.00000000000E+00 0.  1.
         13    1    3    3    0    0  0.35253901513E+02  0.30910015153E+02 -0.13092251417E+02  0.48679293913E+02  0.00000000000E+00 0. -1.
         -1    1    1    2    0  502 -0.14611219608E+03  0.10916954633E+03 -0.18890148572E+03  0.26258433883E+03  0.00000000000E+00 0.  1.
<scales pt_clust_5="13000.00000" pt_clust_6="13000.00000" pt_clust_7="13000.00000" pt_clust_8="13000.00000" pt_clust_9="162.80246"></scales>
<clustering>
<clus scale="   80.760">  5  6 -1 -1</clus>
<clus scale="   91.789">  7  8 -1 -1</clus>
<clus scale="  100.034">  1  7  2 -1</clus>
<clus scale="  162.802">  2  9  1 -1</clus>
<clus scale="  162.802">  2  5  1 -1</clus>
</clustering>
</event>
<event>
 9    1  0.6296820E-005  0.9622030E+02  0.7546771E-02  0.1298289E+00
         21   -1    0    0  501  502  0.00000000000E+00  0.00000000000E+00  0.73950606039E+02  0.73950606039E+02  0.00000000000E+00 0. -1.
          3   -1    0    0  502    0 -0.00000000000E+00 -0.00000000000E+00 -0.20419623030E+03  0.20419623030E+03  0.00000000000E+00 0. -1.
         23    2    1    2    0    0  0.24652822849E+02 -0.12919009977E+02 -0.11421721881E+03  0.15067244344E+03  0.94244096090E+02 0.  0.
        -24    2    1    2    0    0  0.20876391314E+01 -0.38285933986E+01  0.19204649594E+02  0.80178487218E+02  0.77722293339E+02 0.  0.
         11    1    4    4    0    0  0.10794312148E+02 -0.31957926293E+02 -0.13354474676E+02  0.36279032809E+02  0.00000000000E+00 0. -1.
        -12    1    4    4    0    0 -0.87066730166E+01  0.28129332894E+02  0.32559124271E+02  0.43899454409E+02  0.00000000000E+00 0.  1.
        -13    1    3    3    0    0 -0.22873588855E+02 -0.37838428550E+02 -0.44964542600E+02  0.63061540050E+02  0.00000000000E+00 0.  1.
         13    1    3    3    0    0  0.47526411704E+02  0.24919418573E+02 -0.69252676206E+02  0.87610903393E+02  0.00000000000E+00 0. -1.
          4    1    1    2  501    0 -0.26740461981E+02  0.16747603375E+02 -0.35233055048E+02  0.47295905676E+02  0.00000000000E+00 0. -1.
<scales pt_clust_5="13000.00000" pt_clust_6="13000.00000" pt_clust_7="13000.00000" pt_clust_8="13000.00000" pt_clust_9="31.55211"></scales>
<clustering>
<clus scale="   31.552">  1  9  2 -1</clus>
<clus scale="   77.722">  5  6 -1 -1</clus>
<clus scale="   80.107">  1  5  2 -1</clus>
<clus scale="   94.244">  7  8 -1 -1</clus>
<clus scale="   31.552">  1  5  2 -1</clus>
</clustering>
</event>
<event>
 9    1  0.6296820E-005  0.1583612E+03  0.7546771E-02  0.1192227E+00
          1   -1    0    0  502    0 -0.00000000000E+00  0.00000000000E+00  0.23231791394E+03  0.23231791394E+03  0.00000000000E+00 0. -1.
         21   -1    0    0  501  502  0.00000000000E+00 -0.00000000000E+00 -0.20782238923E+03  0.20782238923E+03  0.00000000000E+00 0. -1.
        -24    2    1    2    0    0  0.20537232196E+02  0.13198688088E+03  0.10944223010E+03  0.19041874128E+03  0.80245751724E+02 0.  0.
         23    2    1    2    0    0  0.90081473341E+01 -0.12478285874E+03  0.52010980310E+01  0.15458243299E+03  0.90646393284E+02 0.  0.
         13    1    3    3    0    0  0.45644938961E+02  0.61166855947E+02  0.77503841099E+02  0.10877357264E+03  0.00000000000E+00 0. -1.
        -14    1    3    3    0    0 -0.25107706765E+02  0.70820024930E+02  0.31938389005E+02  0.81645168640E+02  0.00000000000E+00 0.  1.
        -11    1    4    4    0    0 -0.21787331138E+02 -0.11278010892E+03  0.22846403831E+02  0.11711532322E+03  0.00000000000E+00 0.  1.
         11    1    4    4    0    0  0.30795478472E+02 -0.12002749821E+02 -0.17645305800E+02  0.37467109768E+02  0.00000000000E+00 0. -1.
          2    1    1    2  501    0 -0.29545379530E+02 -0.72040221383E+01 -0.90147803424E+02  0.95139128905E+02  0.00000000000E+00 0. -1.
<scales pt_clust_5="13000.00000" pt_clust_6="13000.00000" pt_clust_7="13000.00000" pt_clust_8="13000.00000" pt_clust_9="30.41097"></scales>
<clustering>
<clus scale="   30.411">  2  9  1 -1</clus>
<clus scale="   80.246">  5  6 -1 -1</clus>
<clus scale="   90.646">  7  8 -1 -1</clus>
<clus scale="  152.646">  1  5  2 -1</clus>
<clus scale="   30.411">  2  5  1 -1</clus>
</clustering>
</event>
<event>
 9    1  0.6296820E-005  0.1101259E+03  0.7546771E-02  0.1264651E+00
          3   -1    0    0  502    0 -0.00000000000E+00  0.00000000000E+00  0.91298159499E+02  0.91298159499E+02  0.00000000000E+00 0. -1.
         21   -1    0    0  501  502  0.00000000000E+00 -0.00000000000E+00 -0.27736641032E+03  0.27736641032E+03  0.00000000000E+00 0.  1.
         23    2    1    2    0    0 -0.19119377030E+02  0.68592888188E+02 -0.15865486425E+02  0.11759786456E+03  0.92233449476E+02 0.  0.
        -24    2    1    2    0    0  0.59590983814E+02 -0.21138783855E+02 -0.47607549470E+02  0.11351878744E+03  0.81376303674E+02 0.  0.
         11    1    4    4    0    0  0.21314727725E+00 -0.24397912354E+02  0.13804372706E+02  0.28033270676E+02  0.00000000000E+00 0. -1.
        -12    1    4    4    0    0  0.59377836537E+02  0.32591284997E+01 -0.61411922175E+02  0.85485516759E+02  0.00000000000E+00 0.  1.
        -11    1    3    3    0    0  0.14931680994E+02  0.51442708592E+02  0.27203652767E+02  0.60077833586E+02  0.00000000000E+00 0. -1.
         11    1    3    3    0    0 -0.34051058024E+02  0.17150179596E+02 -0.43069139192E+02  0.57520030976E+02  0.00000000000E+00 0.  1.
          4    1    1    2  501    0 -0.40471606784E+02 -0.47454104333E+02 -0.12259521492E+03  0.13754791782E+03  0.00000000000E+00 0. -1.
<scales pt_clust_5="13000.00000" pt_clust_6="13000.00000" pt_clust_7="13000.00000" pt_clust_8="13000.00000" pt_clust_9="62.36861"></scales>
<clustering>
<clus scale="   62.369">  2  9  1 -1</clus>
<clus scale="   81.376">  5  6 -1 -1</clus>
<clus scale="   92.233">  7  8 -1 -1</clus>
<clus scale="  101.207">  2  5  1 -1</clus>
<clus scale="   62.369">  2  5  1 -1</clus>
</clustering>
</event>
<event>
 9    1  0.6296820E-005  0.3704744E+03  0.7546771E-02  0.1054512E+00
          1   -1    0    0  502    0 -0.00000000000E+00  0.00000000000E+00  0.94160740131E+03  0.94160740131E+03  0.00000000000E+00 0. -1.
         21   -1    0    0  501  502  0.00000000000E+00 -0.00000000000E+00 -0.14954379029E+03  0.14954379029E+03  0.00000000000E+00 0. -1.
        -24    2    1    2    0    0  0.19020780937E+03  0.14434296746E+03  0.43768109743E+03  0.50587136908E+03  0.85599042133E+02 0.  0.
         23    2    1    2    0    0  0.64154837799E+02  0.40259243341E+02  0.20806169849E+03  0.23859824896E+03  0.88897717296E+02 0.  0.
         13    1    3    3    0    0  0.85124149786E+02  0.11750370986E+03  0.25750556167E+03  0.29557123845E+03  0.00000000000E+00 0. -1.
        -14    1    3    3    0    0  0.10508365958E+03  0.26839257602E+02  0.18017553575E+03  0.21030013063E+03  0.00000000000E+00 0.  1.
        -11    1    4    4    0    0  0.84483846666E+02  0.38997822957E+02  0.18917529024E+03  0.21082134850E+03  0.00000000000E+00 0. -1.
         11    1    4    4    0    0 -0.20329008867E+02  0.12614203842E+01  0.18886408248E+02  0.27776900465E+02  0.00000000000E+00 0.  1.
          2    1    1    2  501    0 -0.25436264717E+03 -0.18460221080E+03  0.14632081511E+03  0.34668157355E+03  0.00000000000E+00 0. -1.
<scales pt_clust_5="13000.00000" pt_clust_6="13000.00000" pt_clust_7="13000.00000" pt_clust_8="13000.00000" pt_clust_9="314.29020"></scales>
<clustering>
<clus scale="   85.599">  5  6 -1 -1</clus>
<clus scale="   88.898">  7  8 -1 -1</clus>
<clus scale="   90.569">  5  7 -1 -1</clus>
<clus scale="  314.290">  2  9  1 -1</clus>
<clus scale="  314.290">  2  5  1 -1</clus>
</clustering>
</event>
<event>
 9    1  0.6296820E-005  0.1697333E+03  0.7546771E-02  0.1179197E+00
          1   -1    0    0  502    0 -0.00000000000E+00  0.00000000000E+00  0.82890995716E+03  0.82890995716E+03  0.00000000000E+00 0. -1.
         21   -1    0    0  501  502  0.00000000000E+00 -0.00000000000E+00 -0.57541568475E+02  0.57541568475E+02  0.00000000000E+00 0.  1.
        -24    2    1    2    0    0  0.36048687460E+02 -0.11740994563E+03  0.36340126737E+03  0.39233057697E+03  0.82329808104E+02 0.  0.
         23    2    1    2    0    0 -0.72616756857E+02  0.16755242728E+03  0.36709596656E+03  0.41981116830E+03  0.90194008126E+02 0.  0.
         13    1    3    3    0    0  0.60152162283E+02 -0.72904500792E+02  0.19881935110E+03  0.22014196155E+03  0.00000000000E+00 0. -1.
        -14    1    3    3    0    0 -0.24103474823E+02 -0.44505444835E+02  0.16458191627E+03  0.17218861542E+03  0.00000000000E+00 0.  1.
        -13    1    4    4    0    0 -0.50400449642E+02  0.53032531417E+02  0.72678853895E+02  0.10312550856E+03  0.00000000000E+00 0.  1.
         13    1    4    4    0    0 -0.22216307214E+02  0.11451989587E+03  0.29441711266E+03  0.31668565974E+03  0.00000000000E+00 0. -1.
          2    1    1    2  501    0  0.36568069396E+02 -0.50142481657E+02  0.40871154759E+02  0.74309780362E+02  0.00000000000E+00 0. -1.
<scales pt_clust_5="13000.00000" pt_clust_6="13000.00000" pt_clust_7="13000.00000" pt_clust_8="13000.00000" pt_clust_9="62.06039"></scales>
<clustering>
<clus scale="   62.060">  2  9  1 -1</clus>
<clus scale="   82.330">  5  6 -1 -1</clus>
<clus scale="   90.194">  7  8 -1 -1</clus>
<clus scale="  165.688">  1  5  2 -1</clus>
<clus scale="   62.060">  2  5  1 -1</clus>
</clustering>
</event>
<event>
 9    1  0.6296820E-005  0.1272529E+03  0.7546771E-02  0.1244244E+00
         21   -1    0    0  501  502  0.00000000000E+00  0.00000000000E+00  0.11893686022E+03  0.11893686022E+03  0.00000000000E+00 0. -1.
         -2   -1    0    0    0  501 -0.00000000000E+00 -0.00000000000E+00 -0.31477138848E+03  0.31477138848E+03  0.00000000000E+00 0.  1.
         23    2    1    2    0    0  0.41656777764E+02  0.28499267053E+02 -0.22035545002E+03  0.25272170549E+03  0.11297893926E+03 0.  0.
        -24    2    1    2    0    0 -0.61925719428E+02 -0.77042918554E+02  0.21050469712E+02  0.12826690612E+03  0.78986523561E+02 0.  0.
         11    1    4    4    0    0 -0.57428486034E+02 -0.56078986467E+02  0.48234160178E+02  0.93645170401E+02  0.00000000000E+00 0. -1.
        -12    1    4    4    0    0 -0.44972333935E+01 -0.20963932087E+02 -0.27183690466E+02  0.34621735718E+02  0.00000000000E+00 0.  1.
        -11    1    3    3    0    0 -0.16060710572E+02  0.52773407220E+02 -0.14254649931E+03  0.15284790937E+03  0.00000000000E+00 0.  1.
         11    1    3    3    0    0  0.57717488336E+02 -0.24274140167E+02 -0.77808950714E+02  0.99873796122E+02  0.00000000000E+00 0. -1.
         -1    1    1    2    0  502  0.20268941664E+02  0.48543651501E+02  0.34704520505E+01  0.52719637088E+02  0.00000000000E+00 0.  1.
<scales pt_clust_5="13000.00000" pt_clust_6="13000.00000" pt_clust_7="13000.00000" pt_clust_8="13000.00000" pt_clust_9="52.60529"></scales>
<clustering>
<clus scale="   52.605">  1  9  2 -1</clus>
<clus scale="   78.987">  5  6 -1 -1</clus>
<clus scale="   98.326">  1  5  2 -1</clus>
<clus scale="  112.979">  7  8 -1 -1</clus>
<clus scale="   52.605">  1  5  2 -1</clus>
</clustering>
</event>
<event>
 9    1  0.6296820E-005  0.1012496E+03  0.7546771E-02  0.1282124E+00
         21   -1    0    0  501  502  0.00000000000E+00  0.00000000000E+00  0.42414530795E+02  0.42414530795E+02  0.00000000000E+00 0.  1.
          1   -1    0    0  502    0 -0.00000000000E+00 -0.00000000000E+00 -0.54345978371E+03  0.54345978371E+03  0.00000000000E+00 0. -1.
         23    2    1    2    0    0 -0.51092588641E+02  0.14245576539E+02 -0.39432576065E+03  0.40810325940E+03  0.90785878580E+02 0.  0.
        -24    2    1    2    0    0  0.29701148014E+02  0.54159017242E+01 -0.11802138681E+03  0.14659573988E+03  0.81546140439E+02 0.  0.
         13    1    4    4    0    0  0.54221816161E+02  0.16684355117E+02 -0.97067559292E+02  0.11242990759E+03  0.00000000000E+00 0. -1.
        -14    1    4    4    0    0 -0.24520668147E+02 -0.11268453393E+02 -0.20953827518E+02  0.34165832287E+02  0.00000000000E+00 0.  1.
        -11    1    3    3    0    0  0.21532313034E+02  0.23403565239E+02 -0.10986382828E+03  0.11437407108E+03  0.00000000000E+00 0. -1.
         11    1    3    3    0    0 -0.72624901675E+02 -0.91579887006E+01 -0.28446193237E+03  0.29372918832E+03  0.00000000000E+00 0.  1.
          2    1    1    2  501    0  0.21391440627E+02 -0.19661478263E+02  0.11301894548E+02  0.31175315234E+02  0.00000000000E+00 0. -1.
<scales pt_clust_5="13000.00000" pt_clust_6="13000.00000" pt_clust_7="13000.00000" pt_clust_8="13000.00000" pt_clust_9="29.05456"></scales>
<clustering>
<clus scale="   29.055">  1  9  2 -1</clus>
<clus scale="   81.546">  5  6 -1 -1</clus>
<clus scale="   90.786">  7  8 -1 -1</clus>
<clus scale="   93.055">  1  5  2 -1</clus>
<clus scale="   29.055">  1  5  2 -1</clus>
</clustering>
</event>
<event>
 9    1  0.6296820E-005  0.2472822E+03  0.7546771E-02  0.1149304E+00
          1   -1    0    0  502    0 -0.00000000000E+00  0.00000000000E+00  0.13878008747E+03  0.13878008747E+03  0.00000000000E+00 0. -1.
         21   -1    0    0  501  502  0.00000000000E+00 -0.00000000000E+00 -0.20339614003E+04  0.20339614003E+04  0.00000000000E+00 0. -1.
         23    2    1    2    0    0 -0.88336408465E+00 -0.57566069595E+02  0.71366958990E+02  0.12854235636E+03  0.90084748106E+02 0.  0.
        -24    2    1    2    0    0 -0.23125308076E+03  0.16578999600E+02 -0.48160602413E+03  0.54066305007E+03  0.81359207536E+02 0.  0.
         13    1    4    4    0    0 -0.22334235135E+03 -0.42682817107E+01 -0.44014027514E+03  0.49358229905E+03  0.00000000000E+00 0. -1.
        -14    1    4    4    0    0 -0.79107294085E+01  0.20847281311E+02 -0.41465748988E+02  0.47080751024E+02  0.00000000000E+00 0.  1.
        -11    1    3    3    0    0  0.23182971464E+02  0.12063701900E+02  0.23487759282E+00  0.26135000228E+02  0.00000000000E+00 0.  1.
         11    1    3    3    0    0 -0.24066335549E+02 -0.69629771495E+02  0.71132081397E+02  0.10240735613E+03  0.00000000000E+00 0. -1.
          2    1    1    2  501    0  0.23213644485E+03  0.40987069995E+02 -0.14849422477E+04  0.15035360813E+04  0.00000000000E+00 0. -1.
<scales pt_clust_5="13000.00000" pt_clust_6="13000.00000" pt_clust_7="13000.00000" pt_clust_8="13000.00000" pt_clust_9="233.51478"></scales>
<clustering>
<clus scale="   81.359">  5  6 -1 -1</clus>
<clus scale="   90.085">  7  8 -1 -1</clus>
<clus scale="  106.911">  1  7  2 -1</clus>
<clus scale="  233.515">  2  9  1 -1</clus>
<clus scale="  233.515">  2  5  1 -1</clus>
</clustering>
</event>
<event>
 9    1  0.6296820E-005  0.1672351E+03  0.7546771E-02  0.1191599E+00
          1   -1    0    0  502    0 -0.00000000000E+00  0.00000000000E+00  0.51707317248E+03  0.51707317248E+03  0.00000000000E+00 0. -1.
         21   -1    0    0  501  502  0.00000000000E+00 -0.00000000000E+00 -0.10464784706E+03  0.10464784706E+03  0.00000000000E+00 0. -1.
         23    2    1    2    0    0  0.61203452316E+02  0.72393315860E+02  0.12770184106E+03  0.18324380520E+03  0.91015807295E+02 0.  0.
        -24    2    1    2    0    0 -0.38306287511E+02  0.78022831986E+02  0.24707529466E+03  0.28173958684E+03  0.10380780118E+03 0.  0.
         11    1    4    4    0    0  0.24035935935E+02  0.61197222258E+02  0.16276075108E+03  0.17553885131E+03  0.00000000000E+00 0. -1.
        -12    1    4    4    0    0 -0.62342223446E+02  0.16825609728E+02  0.84314543582E+02  0.10620073553E+03  0.00000000000E+00 0.  1.
        -11    1    3    3    0    0  0.18772250162E+02 -0.18792432059E+02  0.98965333829E+01  0.28345974174E+02  0.00000000000E+00 0.  1.
         11    1    3    3    0    0  0.42431202154E+02  0.91185747919E+02  0.11780530768E+03  0.15489783103E+03  0.00000000000E+00 0. -1.
          2    1    1    2  501    0 -0.22897164805E+02 -0.15041614785E+03  0.37648189698E+02  0.15673762751E+03  0.00000000000E+00 0. -1.
<scales pt_clust_5="13000.00000" pt_clust_6="13000.00000" pt_clust_7="13000.00000" pt_clust_8="13000.00000" pt_clust_9="131.11645"></scales>
<clustering>
<clus scale="   91.016">  7  8 -1 -1</clus>
<clus scale="  103.808">  5  6 -1 -1</clus>
<clus scale="  131.417">  1  7  2 -1</clus>
<clus scale="  131.116">  2  9  1 -1</clus>
<clus scale="  131.116">  2  5  1 -1</clus>
</clustering>
</event>
<event>
 9    1  0.6296820E-005  0.9642914E+02  0.7546771E-02  0.1293799E+00
          3   -1    0    0  502    0 -0.00000000000E+00  0.00000000000E+00  0.88240290187E+03  0.88240290187E+03  0.00000000000E+00 0. -1.
         21   -1    0    0  501  502  0.00000000000E+00 -0.00000000000E+00 -0.33286190400E+02  0.33286190400E+02  0.00000000000E+00 0.  1.
        -24    2    1    2    0    0  0.24138310312E+02 -0.25122717098E+02  0.57221342818E+03  0.57894383683E+03  0.80832851416E+02 0.  0.
         23    2    1    2    0    0 -0.30668083850E+02 -0.34843166487E+02  0.77718045385E+02  0.12862676964E+03  0.91379284691E+02 0.  0.
         13    1    3    3    0    0 -0.24587311214E+02  0.25196199473E+01  0.85005843277E+02  0.88526141612E+02  0.00000000000E+00 0. -1.
        -14    1    3    3    0    0  0.48725621526E+02 -0.27642337045E+02  0.48720758491E+03  0.49041769522E+03  0.00000000000E+00 0.  1.
        -13    1    4    4    0    0 -0.61056138267E+01 -0.56511218706E+02  0.16482363015E+02  0.59181624263E+02  0.00000000000E+00 0.  1.
         13    1    4    4    0    0 -0.24562470023E+02  0.21668052219E+02  0.61235682370E+02  0.69445145373E+02  0.00000000000E+00 0. -1.
          4    1    1    2  501    0  0.65297735379E+01  0.59965883585E+02  0.19918523790E+03  0.20811848581E+03  0.00000000000E+00 0. -1.
<scales pt_clust_5="13000.00000" pt_clust_6="13000.00000" pt_clust_7="13000.00000" pt_clust_8="13000.00000" pt_clust_9="60.32038"></scales>
<clustering>
<clus scale="   60.320">  2  9  1 -1</clus>
<clus scale="   80.833">  5  6 -1 -1</clus>
<clus scale="   86.501">  1  5  2 -1</clus>
<clus scale="   91.379">  7  8 -1 -1</clus>
<clus scale="   60.320">  2  5  1 -1</clus>
</clustering>
</event>
<event>
 9    1  0.6296820E-005  0.1756586E+03  0.7546771E-02  0.1194937E+00
         -2   -1    0    0    0  501 -0.00000000000E+00  0.00000000000E+00  0.65137167231E+03  0.65137167231E+03  0.00000000000E+00 0.  1.
         21   -1    0    0  501  502  0.00000000000E+00 -0.00000000000E+00 -0.12236782932E+03  0.12236782932E+03  0.00000000000E+00 0.  1.
         23    2    1    2    0    0  0.14124918303E+02  0.46719659450E+02  0.72749744510E+02  0.12805782148E+03  0.93402571809E+02 0.  0.
        -24    2    1    2    0    0 -0.14686440952E+03  0.37494300844E+02  0.45711778561E+03  0.48847955041E+03  0.81735083443E+02 0.  0.
         13    1    4    4    0    0 -0.39326850554E+02  0.32248446157E+02  0.69080983280E+02  0.85783131821E+02  0.00000000000E+00 0. -1.
        -14    1    4    4    0    0 -0.10753755897E+03  0.52458546868E+01  0.38803680233E+03  0.40269641859E+03  0.00000000000E+00 0.  1.
        -11    1    3    3    0    0 -0.24128203720E+02  0.34200534157E+02 -0.33298347910E+01  0.41987314169E+02  0.00000000000E+00 0.  1.
         11    1    3    3    0    0  0.38253122023E+02  0.12519125292E+02  0.76079579301E+02  0.86070507314E+02  0.00000000000E+00 0. -1.
         -1    1    1    2    0  502  0.13273949122E+03 -0.84213960294E+02 -0.86368712478E+00  0.15720212974E+03  0.00000000000E+00 0.  1.
<scales pt_clust_5="13000.00000" pt_clust_6="13000.00000" pt_clust_7="13000.00000" pt_clust_8="13000.00000" pt_clust_9="155.48416"></scales>
<clustering>
<clus scale="   81.735">  5  6 -1 -1</clus>
<clus scale="   93.403">  7  8 -1 -1</clus>
<clus scale="  105.386">  1  7  2 -1</clus>
<clus scale="  155.484">  2  9  1 -1</clus>
<clus scale="  155.484">  2  5  1 -1</clus>
</clustering>
</event>
<event>
 9    1  0.6296820E-005  0.9310678E+02  0.7546771E-02  0.1301749E+00
          1   -1    0    0  502    0 -0.00000000000E+00  0.00000000000E+00  0.45670154727E+03  0.45670154727E+03  0.00000000000E+00 0. -1.
         21   -1    0    0  501  502  0.00000000000E+00 -0.00000000000E+00 -0.30690921968E+02  0.30690921968E+02  0.00000000000E+00 0.  1.
        -24    2    1    2    0    0  0.14714594907E+02 -0.42575561018E+00  0.21835668534E+03  0.23344321738E+03  0.81236648962E+02 0.  0.
         23    2    1    2    0    0  0.28054768113E+01  0.41784223287E+02  0.15360448562E+03  0.18367251833E+03  0.91583098717E+02 0.  0.
         11    1    3    3    0    0 -0.60274591807E+01  0.31813743890E+02  0.42350493314E+02  0.53310494731E+02  0.00000000000E+00 0. -1.
        -12    1    3    3    0    0  0.20742054088E+02 -0.32239499500E+02  0.17600619203E+03  0.18013272265E+03  0.00000000000E+00 0.  1.
        -11    1    4    4    0    0  0.19739295718E+02 -0.98450954990E+01  0.14483647350E+01  0.22105733673E+02  0.00000000000E+00 0. -1.
         11    1    4    4    0    0 -0.16933818906E+02  0.51629318786E+02  0.15215612089E+03  0.16156678466E+03  0.00000000000E+00 0.  1.
          2    1    1    2  501    0 -0.17520071719E+02 -0.41358467677E+02  0.54049454338E+02  0.70276733532E+02  0.00000000000E+00 0. -1.
<scales pt_clust_5="13000.00000" pt_clust_6="13000.00000" pt_clust_7="13000.00000" pt_clust_8="13000.00000" pt_clust_9="44.91632"></scales>
<clustering>
<clus scale="   44.916">  2  9  1 -1</clus>
<clus scale="   81.237">  5  6 -1 -1</clus>
<clus scale="   82.951">  1  5  2 -1</clus>
<clus scale="   91.583">  7  8 -1 -1</clus>
<clus scale="   44.916">  2  5  1 -1</clus>
</clustering>
</event>
<event>
 9    1  0.6296820E-005  0.1279506E+03  0.7546771E-02  0.1230895E+00
         -2   -1    0    0    0  501 -0.00000000000E+00  0.00000000000E+00  0.31632661915E+03  0.31632661915E+03  0.00000000000E+00 0.  1.
         21   -1    0    0  501  502  0.00000000000E+00 -0.00000000000E+00 -0.25797342108E+03  0.25797342108E+03  0.00000000000E+00 0.  1.
         23    2    1    2    0    0  0.91823506343E+02  0.27719926844E+02  0.26846212678E+03  0.29915735092E+03  0.90682172625E+02 0.  0.
        -24    2    1    2    0    0 -0.31206179505E+02 -0.51057776388E+02 -0.97465057271E+02  0.14511285694E+03  0.89317309022E+02 0.  0.
         13    1    4    4    0    0 -0.17995843519E+02  0.24412801065E+02 -0.34551744962E+02  0.45974539907E+02  0.00000000000E+00 0. -1.
        -14    1    4    4    0    0 -0.13210335986E+02 -0.75470577453E+02 -0.62913312310E+02  0.99138317031E+02  0.00000000000E+00 0.  1.
        -13    1    3    3    0    0  0.87022733671E+02 -0.16073553243E+01  0.24864415412E+03  0.26343776332E+03  0.00000000000E+00 0.  1.
         13    1    3    3    0    0  0.48007726715E+01  0.29327282168E+02  0.19817972660E+02  0.35719587595E+02  0.00000000000E+00 0. -1.
         -1    1    1    2    0  502 -0.60617326838E+02  0.23337849544E+02 -0.11264387144E+03  0.13002983237E+03  0.00000000000E+00 0.  1.
<scales pt_clust_5="13000.00000" pt_clust_6="13000.00000" pt_clust_7="13000.00000" pt_clust_8="13000.00000" pt_clust_9="64.95472"></scales>
<clustering>
<clus scale="   64.955">  2  9  1 -1</clus>
<clus scale="   89.317">  5  6 -1 -1</clus>
<clus scale="   90.682">  7  8 -1 -1</clus>
<clus scale="  126.987">  2  5  1 -1</clus>
<clus scale="   64.955">  2  5  1 -1</clus>
</clustering>
</event>
<event>
 9    1  0.6296820E-005  0.1107538E+03  0.7546771E-02  0.1263442E+00
         21   -1    0    0  501  502  0.00000000000E+00  0.00000000000E+00  0.82266308217E+03  0.82266308217E+03  0.00000000000E+00 0.  1.
         -4   -1    0    0    0  501 -0.00000000000E+00 -0.00000000000E+00 -0.47081317268E+02  0.47081317268E+02  0.00000000000E+00 0.  1.
         23    2    1    2    0    0  0.67506083122E+02  0.11462029684E+02  0.38950874835E+02  0.12003727099E+03  0.90572216456E+02 0.  0.
        -24    2    1    2    0    0 -0.42697839617E+02  0.21319268939E+02  0.40137184825E+03  0.41193695864E+03  0.79467481378E+02 0.  0.
         13    1    4    4    0    0 -0.63772738195E+02  0.45902664466E+01  0.24170243510E+03  0.25001619910E+03  0.00000000000E+00 0. -1.
        -14    1    4    4    0    0  0.21074898578E+02  0.16729002493E+02  0.15966941315E+03  0.16192075954E+03  0.00000000000E+00 0.  1.
        -13    1    3    3    0    0  0.78475291930E+02 -0.66097852956E+01  0.52754192543E+02  0.94789585588E+02  0.00000000000E+00 0. -1.
         13    1    3    3    0    0 -0.10969208807E+02  0.18071814979E+02 -0.13803317708E+02  0.25247685404E+02  0.00000000000E+00 0.  1.
         -3    1    1    2    0  502 -0.24808243505E+02 -0.32781298623E+02  0.33525904182E+03  0.33777016980E+03  0.00000000000E+00 0.  1.
<scales pt_clust_5="13000.00000" pt_clust_6="13000.00000" pt_clust_7="13000.00000" pt_clust_8="13000.00000" pt_clust_9="41.11037"></scales>
<clustering>
<clus scale="   41.110">  1  9  2 -1</clus>
<clus scale="   79.467">  5  6 -1 -1</clus>
<clus scale="   90.572">  7  8 -1 -1</clus>
<clus scale="  101.873">  1  5  2 -1</clus>
<clus scale="   41.110">  1  5  2 -1</clus>
</clustering>
</event>
<event>
 9    1  0.6296820E-005  0.2291633E+03  0.7546771E-02  0.1127230E+00
         21   -1    0    0  501  502  0.00000000000E+00  0.00000000000E+00  0.92130618104E+03  0.92130618104E+03  0.00000000000E+00 0. -1.
          3   -1    0    0  502    0 -0.00000000000E+00 -0.00000000000E+00 -0.37864511882E+02  0.37864511882E+02  0.00000000000E+00 0. -1.
        -24    2    1    2    0    0  0.32481837709E+02  0.96493577370E+02  0.31642395851E+03  0.34129230135E+03  0.77396596752E+02 0.  0.
         23    2    1    2    0    0  0.29241676236E+02  0.32173559513E+02  0.18287046300E+03  0.20808071934E+03  0.89251139841E+02 0.  0.
         11    1    3    3    0    0  0.45024138710E+02  0.89048909570E+02  0.19550968776E+03  0.21950152476E+03  0.00000000000E+00 0. -1.
        -12    1    3    3    0    0 -0.12542301001E+02  0.74446677992E+01  0.12091427075E+03  0.12179077659E+03  0.00000000000E+00 0.  1.
        -11    1    4    4    0    0  0.60578907208E+02  0.25867972101E+02  0.10560780175E+03  0.12446671752E+03  0.00000000000E+00 0. -1.
         11    1    4    4    0    0 -0.31337230972E+02  0.63055874117E+01  0.77262661251E+02  0.83614001825E+02  0.00000000000E+00 0.  1.
          4    1    1    2  501    0 -0.61723513945E+02 -0.12866713688E+03  0.38414724765E+03  0.40979767223E+03  0.00000000000E+00 0. -1.
<scales pt_clust_5="13000.00000" pt_clust_6="13000.00000" pt_clust_7="13000.00000" pt_clust_8="13000.00000" pt_clust_9="142.70608"></scales>
<clustering>
<clus scale="   77.397">  5  6 -1 -1</clus>
<clus scale="   89.251">  7  8 -1 -1</clus>
<clus scale="   94.183">  5  7 -1 -1</clus>
<clus scale="  142.706">  1  9  2 -1</clus>
<clus scale="  142.706">  1  5  2 -1</clus>
</clustering>
</event>
<event>
 9    1  0.6296820E-005  0.1547903E+03  0.7546771E-02  0.1217626E+00
          1   -1    0    0  502    0 -0.00000000000E+00  0.00000000000E+00  0.14431668647E+04  0.14431668647E+04  0.00000000000E+00 0. -1.
         21   -1    0    0  501  502  0.00000000000E+00 -0.00000000000E+00 -0.35765919627E+02  0.35765919627E+02  0.00000000000E+00 0.  1.
        -24    2    1    2    0    0  0.40983710595E+02  0.23329124204E+02  0.86740274269E+02  0.12833250777E+03  0.81984418029E+02 0.  0.
         23    2    1    2    0    0 -0.14398395765E+03 -0.13166105558E+02  0.67436020478E+03  0.69606484572E+03  0.94020515100E+02 0.  0.
         11    1    3    3    0    0 -0.19712615707E+02  0.18780287480E+02  0.50829095611E+02  0.57661801710E+02  0.00000000000E+00 0. -1.
        -12    1    3    3    0    0  0.60696326302E+02  0.45488367247E+01  0.35911178659E+02  0.70670706058E+02  0.00000000000E+00 0.  1.
        -11    1    4    4    0    0 -0.17632023166E+02  0.32175965187E+02  0.18636219089E+03  0.18993958822E+03  0.00000000000E+00 0.  1.
         11    1    4    4    0    0 -0.12635193448E+03 -0.45342070745E+02  0.48799801389E+03  0.50612525750E+03  0.00000000000E+00 0. -1.
          2    1    1    2  501    0  0.10300024705E+03 -0.10163018647E+02  0.64630046601E+03  0.65453543083E+03  0.00000000000E+00 0. -1.
<scales pt_clust_5="13000.00000" pt_clust_6="13000.00000" pt_clust_7="13000.00000" pt_clust_8="13000.00000" pt_clust_9="122.96416"></scales>
<clustering>
<clus scale="   81.984">  5  6 -1 -1</clus>
<clus scale="   94.021">  7  8 -1 -1</clus>
<clus scale="   94.580">  1  5  2 -1</clus>
<clus scale="  122.964">  2  9  1 -1</clus>
<clus scale="  122.964">  2  5  1 -1</clus>
</clustering>
</event>
<event>
 9    1  0.6296820E-005  0.1752668E+03  0.7546771E-02  0.1173760E+00
          1   -1    0    0  502    0 -0.00000000000E+00  0.00000000000E+00  0.32007695479E+03  0.32007695479E+03  0.00000000000E+00 0. -1.
         21   -1    0    0  501  502  0.00000000000E+00 -0.00000000000E+00 -0.18323970411E+03  0.18323970411E+03  0.00000000000E+00 0. -1.
         23    2    1    2    0    0 -0.14420981467E+03 -0.54749761985E+02  0.21142079728E+03  0.27685145304E+03  0.90299315853E+02 0.  0.
        -24    2    1    2    0    0  0.13969930488E+03  0.20677602680E+02 -0.22184288240E+02  0.16379991232E+03  0.79967553385E+02 0.  0.
         11    1    4    4    0    0  0.55960313067E+02 -0.30169028169E+02 -0.16432127065E+02  0.65663853825E+02  0.00000000000E+00 0. -1.
        -12    1    4    4    0    0  0.83738991809E+02  0.50846630849E+02 -0.57521611747E+01  0.98136058491E+02  0.00000000000E+00 0.  1.
        -13    1    3    3    0    0 -0.75841711279E+02 -0.67385324580E+02  0.16347090192E+03  0.19239408233E+03  0.00000000000E+00 0. -1.
         13    1    3    3    0    0 -0.68368103389E+02  0.12635562595E+02  0.47949895359E+02  0.84457370715E+02  0.00000000000E+00 0.  1.
          2    1    1    2  501    0  0.45105097915E+01  0.34072159305E+02 -0.52399258358E+02  0.62665293542E+02  0.00000000000E+00 0. -1.
<scales pt_clust_5="13000.00000" pt_clust_6="13000.00000" pt_clust_7="13000.00000" pt_clust_8="13000.00000" pt_clust_9="34.36942"></scales>
<clustering>
<clus scale="   34.369">  2  9  1 -1</clus>
<clus scale="   79.968">  5  6 -1 -1</clus>
<clus scale="   90.299">  7  8 -1 -1</clus>
<clus scale="  170.174">  2  5  1 -1</clus>
<clus scale="   34.369">  2  5  1 -1</clus>
</clustering>
</event>
<event>
 9    1  0.6296820E-005  0.9903419E+02  0.7546771E-02  0.1287311E+00
         21   -1    0    0  501  502  0.00000000000E+00  0.00000000000E+00  0.57754057247E+02  0.57754057247E+02  0.00000000000E+00 0.  1.
         -4   -1    0    0    0  501 -0.00000000000E+00 -0.00000000000E+00 -0.33057947258E+03  0.33057947258E+03  0.00000000000E+00 0.  1.
         23    2    1    2    0    0 -0.19814140968E+02 -0.32279757618E+02 -0.88309682764E+02  0.13235261684E+03  0.91016658803E+02 0.  0.
        -24    2    1    2    0    0  0.50569100868E+02  0.70766139473E+01 -0.36451469914E+02  0.10267047014E+03  0.81272402163E+02 0.  0.
         13    1    4    4    0    0 -0.36868889769E+00 -0.30419638430E+02 -0.22660338044E+02  0.37933906390E+02  0.00000000000E+00 0. -1.
        -14    1    4    4    0    0  0.50937789766E+02  0.37496252377E+02 -0.13791131870E+02  0.64736563755E+02  0.00000000000E+00 0.  1.
        -13    1    3    3    0    0 -0.52407900822E+02 -0.72197357600E+00 -0.38880762181E+02  0.65259658153E+02  0.00000000000E+00 0.  1.
         13    1    3    3    0    0  0.32593759854E+02 -0.31557784042E+02 -0.49428920584E+02  0.67092958685E+02  0.00000000000E+00 0. -1.
         -3    1    1    2    0  502 -0.30754959900E+02  0.25203143671E+02 -0.14806426265E+03  0.15331044284E+03  0.00000000000E+00 0.  1.
<scales pt_clust_5="13000.00000" pt_clust_6="13000.00000" pt_clust_7="13000.00000" pt_clust_8="13000.00000" pt_clust_9="39.76264"></scales>
<clustering>
<clus scale="   39.763">  1  9  2 -1</clus>
<clus scale="   81.272">  5  6 -1 -1</clus>
<clus scale="   90.161">  1  5  2 -1</clus>
<clus scale="   91.017">  7  8 -1 -1</clus>
<clus scale="   39.763">  1  5  2 -1</clus>
</clustering>
</event>
<event>
 9    1  0.6296820E-005  0.1017451E+03  0.7546771E-02  0.1284258E+00
         21   -1    0    0  501  502  0.00000000000E+00  0.00000000000E+00  0.14404784899E+03  0.14404784899E+03  0.00000000000E+00 0. -1.
          3   -1    0    0  502    0 -0.00000000000E+00 -0.00000000000E+00 -0.20013386429E+03  0.20013386429E+03  0.00000000000E+00 0. -1.
        -24    2    1    2    0    0 -0.18483578138E+01 -0.84742426079E+01 -0.25747251437E+02  0.90589272802E+02  0.86419130844E+02 0.  0.
         23    2    1    2    0    0  0.59877026103E+02  0.36573650292E+00  0.70871307528E+02  0.13664564588E+03  0.10031898269E+03 0.  0.
         13    1    3    3    0    0  0.30408332120E+02  0.22497126676E+02 -0.25948487419E+02  0.45870593743E+02  0.00000000000E+00 0. -1.
        -14    1    3    3    0    0 -0.32256689934E+02 -0.30971369284E+02  0.20123598202E+00  0.44718679059E+02  0.00000000000E+00 0.  1.
        -13    1    4    4    0    0  0.27999496713E+02  0.37734688880E+02 -0.39375245627E+01  0.47152758782E+02  0.00000000000E+00 0.  1.
         13    1    4    4    0    0  0.31877529390E+02 -0.37368952377E+02  0.74808832090E+02  0.89492887094E+02  0.00000000000E+00 0. -1.
          4    1    1    2  501    0 -0.58028668289E+02  0.81085061050E+01 -0.10121007139E+03  0.11694679459E+03  0.00000000000E+00 0. -1.
<scales pt_clust_5="13000.00000" pt_clust_6="13000.00000" pt_clust_7="13000.00000" pt_clust_8="13000.00000" pt_clust_9="58.59247"></scales>
<clustering>
<clus scale="   58.592">  1  9  2 -1</clus>
<clus scale="   86.419">  5  6 -1 -1</clus>
<clus scale="   88.071">  2  5  1 -1</clus>
<clus scale="  100.319">  7  8 -1 -1</clus>
<clus scale="   58.592">  1  5  2 -1</clus>
</clustering>
</event>
<event>
 9    1  0.6296820E-005  0.2827341E+03  0.7546771E-02  0.1094205E+00
          1   -1    0    0  502    0 -0.00000000000E+00  0.00000000000E+00  0.13450658862E+04  0.13450658862E+04  0.00000000000E+00 0. -1.
         21   -1    0    0  501  502  0.00000000000E+00 -0.00000000000E+00 -0.46154637691E+02  0.46154637691E+02  0.00000000000E+00 0. -1.
        -24    2    1    2    0    0  0.83615720106E+01  0.15015963931E+03  0.45416078214E+03  0.48544222443E+03  0.82306160496E+02 0.  0.
         23    2    1    2    0    0 -0.11580094263E+02  0.62921329235E+02  0.35424816424E+03  0.37098266894E+03  0.89683814195E+02 0.  0.
         11    1    3    3    0    0 -0.83112692946E+00  0.15028612864E+03  0.45152296947E+03  0.47587771874E+03  0.00000000000E+00 0. -1.
        -12    1    3    3    0    0  0.91926989401E+01 -0.12648933066E+00  0.26378126735E+01  0.95645056879E+01  0.00000000000E+00 0.  1.
        -13    1    4    4    0    0 -0.42777961772E+02  0.19564846756E+02  0.24379975234E+03  0.24829630783E+03  0.00000000000E+00 0. -1.
         13    1    4    4    0    0  0.31197867509E+02  0.43356482479E+02  0.11044841190E+03  0.12268636111E+03  0.00000000000E+00 0.  1.
          2    1    1    2  501    0  0.32185222528E+01 -0.21308096854E+03  0.49050230212E+03  0.53479563052E+03  0.00000000000E+00 0. -1.
<scales pt_clust_5="13000.00000" pt_clust_6="13000.00000" pt_clust_7="13000.00000" pt_clust_8="13000.00000" pt_clust_9="213.10527"></scales>
<clustering>
<clus scale="   82.306">  5  6 -1 -1</clus>
<clus scale="   89.684">  7  8 -1 -1</clus>
<clus scale="   93.255">  5  7 -1 -1</clus>
<clus scale="  213.105">  2  9  1 -1</clus>
<clus scale="  213.105">  2  5  1 -1</clus>
</clustering>
</event>
<event>
 9    1  0.6296820E-005  0.1698638E+03  0.7546771E-02  0.1179648E+00
          1   -1    0    0  502    0 -0.00000000000E+00  0.00000000000E+00  0.56838956818E+03  0.56838956818E+03  0.00000000000E+00 0. -1.
         21   -1    0    0  501  502  0.00000000000E+00 -0.00000000000E+00 -0.67025839371E+02  0.67025839371E+02  0.00000000000E+00 0. -1.
        -24    2    1    2    0    0  0.10926772167E+03 -0.64455221127E+02  0.22184714592E+03  0.26768896990E+03  0.79670056648E+02 0.  0.
         23    2    1    2    0    0 -0.14216392430E+03  0.92849829672E+02  0.20577543762E+03  0.28213338624E+03  0.91782594558E+02 0.  0.
         11    1    3    3    0    0  0.84698605179E+02 -0.44554113062E+01  0.13169555445E+03  0.15664425770E+03  0.00000000000E+00 0. -1.
        -12    1    3    3    0    0  0.24569116494E+02 -0.59999809821E+02  0.90151591469E+02  0.11104471220E+03  0.00000000000E+00 0.  1.
        -13    1    4    4    0    0 -0.53759394893E+01  0.46906409750E+02  0.66744454189E+02  0.81755331117E+02  0.00000000000E+00 0.  1.
         13    1    4    4    0    0 -0.13678798481E+03  0.45943419922E+02  0.13903098343E+03  0.20037805513E+03  0.00000000000E+00 0. -1.
          2    1    1    2  501    0  0.32896202631E+02 -0.28394608545E+02  0.73741145274E+02  0.85593051402E+02  0.00000000000E+00 0. -1.
<scales pt_clust_5="13000.00000" pt_clust_6="13000.00000" pt_clust_7="13000.00000" pt_clust_8="13000.00000" pt_clust_9="43.45591"></scales>
<clustering>
<clus scale="   43.456">  2  9  1 -1</clus>
<clus scale="   79.670">  5  6 -1 -1</clus>
<clus scale="   91.783">  7  8 -1 -1</clus>
<clus scale="  163.637">  1  5  2 -1</clus>
<clus scale="   43.456">  2  5  1 -1</clus>
</clustering>
</event>
<event>
 9    1  0.6296820E-005  0.9989243E+02  0.7546771E-02  0.1289746E+00
         -2   -1    0    0    0  501 -0.00000000000E+00  0.00000000000E+00  0.76878192076E+02  0.76878192076E+02  0.00000000000E+00 0.  1.
         21   -1    0    0  501  502  0.00000000000E+00 -0.00000000000E+00 -0.18599799509E+03  0.18599799509E+03  0.00000000000E+00 0.  1.
        -24    2    1    2    0    0  0.38059367249E+01 -0.92376557444E+01 -0.26829425778E+02  0.85948772131E+02  0.81040446107E+02 0.  0.
         23    2    1    2    0    0  0.28303116276E+02  0.40599155114E+02 -0.71933945535E+02  0.13086451668E+03  0.97476517273E+02 0.  0.
         11    1    3    3    0    0  0.37903873700E+02  0.96382135036E+01 -0.86805878605E+00  0.39119717881E+02  0.00000000000E+00 0. -1.
        -12    1    3    3    0    0 -0.34097936976E+02 -0.18875869248E+02 -0.25961366992E+02  0.46829054250E+02  0.00000000000E+00 0.  1.
        -13    1    4    4    0    0  0.25718084264E+02 -0.29457126669E+02 -0.22931840371E+02  0.45332234367E+02  0.00000000000E+00 0. -1.
         13    1    4    4    0    0  0.25850320113E+01  0.70056281784E+02 -0.49002105164E+02  0.85532282317E+02  0.00000000000E+00 0.  1.
         -1    1    1    2    0  502 -0.32109053000E+02 -0.31361499370E+02 -0.10356431705E+02  0.46062898356E+02  0.00000000000E+00 0.  1.
<scales pt_clust_5="13000.00000" pt_clust_6="13000.00000" pt_clust_7="13000.00000" pt_clust_8="13000.00000" pt_clust_9="44.88359"></scales>
<clustering>
<clus scale="   44.884">  2  9  1 -1</clus>
<clus scale="   81.040">  5  6 -1 -1</clus>
<clus scale="   83.931">  1  5  2 -1</clus>
<clus scale="   97.477">  7  8 -1 -1</clus>
<clus scale="   44.884">  2  5  1 -1</clus>
</clustering>
</event>
<event>
 9    1  0.6869932E-005  0.1003161E+03  0.7546771E-02  0.1285147E+00
          1   -1    0    0  502    0 -0.00000000000E+00  0.00000000000E+00  0.21433973600E+03  0.21433973600E+03  0.00000000000E+00 0. -1.
         21   -1    0    0  501  502  0.00000000000E+00 -0.00000000000E+00 -0.22898554712E+03  0.22898554712E+03  0.00000000000E+00 0. -1.
        -24    2    1    2    0    0  0.48323411454E+02 -0.80030896899E+01  0.13531672961E+03  0.16517706999E+03  0.81078021676E+02 0.  0.
         23    2    1    2    0    0 -0.28131354428E+01  0.39622555401E+02  0.17489775722E+02  0.10176438702E+03  0.92044758585E+02 0.  0.
         11    1    3    3    0    0  0.66640186039E+02  0.36426033345E+01  0.12370709411E+03  0.14056183012E+03  0.00000000000E+00 0. -1.
        -12    1    3    3    0    0 -0.18316774585E+02 -0.11645693024E+02  0.11609635497E+02  0.24615239865E+02  0.00000000000E+00 0.  1.
        -11    1    4    4    0    0  0.31353743762E+02  0.44114591119E+02  0.33621418904E+02  0.63714631024E+02  0.00000000000E+00 0. -1.
         11    1    4    4    0    0 -0.34166879205E+02 -0.44920357180E+01 -0.16131643182E+02  0.38049755994E+02  0.00000000000E+00 0.  1.
          2    1    1    2  501    0 -0.45510276012E+02 -0.31619465711E+02 -0.16745231645E+03  0.17638382612E+03  0.00000000000E+00 0. -1.
<scales pt_clust_5="13000.00000" pt_clust_6="13000.00000" pt_clust_7="13000.00000" pt_clust_8="13000.00000" pt_clust_9="55.41639"></scales>
<clustering>
<clus scale="   55.416">  2  9  1 -1</clus>
<clus scale="   81.078">  5  6 -1 -1</clus>
<clus scale="   90.359">  1  5  2 -1</clus>
<clus scale="   92.045">  7  8 -1 -1</clus>
<clus scale="   55.416">  2  5  1 -1</clus>
</clustering>
</event>
<event>
 9    1  0.6296820E-005  0.1618787E+03  0.7546771E-02  0.1187983E+00
         21   -1    0    0  501  502  0.00000000000E+00  0.00000000000E+00  0.32726735314E+03  0.32726735314E+03  0.00000000000E+00 0. -1.
          1   -1    0    0  502    0 -0.00000000000E+00 -0.00000000000E+00 -0.20548893858E+03  0.20548893858E+03  0.00000000000E+00 0. -1.
         23    2    1    2    0    0 -0.76495369653E+02 -0.96080787184E+02 -0.78850295403E+02  0.17213260509E+03  0.91264480521E+02 0.  0.
        -24    2    1    2    0    0  0.66323202771E+02  0.14835349568E+03  0.33447969300E+02  0.18516625852E+03  0.82220737874E+02 0.  0.
         11    1    4    4    0    0  0.35239885995E+02  0.13253236676E+03  0.42945950957E+00  0.13713811374E+03  0.00000000000E+00 0. -1.
        -12    1    4    4    0    0  0.31083316776E+02  0.15821128919E+02  0.33018509790E+02  0.48028144778E+02  0.00000000000E+00 0.  1.
        -11    1    3    3    0    0 -0.21396851582E+02  0.14205241613E+01 -0.53030581270E+02  0.57202147655E+02  0.00000000000E+00 0. -1.
         11    1    3    3    0    0 -0.55098518071E+02 -0.97501311345E+02 -0.25819714132E+02  0.11493045743E+03  0.00000000000E+00 0.  1.
          2    1    1    2  501    0  0.10172166882E+02 -0.52272708498E+02  0.16718074066E+03  0.17545742812E+03  0.00000000000E+00 0. -1.
<scales pt_clust_5="13000.00000" pt_clust_6="13000.00000" pt_clust_7="13000.00000" pt_clust_8="13000.00000" pt_clust_9="53.25325"></scales>
<clustering>
<clus scale="   53.253">  1  9  2 -1</clus>
<clus scale="   82.221">  5  6 -1 -1</clus>
<clus scale="   91.264">  7  8 -1 -1</clus>
<clus scale="  156.958">  1  5  2 -1</clus>
<clus scale="   53.253">  1  5  2 -1</clus>
</clustering>
</event>
<event>
 9    1  0.6296820E-005  0.9571928E+02  0.7546771E-02  0.1296031E+00
          1   -1    0    0  502    0 -0.00000000000E+00  0.00000000000E+00  0.24750028986E+03  0.24750028986E+03  0.00000000000E+00 0. -1.
         21   -1    0    0  501  502  0.00000000000E+00 -0.00000000000E+00 -0.12982813820E+03  0.12982813820E+03  0.00000000000E+00 0. -1.
        -24    2    1    2    0    0 -0.48722914404E+01  0.33705784136E+02  0.14955611872E+03  0.17336938101E+03  0.80808975468E+02 0.  0.
         23    2    1    2    0    0  0.55938565240E+02  0.33633069018E+02  0.18910130844E+01  0.11294786780E+03  0.92159310426E+02 0.  0.
         13    1    3    3    0    0  0.16766267023E+02  0.52468444174E+02  0.71719410946E+02  0.90430742839E+02  0.00000000000E+00 0. -1.
        -14    1    3    3    0    0 -0.21638558463E+02 -0.18762660038E+02  0.77836707779E+02  0.82938638172E+02  0.00000000000E+00 0.  1.
        -13    1    4    4    0    0  0.54347421889E+02  0.53944964756E+01  0.38401458038E+02  0.66763873746E+02  0.00000000000E+00 0.  1.
         13    1    4    4    0    0  0.15911433514E+01  0.28238572542E+02 -0.36510444953E+02  0.46183994057E+02  0.00000000000E+00 0. -1.
          2    1    1    2  501    0 -0.51066273800E+02 -0.67338853154E+02 -0.33774980143E+02  0.91011179245E+02  0.00000000000E+00 0. -1.
<scales pt_clust_5="13000.00000" pt_clust_6="13000.00000" pt_clust_7="13000.00000" pt_clust_8="13000.00000" pt_clust_9="84.51204"></scales>
<clustering>
<clus scale="   80.809">  5  6 -1 -1</clus>
<clus scale="   84.512">  2  9  1 -1</clus>
<clus scale="   84.847">  1  5  2 -1</clus>
<clus scale="   92.159">  7  8 -1 -1</clus>
<clus scale="   84.512">  2  5  1 -1</clus>
</clustering>
</event>
<event>
 9    1  0.6296820E-005  0.1002880E+03  0.7546771E-02  0.1282120E+00
         21   -1    0    0  501  502  0.00000000000E+00  0.00000000000E+00  0.47405517564E+02  0.47405517564E+02  0.00000000000E+00 0. -1.
          1   -1    0    0  502    0 -0.00000000000E+00 -0.00000000000E+00 -0.32862051629E+03  0.32862051629E+03  0.00000000000E+00 0. -1.
        -24    2    1    2    0    0  0.53880515722E+02 -0.21540259315E+02 -0.13604391674E+03  0.17082344730E+03  0.85472861897E+02 0.  0.
         23    2    1    2    0    0 -0.31110577289E+02 -0.19688889926E+02 -0.10313230009E+03  0.14207119953E+03  0.90512065548E+02 0.  0.
         11    1    3    3    0    0  0.64979086898E+02 -0.43702260746E+02 -0.10789898455E+03  0.13332051678E+03  0.00000000000E+00 0. -1.
        -12    1    3    3    0    0 -0.11098571176E+02  0.22162001432E+02 -0.28144932190E+02  0.37502930520E+02  0.00000000000E+00 0.  1.
        -13    1    4    4    0    0 -0.13113892342E+02 -0.54842344635E+02 -0.46827750567E+02  0.73297306640E+02  0.00000000000E+00 0.  1.
         13    1    4    4    0    0 -0.17996684947E+02  0.35153454709E+02 -0.56304549521E+02  0.68773892894E+02  0.00000000000E+00 0. -1.
          2    1    1    2  501    0 -0.22769938434E+02  0.41229149241E+02 -0.42038781903E+02  0.63131387021E+02  0.00000000000E+00 0. -1.
<scales pt_clust_5="13000.00000" pt_clust_6="13000.00000" pt_clust_7="13000.00000" pt_clust_8="13000.00000" pt_clust_9="47.09897"></scales>
<clustering>
<clus scale="   47.099">  1  9  2 -1</clus>
<clus scale="   85.473">  5  6 -1 -1</clus>
<clus scale="   90.512">  7  8 -1 -1</clus>
<clus scale="   95.765">  2  5  1 -1</clus>
<clus scale="   47.099">  1  5  2 -1</clus>
</clustering>
</event>
<event>
 9    1  0.6296820E-005  0.1025119E+03  0.7546771E-02  0.1281100E+00
         21   -1    0    0  501  502  0.00000000000E+00  0.00000000000E+00  0.46041761205E+02  0.46041761205E+02  0.00000000000E+00 0.  1.
          1   -1    0    0  502    0 -0.00000000000E+00 -0.00000000000E+00 -0.50511232859E+03  0.50511232859E+03  0.00000000000E+00 0. -1.
         23    2    1    2    0    0  0.33114805975E+02  0.38184744290E+02 -0.40753922538E+03  0.42043359235E+03  0.90119477789E+02 0.  0.
        -24    2    1    2    0    0 -0.42697121224E+02 -0.17986337753E+02 -0.58359849346E+02  0.10734476420E+03  0.77268841575E+02 0.  0.
         13    1    4    4    0    0  0.12132575173E+02  0.16429967950E+02 -0.30867198567E+02  0.37012527265E+02  0.00000000000E+00 0. -1.
        -14    1    4    4    0    0 -0.54829696397E+02 -0.34416305702E+02 -0.27492650779E+02  0.70332236933E+02  0.00000000000E+00 0.  1.
        -11    1    3    3    0    0  0.63259281461E+02  0.34316549371E+02 -0.31125223477E+03  0.31946410737E+03  0.00000000000E+00 0. -1.
         11    1    3    3    0    0 -0.30144475486E+02  0.38681949189E+01 -0.96286990618E+02  0.10096948498E+03  0.00000000000E+00 0.  1.
          2    1    1    2  501    0  0.95823152486E+01 -0.20198406537E+02  0.68285073487E+01  0.23375733246E+02  0.00000000000E+00 0. -1.
<scales pt_clust_5="13000.00000" pt_clust_6="13000.00000" pt_clust_7="13000.00000" pt_clust_8="13000.00000" pt_clust_9="22.35613"></scales>
<clustering>
<clus scale="   22.356">  1  9  2 -1</clus>
<clus scale="   77.269">  5  6 -1 -1</clus>
<clus scale="   90.119">  7  8 -1 -1</clus>
<clus scale="   91.420">  1  5  2 -1</clus>
<clus scale="   22.356">  1  5  2 -1</clus>
</clustering>
</event>
<event>
 9    1  0.6296820E-005  0.1305051E+03  0.7546771E-02  0.1228722E+00
         21   -1    0    0  501  502  0.00000000000E+00  0.00000000000E+00  0.22613670073E+03  0.22613670073E+03  0.00000000000E+00 0. -1.
          1   -1    0    0  502    0 -0.00000000000E+00 -0.00000000000E+00 -0.21666214336E+03  0.21666214336E+03  0.00000000000E+00 0. -1.
        -24    2    1    2    0    0  0.18018085908E+02  0.97934981798E+02 -0.16384834737E+03  0.20950572686E+03  0.84442030835E+02 0.  0.
         23    2    1    2    0    0 -0.19781138604E+02 -0.49438832889E+02  0.10523525696E+03  0.14968143985E+03  0.92166059297E+02 0.  0.
         11    1    3    3    0    0  0.25796098205E+02  0.10023595762E+03 -0.95983203028E+02  0.14115757559E+03  0.00000000000E+00 0. -1.
        -12    1    3    3    0    0 -0.77780122973E+01 -0.23009758274E+01 -0.67865144343E+02  0.68348151268E+02  0.00000000000E+00 0.  1.
        -13    1    4    4    0    0 -0.23404123662E+02 -0.20669903367E+02 -0.84569090088E+01  0.32349918386E+02  0.00000000000E+00 0.  1.
         13    1    4    4    0    0  0.36229850585E+01 -0.28768929522E+02  0.11369216597E+03  0.11733152146E+03  0.00000000000E+00 0. -1.
          2    1    1    2  501    0  0.17630526959E+01 -0.48496148909E+02  0.68087647781E+02  0.83611677379E+02  0.00000000000E+00 0. -1.
<scales pt_clust_5="13000.00000" pt_clust_6="13000.00000" pt_clust_7="13000.00000" pt_clust_8="13000.00000" pt_clust_9="48.52819"></scales>
<clustering>
<clus scale="   48.528">  1  9  2 -1</clus>
<clus scale="   84.442">  5  6 -1 -1</clus>
<clus scale="   92.166">  7  8 -1 -1</clus>
<clus scale="  125.170">  2  5  1 -1</clus>
<clus scale="   48.528">  1  5  2 -1</clus>
</clustering>
</event>
<event>
 9    1  0.6296820E-005  0.1038572E+03  0.7546771E-02  0.1274993E+00
         21   -1    0    0  501  502  0.00000000000E+00  0.00000000000E+00  0.19200481650E+03  0.19200481650E+03  0.00000000000E+00 0.  1.
          3   -1    0    0  502    0 -0.00000000000E+00 -0.00000000000E+00 -0.16087049364E+03  0.16087049364E+03  0.00000000000E+00 0. -1.
         23    2    1    2    0    0 -0.20406871678E+02 -0.42267212455E+02 -0.10925854658E+03  0.14974449037E+03  0.91011124226E+02 0.  0.
        -24    2    1    2    0    0  0.35166222539E+02  0.64897890293E+02  0.13449405358E+03  0.17547612676E+03  0.85175238431E+02 0.  0.
         13    1    4    4    0    0  0.40800725941E+02  0.75317596364E+02  0.72088274641E+02  0.11195605790E+03  0.00000000000E+00 0. -1.
        -14    1    4    4    0    0 -0.56345034017E+01 -0.10419706071E+02  0.62405778936E+02  0.63520068858E+02  0.00000000000E+00 0.  1.
        -11    1    3    3    0    0  0.16029590600E+02 -0.27231989800E+02 -0.10552119211E+03  0.11015103735E+03  0.00000000000E+00 0. -1.
         11    1    3    3    0    0 -0.36436462278E+02 -0.15035222656E+02 -0.37373544698E+01  0.39593453020E+02  0.00000000000E+00 0.  1.
          4    1    1    2  501    0 -0.14759350861E+02 -0.22630677837E+02  0.58988158729E+01  0.27654693018E+02  0.00000000000E+00 0. -1.
<scales pt_clust_5="13000.00000" pt_clust_6="13000.00000" pt_clust_7="13000.00000" pt_clust_8="13000.00000" pt_clust_9="27.01825"></scales>
<clustering>
<clus scale="   27.018">  1  9  2 -1</clus>
<clus scale="   85.175">  5  6 -1 -1</clus>
<clus scale="   91.011">  7  8 -1 -1</clus>
<clus scale="   98.783">  1  5  2 -1</clus>
<clus scale="   27.018">  1  5  2 -1</clus>
</clustering>
</event>
<event>
 9    1  0.6296820E-005  0.2018287E+03  0.7546771E-02  0.1180561E+00
          1   -1    0    0  502    0 -0.00000000000E+00  0.00000000000E+00  0.74841275597E+03  0.74841275597E+03  0.00000000000E+00 0. -1.
         21   -1    0    0  501  502  0.00000000000E+00 -0.00000000000E+00 -0.10236921525E+03  0.10236921525E+03  0.00000000000E+00 0. -1.
         23    2    1    2    0    0 -0.21555328958E+02  0.23405931118E+02  0.34723675361E+03  0.36014840770E+03  0.90116828013E+02 0.  0.
        -24    2    1    2    0    0 -0.86213050374E+02 -0.16526925887E+03  0.12000243814E+03  0.23822472342E+03  0.87199860712E+02 0.  0.
         13    1    4    4    0    0 -0.85156115486E+02 -0.17352418230E+03  0.12330234848E+03  0.22927205453E+03  0.00000000000E+00 0. -1.
        -14    1    4    4    0    0 -0.10569348879E+01  0.82549234242E+01 -0.32999103428E+01  0.89526688963E+01  0.00000000000E+00 0.  1.
        -11    1    3    3    0    0 -0.41656949708E+02  0.47936532228E+02  0.24562549366E+03  0.25370277042E+03  0.00000000000E+00 0.  1.
         11    1    3    3    0    0  0.20101620750E+02 -0.24530601110E+02  0.10161125995E+03  0.10644563728E+03  0.00000000000E+00 0. -1.
          2    1    1    2  501    0  0.10776837933E+03  0.14186332775E+03  0.17880434897E+03  0.25240884009E+03  0.00000000000E+00 0. -1.
<scales pt_clust_5="13000.00000" pt_clust_6="13000.00000" pt_clust_7="13000.00000" pt_clust_8="13000.00000" pt_clust_9="182.01929"></scales>
<clustering>
<clus scale="   87.200">  5  6 -1 -1</clus>
<clus scale="   90.117">  7  8 -1 -1</clus>
<clus scale="   95.569">  1  7  2 -1</clus>
<clus scale="  182.019">  2  9  1 -1</clus>
<clus scale="  182.019">  2  5  1 -1</clus>
</clustering>
</event>
<event>
 9    1  0.6296820E-005  0.1208103E+03  0.7546771E-02  0.1263603E+00
         21   -1    0    0  501  502  0.00000000000E+00  0.00000000000E+00  0.32989867696E+03  0.32989867696E+03  0.00000000000E+00 0.  1.
         -2   -1    0    0    0  501 -0.00000000000E+00 -0.00000000000E+00 -0.57284015704E+02  0.57284015704E+02  0.00000000000E+00 0.  1.
         23    2    1    2    0    0 -0.28291068257E+02  0.38707799965E+01  0.35342537321E+02  0.12748320489E+03  0.11911131392E+03 0.  0.
        -24    2    1    2    0    0  0.35046018601E+01  0.10182975719E+02  0.15854849247E+03  0.17597800237E+03  0.75595354527E+02 0.  0.
         13    1    4    4    0    0  0.20360327320E+02  0.17883760497E+02  0.14485236790E+02  0.30727738331E+02  0.00000000000E+00 0. -1.
        -14    1    4    4    0    0 -0.16855725460E+02 -0.77007847778E+01  0.14406325568E+03  0.14525026404E+03  0.00000000000E+00 0.  1.
        -11    1    3    3    0    0 -0.36953161067E+02 -0.29740101889E+02 -0.28124467097E+02  0.55145221214E+02  0.00000000000E+00 0.  1.
         11    1    3    3    0    0  0.86620928101E+01  0.33610881886E+02  0.63467004418E+02  0.72337983679E+02  0.00000000000E+00 0. -1.
         -1    1    1    2    0  502  0.24786466397E+02 -0.14053755715E+02  0.78723631459E+02  0.83721485392E+02  0.00000000000E+00 0.  1.
<scales pt_clust_5="13000.00000" pt_clust_6="13000.00000" pt_clust_7="13000.00000" pt_clust_8="13000.00000" pt_clust_9="28.49345"></scales>
<clustering>
<clus scale="   28.493">  1  9  2 -1</clus>
<clus scale="   75.595">  5  6 -1 -1</clus>
<clus scale="   78.245">  1  5  2 -1</clus>
<clus scale="  119.111">  7  8 -1 -1</clus>
<clus scale="   28.493">  1  5  2 -1</clus>
</clustering>
</event>
<event>
 9    1  0.6296820E-005  0.1037228E+03  0.7546771E-02  0.1273933E+00
          3   -1    0    0  502    0 -0.00000000000E+00  0.00000000000E+00  0.12822124532E+03  0.12822124532E+03  0.00000000000E+00 0. -1.
         21   -1    0    0  501  502  0.00000000000E+00 -0.00000000000E+00 -0.59176523916E+03  0.59176523916E+03  0.00000000000E+00 0. -1.
         23    2    1    2    0    0  0.20350333794E+02  0.34853192092E+02  0.83087588075E+02  0.13424666272E+03  0.97415286653E+02 0.  0.
        -24    2    1    2    0    0  0.18060769045E+02  0.62873278804E+02 -0.27162412748E+03  0.29136764928E+03  0.82681315000E+02 0.  0.
         11    1    4    4    0    0  0.10903698815E+02  0.81868052688E+02 -0.23976849602E+03  0.25359455906E+03  0.00000000000E+00 0. -1.
        -12    1    4    4    0    0  0.71570702300E+01 -0.18994773884E+02 -0.31855631459E+02  0.37773090221E+02  0.00000000000E+00 0.  1.
        -11    1    3    3    0    0 -0.31603502582E+02  0.20949490244E+02  0.68868985968E+02  0.78616790478E+02  0.00000000000E+00 0.  1.
         11    1    3    3    0    0  0.51953836376E+02  0.13903701847E+02  0.14218602107E+02  0.55629872237E+02  0.00000000000E+00 0. -1.
          4    1    1    2  501    0 -0.38411102839E+02 -0.97726470895E+02 -0.27500745444E+03  0.29437217248E+03  0.00000000000E+00 0. -1.
<scales pt_clust_5="13000.00000" pt_clust_6="13000.00000" pt_clust_7="13000.00000" pt_clust_8="13000.00000" pt_clust_9="105.00417"></scales>
<clustering>
<clus scale="   82.681">  5  6 -1 -1</clus>
<clus scale="   97.415">  7  8 -1 -1</clus>
<clus scale="  105.004">  2  9  1 -1</clus>
<clus scale="  105.004">  2  5  1 -1</clus>
<clus scale="  103.723">  2  5  1 -1</clus>
</clustering>
</event>
<event>
 9    1  0.6296820E-005  0.1069213E+03  0.7546771E-02  0.1273335E+00
          3   -1    0    0  502    0 -0.00000000000E+00  0.00000000000E+00  0.29990457052E+03  0.29990457052E+03  0.00000000000E+00 0. -1.
         21   -1    0    0  501  502  0.00000000000E+00 -0.00000000000E+00 -0.63163642312E+02  0.63163642312E+02  0.00000000000E+00 0. -1.
        -24    2    1    2    0    0 -0.69358710194E+02 -0.43516094957E+00  0.14859129414E+03  0.18231921617E+03  0.79687538844E+02 0.  0.
         23    2    1    2    0    0  0.99297146167E+01  0.89097394567E+01  0.41073560248E+02  0.10446150933E+03  0.95116701431E+02 0.  0.
         13    1    3    3    0    0 -0.27387121248E+02 -0.39242552559E+02  0.77672917088E+02  0.91231104293E+02  0.00000000000E+00 0. -1.
        -14    1    3    3    0    0 -0.41971588946E+02  0.38807391609E+02  0.70918377051E+02  0.91088111879E+02  0.00000000000E+00 0.  1.
        -11    1    4    4    0    0  0.42891494314E+02  0.28420887773E+01  0.53577032113E+02  0.68689563423E+02  0.00000000000E+00 0.  1.
         11    1    4    4    0    0 -0.32961779697E+02  0.60676506794E+01 -0.12503471865E+02  0.35771945911E+02  0.00000000000E+00 0. -1.
          4    1    1    2  501    0  0.59428995577E+02 -0.84745785071E+01  0.47076073820E+02  0.76287487326E+02  0.00000000000E+00 0. -1.
<scales pt_clust_5="13000.00000" pt_clust_6="13000.00000" pt_clust_7="13000.00000" pt_clust_8="13000.00000" pt_clust_9="60.03019"></scales>
<clustering>
<clus scale="   60.030">  2  9  1 -1</clus>
<clus scale="   79.688">  5  6 -1 -1</clus>
<clus scale="   93.462">  1  5  2 -1</clus>
<clus scale="   95.117">  7  8 -1 -1</clus>
<clus scale="   60.030">  2  5  1 -1</clus>
</clustering>
</event>
<event>
 9    1  0.6296820E-005  0.2704566E+03  0.7546771E-02  0.1101587E+00
         21   -1    0    0  501  502  0.00000000000E+00  0.00000000000E+00  0.11992380495E+03  0.11992380495E+03  0.00000000000E+00 0. -1.
          1   -1    0    0  502    0 -0.00000000000E+00 -0.00000000000E+00 -0.99260642322E+03  0.99260642322E+03  0.00000000000E+00 0. -1.
        -24    2    1    2    0    0  0.21428794185E+03  0.90959483768E+02 -0.50826199858E+03  0.56474007528E+03  0.80050882106E+02 0.  0.
         23    2    1    2    0    0 -0.28139612873E+03 -0.13629367882E+03 -0.26927536227E+03  0.42284489287E+03  0.92351689508E+02 0.  0.
         11    1    3    3    0    0  0.67488778164E+02 -0.10230819885E+01 -0.20069645535E+03  0.21174241206E+03  0.00000000000E+00 0. -1.
        -12    1    3    3    0    0  0.14679916368E+03  0.91982565757E+02 -0.30756554323E+03  0.35299766322E+03  0.00000000000E+00 0.  1.
        -11    1    4    4    0    0 -0.22012092405E+03 -0.83815806179E+02 -0.24195362875E+03  0.33766828254E+03  0.00000000000E+00 0.  1.
         11    1    4    4    0    0 -0.61275204680E+02 -0.52477872636E+02 -0.27321733519E+02  0.85176610331E+02  0.00000000000E+00 0. -1.
          2    1    1    2  501    0  0.67108186882E+02  0.45334195047E+02 -0.95145257430E+02  0.12494526001E+03  0.00000000000E+00 0. -1.
<scales pt_clust_5="13000.00000" pt_clust_6="13000.00000" pt_clust_7="13000.00000" pt_clust_8="13000.00000" pt_clust_9="80.98579"></scales>
<clustering>
<clus scale="   80.051">  5  6 -1 -1</clus>
<clus scale="   80.986">  1  9  2 -1</clus>
<clus scale="   92.352">  7  8 -1 -1</clus>
<clus scale="  266.507">  2  5  1 -1</clus>
<clus scale="   80.986">  1  5  2 -1</clus>
</clustering>
</event>
<event>
 9    1  0.6296820E-005  0.1430861E+03  0.7546771E-02  0.1211792E+00
         21   -1    0    0  501  502  0.00000000000E+00  0.00000000000E+00  0.38680020922E+03  0.38680020922E+03  0.00000000000E+00 0.  1.
          1   -1    0    0  502    0 -0.00000000000E+00 -0.00000000000E+00 -0.13103638341E+03  0.13103638341E+03  0.00000000000E+00 0. -1.
         23    2    1    2    0    0  0.10220887519E+03  0.44340900800E+02 -0.41504124649E+02  0.15035024661E+03  0.92031704541E+02 0.  0.
        -24    2    1    2    0    0 -0.76291963508E+02 -0.81007234418E+02  0.11202321101E+03  0.17687753241E+03  0.79710889727E+02 0.  0.
         11    1    4    4    0    0 -0.34262935241E+02  0.83265565099E+01  0.14561956816E+02  0.38148798945E+02  0.00000000000E+00 0. -1.
        -12    1    4    4    0    0 -0.42029028267E+02 -0.89333790928E+02  0.97461254195E+02  0.13872873346E+03  0.00000000000E+00 0.  1.
        -13    1    3    3    0    0  0.90293618551E+02  0.18492609953E+02 -0.65541608111E+02  0.11309560808E+03  0.00000000000E+00 0. -1.
         13    1    3    3    0    0  0.11915256642E+02  0.25848290847E+02  0.24037483462E+02  0.37254638526E+02  0.00000000000E+00 0.  1.
          2    1    1    2  501    0 -0.25916911685E+02  0.36666333618E+02  0.18524473945E+03  0.19060881361E+03  0.00000000000E+00 0. -1.
<scales pt_clust_5="13000.00000" pt_clust_6="13000.00000" pt_clust_7="13000.00000" pt_clust_8="13000.00000" pt_clust_9="44.90107"></scales>
<clustering>
<clus scale="   44.901">  1  9  2 -1</clus>
<clus scale="   79.711">  5  6 -1 -1</clus>
<clus scale="   92.032">  7  8 -1 -1</clus>
<clus scale="  135.490">  1  5  2 -1</clus>
<clus scale="   44.901">  1  5  2 -1</clus>
</clustering>
</event>
<event>
 9    1  0.6296820E-005  0.1582243E+03  0.7546771E-02  0.1210282E+00
         21   -1    0    0  501  502  0.00000000000E+00  0.00000000000E+00  0.49058072464E+02  0.49058072464E+02  0.00000000000E+00 0.  1.
          1   -1    0    0  502    0 -0.00000000000E+00 -0.00000000000E+00 -0.12971976620E+04  0.12971976620E+04  0.00000000000E+00 0. -1.
         23    2    1    2    0    0 -0.30239473506E+02  0.36532802065E+02 -0.12248531091E+03  0.16034733867E+03  0.91975791628E+02 0.  0.
        -24    2    1    2    0    0 -0.12666249167E+03 -0.34938511696E+02 -0.23213694323E+03  0.27871822990E+03  0.80822056824E+02 0.  0.
         13    1    4    4    0    0 -0.88159809208E+02 -0.56396441129E+02 -0.19401406410E+03  0.22044084830E+03  0.00000000000E+00 0. -1.
        -14    1    4    4    0    0 -0.38502682466E+02  0.21457929433E+02 -0.38122879130E+02  0.58277381597E+02  0.00000000000E+00 0.  1.
        -13    1    3    3    0    0 -0.50982353875E+02 -0.70498404048E+01 -0.84439319944E+02  0.98888317859E+02  0.00000000000E+00 0.  1.
         13    1    3    3    0    0  0.20742880369E+02  0.43582642469E+02 -0.38045990965E+02  0.61459020812E+02  0.00000000000E+00 0. -1.
          2    1    1    2  501    0  0.15690196518E+03 -0.15942903688E+01 -0.89351733542E+03  0.90719016591E+03  0.00000000000E+00 0. -1.
<scales pt_clust_5="13000.00000" pt_clust_6="13000.00000" pt_clust_7="13000.00000" pt_clust_8="13000.00000" pt_clust_9="136.02475"></scales>
<clustering>
<clus scale="   80.822">  5  6 -1 -1</clus>
<clus scale="   91.976">  7  8 -1 -1</clus>
<clus scale="  103.483">  2  7  1 -1</clus>
<clus scale="  136.025">  1  9  2 -1</clus>
<clus scale="  136.025">  1  5  2 -1</clus>
</clustering>
</event>
<event>
 9    1  0.6296820E-005  0.9755601E+02  0.7546771E-02  0.1285737E+00
         21   -1    0    0  501  502  0.00000000000E+00  0.00000000000E+00  0.11686837368E+03  0.11686837368E+03  0.00000000000E+00 0. -1.
         -2   -1    0    0    0  501 -0.00000000000E+00 -0.00000000000E+00 -0.11524806710E+03  0.11524806710E+03  0.00000000000E+00 0.  1.
        -24    2    1    2    0    0 -0.17937246906E+02  0.10852319972E+01  0.10504896662E+02  0.94579140838E+02  0.92260167313E+02 0.  0.
         23    2    1    2    0    0  0.46454738649E+02  0.31445728188E+01  0.94019951318E+01  0.10339732655E+03  0.91840506007E+02 0.  0.
         13    1    3    3    0    0  0.32158545042E+02  0.22628568218E+02  0.18558200085E+01  0.39365825112E+02  0.00000000000E+00 0. -1.
        -14    1    3    3    0    0 -0.50095791948E+02 -0.21543336221E+02  0.86490766536E+01  0.55213315726E+02  0.00000000000E+00 0.  1.
        -11    1    4    4    0    0  0.46123305341E+02  0.33006497529E+02 -0.21283424972E+02  0.60578646017E+02  0.00000000000E+00 0.  1.
         11    1    4    4    0    0  0.33143330738E+00 -0.29861924711E+02  0.30685420103E+02  0.42818680531E+02  0.00000000000E+00 0. -1.
         -1    1    1    2    0  502 -0.28517491743E+02 -0.42298048160E+01 -0.18286585216E+02  0.34139973388E+02  0.00000000000E+00 0.  1.
<scales pt_clust_5="13000.00000" pt_clust_6="13000.00000" pt_clust_7="13000.00000" pt_clust_8="13000.00000" pt_clust_9="28.82949"></scales>
<clustering>
<clus scale="   28.829">  1  9  2 -1</clus>
<clus scale="   91.841">  7  8 -1 -1</clus>
<clus scale="   92.260">  5  6 -1 -1</clus>
<clus scale="   97.159">  1  7  2 -1</clus>
<clus scale="   28.829">  1  5  2 -1</clus>
</clustering>
</event>
<event>
 9    1  0.6296820E-005  0.9270665E+02  0.7546771E-02  0.1296951E+00
         21   -1    0    0  501  502  0.00000000000E+00  0.00000000000E+00  0.97541033264E+02  0.97541033264E+02  0.00000000000E+00 0. -1.
          1   -1    0    0  502    0 -0.00000000000E+00 -0.00000000000E+00 -0.24452366272E+03  0.24452366272E+03  0.00000000000E+00 0. -1.
         23    2    1    2    0    0 -0.37153594727E-01  0.17389910425E+02 -0.68683137779E+02  0.11491055823E+03  0.90469069926E+02 0.  0.
        -24    2    1    2    0    0  0.64612156163E+02  0.47871431869E+02 -0.94131620856E+01  0.11237478351E+03  0.77929966226E+02 0.  0.
         13    1    4    4    0    0  0.20023779883E+02  0.50134581777E+01  0.31902389525E+02  0.37998012858E+02  0.00000000000E+00 0. -1.
        -14    1    4    4    0    0  0.44588376280E+02  0.42857973692E+02 -0.41315551611E+02  0.74376770655E+02  0.00000000000E+00 0.  1.
        -13    1    3    3    0    0 -0.13987515276E+01  0.50201625186E+02 -0.64589198935E+02  0.81816406034E+02  0.00000000000E+00 0. -1.
         13    1    3    3    0    0  0.13615979329E+01 -0.32811714762E+02 -0.40939388441E+01  0.33094152199E+02  0.00000000000E+00 0.  1.
          2    1    1    2  501    0 -0.64575002568E+02 -0.65261342294E+02 -0.68886329592E+02  0.11477935424E+03  0.00000000000E+00 0. -1.
<scales pt_clust_5="13000.00000" pt_clust_6="13000.00000" pt_clust_7="13000.00000" pt_clust_8="13000.00000" pt_clust_9="91.80949"></scales>
<clustering>
<clus scale="   77.930">  5  6 -1 -1</clus>
<clus scale="   90.469">  7  8 -1 -1</clus>
<clus scale="   91.809">  1  9  2 -1</clus>
<clus scale="   91.809">  1  5  2 -1</clus>
<clus scale="   91.809">  1  5  2 -1</clus>
</clustering>
</event>
<event>
 9    1  0.6296820E-005  0.1662102E+03  0.7546771E-02  0.1183503E+00
          1   -1    0    0  502    0 -0.00000000000E+00  0.00000000000E+00  0.59237554113E+03  0.59237554113E+03  0.00000000000E+00 0. -1.
         21   -1    0    0  501  502  0.00000000000E+00 -0.00000000000E+00 -0.90599060352E+02  0.90599060352E+02  0.00000000000E+00 0.  1.
         23    2    1    2    0    0  0.14258838621E+02 -0.15255536384E+03  0.35174605561E+03  0.39448078206E+03  0.91724294825E+02 0.  0.
        -24    2    1    2    0    0  0.62831246993E+02  0.11337023697E+03  0.12840414957E+03  0.19935319308E+03  0.80333640125E+02 0.  0.
         11    1    4    4    0    0  0.41190196188E+02  0.10516503634E+03  0.13429100963E+03  0.17547191342E+03  0.00000000000E+00 0. -1.
        -12    1    4    4    0    0  0.21641050805E+02  0.82052006286E+01 -0.58868600548E+01  0.23881279668E+02  0.00000000000E+00 0.  1.
        -11    1    3    3    0    0 -0.29326610287E+02 -0.66853509977E+02  0.21698184075E+03  0.22893352984E+03  0.00000000000E+00 0. -1.
         11    1    3    3    0    0  0.43585448907E+02 -0.85701853862E+02  0.13476421486E+03  0.16554725222E+03  0.00000000000E+00 0.  1.
          2    1    1    2  501    0 -0.77090085613E+02  0.39185126871E+02  0.21626275589E+02  0.89140626336E+02  0.00000000000E+00 0. -1.
<scales pt_clust_5="13000.00000" pt_clust_6="13000.00000" pt_clust_7="13000.00000" pt_clust_8="13000.00000" pt_clust_9="86.47749"></scales>
<clustering>
<clus scale="   80.334">  5  6 -1 -1</clus>
<clus scale="   86.477">  2  9  1 -1</clus>
<clus scale="   91.724">  7  8 -1 -1</clus>
<clus scale="  160.206">  2  5  1 -1</clus>
<clus scale="   86.477">  2  5  1 -1</clus>
</clustering>
</event>
<event>
 9    1  0.6296820E-005  0.2819111E+03  0.7546771E-02  0.1129635E+00
         21   -1    0    0  501  502  0.00000000000E+00  0.00000000000E+00  0.18779193715E+03  0.18779193715E+03  0.00000000000E+00 0. -1.
          1   -1    0    0  502    0 -0.00000000000E+00 -0.00000000000E+00 -0.65848839404E+03  0.65848839404E+03  0.00000000000E+00 0. -1.
         23    2    1    2    0    0  0.52506389667E+02 -0.49791561250E+02 -0.19070808436E+03  0.22322452425E+03  0.90683483954E+02 0.  0.
        -24    2    1    2    0    0  0.21925544803E+03  0.13673445903E+03 -0.14800472022E+03  0.30867824988E+03  0.81287151268E+02 0.  0.
         13    1    4    4    0    0  0.91747729300E+02  0.17222514091E+02 -0.72989476360E+02  0.11849778261E+03  0.00000000000E+00 0. -1.
        -14    1    4    4    0    0  0.12750771873E+03  0.11951194494E+03 -0.75015243858E+02  0.19018046727E+03  0.00000000000E+00 0.  1.
        -13    1    3    3    0    0  0.67071334280E+02 -0.48157167064E+01 -0.93954207081E+02  0.11553851322E+03  0.00000000000E+00 0. -1.
         13    1    3    3    0    0 -0.14564944613E+02 -0.44975844544E+02 -0.96753877275E+02  0.10768601103E+03  0.00000000000E+00 0.  1.
          2    1    1    2  501    0 -0.27176183770E+03 -0.86942897782E+02 -0.13198365232E+03  0.31437755706E+03  0.00000000000E+00 0. -1.
<scales pt_clust_5="13000.00000" pt_clust_6="13000.00000" pt_clust_7="13000.00000" pt_clust_8="13000.00000" pt_clust_9="269.93762"></scales>
<clustering>
<clus scale="   81.287">  5  6 -1 -1</clus>
<clus scale="   90.683">  7  8 -1 -1</clus>
<clus scale="  116.016">  2  7  1 -1</clus>
<clus scale="  269.938">  1  9  2 -1</clus>
<clus scale="  269.938">  1  5  2 -1</clus>
</clustering>
</event>
<event>
 9    1  0.6296820E-005  0.9986718E+02  0.7546771E-02  0.1285120E+00
         21   -1    0    0  501  502  0.00000000000E+00  0.00000000000E+00  0.70484535846E+03  0.70484535846E+03  0.00000000000E+00 0. -1.
         -2   -1    0    0    0  501 -0.00000000000E+00 -0.00000000000E+00 -0.28718731976E+02  0.28718731976E+02  0.00000000000E+00 0.  1.
        -24    2    1    2    0    0  0.34816015198E+01 -0.55656081830E+02  0.10435155628E+03  0.14288423973E+03  0.80105790511E+02 0.  0.
         23    2    1    2    0    0  0.26812135931E+02  0.10600466375E+02  0.36033511427E+03  0.37238057453E+03  0.89412735030E+02 0.  0.
         13    1    3    3    0    0 -0.24917479353E+02 -0.20242488952E+01  0.67270122613E+02  0.71765226658E+02  0.00000000000E+00 0. -1.
        -14    1    3    3    0    0  0.28399080873E+02 -0.53631832935E+02  0.37081433662E+02  0.71119013076E+02  0.00000000000E+00 0.  1.
        -11    1    4    4    0    0 -0.62431412228E+01  0.42039282086E+02  0.23907761836E+03  0.24282583399E+03  0.00000000000E+00 0.  1.
         11    1    4    4    0    0  0.33055277154E+02 -0.31438815711E+02  0.12125749591E+03  0.12955474054E+03  0.00000000000E+00 0. -1.
         -1    1    1    2    0  502 -0.30293737451E+02  0.45055615455E+02  0.21143995593E+03  0.21829927617E+03  0.00000000000E+00 0.  1.
<scales pt_clust_5="13000.00000" pt_clust_6="13000.00000" pt_clust_7="13000.00000" pt_clust_8="13000.00000" pt_clust_9="54.29290"></scales>
<clustering>
<clus scale="   54.293">  1  9  2 -1</clus>
<clus scale="   80.106">  5  6 -1 -1</clus>
<clus scale="   89.413">  7  8 -1 -1</clus>
<clus scale="   91.628">  2  5  1 -1</clus>
<clus scale="   54.293">  1  5  2 -1</clus>
</clustering>
</event>
<event>
 9    1  0.6296820E-005  0.3796164E+03  0.7546771E-02  0.1051336E+00
          1   -1    0    0  502    0 -0.00000000000E+00  0.00000000000E+00  0.13131057678E+04  0.13131057678E+04  0.00000000000E+00 0. -1.
         21   -1    0    0  501  502  0.00000000000E+00 -0.00000000000E+00 -0.19040161141E+03  0.19040161141E+03  0.00000000000E+00 0. -1.
        -24    2    1    2    0    0  0.35936735605E+03  0.12514677307E+03  0.96980153546E+03  0.10454465598E+04  0.87389243180E+02 0.  0.
         23    2    1    2    0    0 -0.30809524601E+03 -0.14394711275E+03  0.18553862613E+03  0.39444171169E+03  0.74271328566E+02 0.  0.
         11    1    3    3    0    0  0.25492810545E+03  0.46553997612E+02  0.61706864616E+03  0.66927522568E+03  0.00000000000E+00 0. -1.
        -12    1    3    3    0    0  0.10443925061E+03  0.78592775458E+02  0.35273288930E+03  0.37617133412E+03  0.00000000000E+00 0.  1.
        -11    1    4    4    0    0 -0.85993438432E+02 -0.14233582833E+02  0.72993908591E+02  0.11369070773E+03  0.00000000000E+00 0.  1.
         11    1    4    4    0    0 -0.22210180758E+03 -0.12971352992E+03  0.11254471754E+03  0.28075100395E+03  0.00000000000E+00 0. -1.
          2    1    1    2  501    0 -0.51272110043E+02  0.18800339683E+02 -0.32636005156E+02  0.63619107767E+02  0.00000000000E+00 0. -1.
<scales pt_clust_5="13000.00000" pt_clust_6="13000.00000" pt_clust_7="13000.00000" pt_clust_8="13000.00000" pt_clust_9="54.61027"></scales>
<clustering>
<clus scale="   54.610">  2  9  1 -1</clus>
<clus scale="   74.271">  7  8 -1 -1</clus>
<clus scale="   87.389">  5  6 -1 -1</clus>
<clus scale="  376.813">  2  7  1 -1</clus>
<clus scale="   54.610">  2  5  1 -1</clus>
</clustering>
</event>
<event>
 9    1  0.6296820E-005  0.9748889E+02  0.7546771E-02  0.1289376E+00
         21   -1    0    0  501  502  0.00000000000E+00  0.00000000000E+00  0.63928892392E+02  0.63928892392E+02  0.00000000000E+00 0. -1.
         -2   -1    0    0    0  501 -0.00000000000E+00 -0.00000000000E+00 -0.51252590927E+03  0.51252590927E+03  0.00000000000E+00 0.  1.
        -24    2    1    2    0    0 -0.96174711317E+01  0.20163834289E+02 -0.35798781947E+03  0.36889016398E+03  0.86171910898E+02 0.  0.
         23    2    1    2    0    0 -0.89313899270E+01 -0.65304555584E+02 -0.10669644623E+03  0.15617840860E+03  0.93075823757E+02 0.  0.
         11    1    3    3    0    0  0.44116437118E+00 -0.31726340656E+02 -0.82780693282E+02  0.88653248659E+02  0.00000000000E+00 0. -1.
        -12    1    3    3    0    0 -0.10058635503E+02  0.51890174946E+02 -0.27520712618E+03  0.28023691532E+03  0.00000000000E+00 0.  1.
        -11    1    4    4    0    0 -0.33785739676E+02 -0.18128234471E+02 -0.93777069630E+02  0.10131262448E+03  0.00000000000E+00 0. -1.
         11    1    4    4    0    0  0.24854349749E+02 -0.47176321113E+02 -0.12919376601E+02  0.54865784119E+02  0.00000000000E+00 0.  1.
         -1    1    1    2    0  502  0.18548861059E+02  0.45140721295E+02  0.16087248816E+02  0.51386229090E+02  0.00000000000E+00 0.  1.
<scales pt_clust_5="13000.00000" pt_clust_6="13000.00000" pt_clust_7="13000.00000" pt_clust_8="13000.00000" pt_clust_9="48.80312"></scales>
<clustering>
<clus scale="   48.803">  1  9  2 -1</clus>
<clus scale="   86.172">  5  6 -1 -1</clus>
<clus scale="   90.921">  2  5  1 -1</clus>
<clus scale="   93.076">  7  8 -1 -1</clus>
<clus scale="   48.803">  1  5  2 -1</clus>
</clustering>
</event>
<event>
 9    1  0.6296820E-005  0.2632123E+03  0.7546771E-02  0.1105633E+00
          1   -1    0    0  502    0 -0.00000000000E+00  0.00000000000E+00  0.81265215451E+03  0.81265215451E+03  0.00000000000E+00 0. -1.
         21   -1    0    0  501  502  0.00000000000E+00 -0.00000000000E+00 -0.13789731214E+03  0.13789731214E+03  0.00000000000E+00 0. -1.
        -24    2    1    2    0    0  0.26087441861E+03  0.89779014725E+01  0.51680738641E+03  0.58454752541E+03  0.80435500931E+02 0.  0.
         23    2    1    2    0    0 -0.21131113706E+03 -0.80544832844E+02  0.11152462954E+03  0.26734382775E+03  0.88854445585E+02 0.  0.
         13    1    3    3    0    0  0.26268590725E+03  0.84473238765E+00  0.48391695262E+03  0.55061803137E+03  0.00000000000E+00 0. -1.
        -14    1    3    3    0    0 -0.18114886374E+01  0.81331690849E+01  0.32890433793E+02  0.33929494036E+02  0.00000000000E+00 0.  1.
        -11    1    4    4    0    0 -0.47288489642E+02 -0.18197544043E+02 -0.12838056815E+02  0.52270140277E+02  0.00000000000E+00 0.  1.
         11    1    4    4    0    0 -0.16402264742E+03 -0.62347288800E+02  0.12436268636E+03  0.21507368748E+03  0.00000000000E+00 0. -1.
          2    1    1    2  501    0 -0.49563281553E+02  0.71566931371E+02  0.46422826408E+02  0.98658113483E+02  0.00000000000E+00 0. -1.
<scales pt_clust_5="13000.00000" pt_clust_6="13000.00000" pt_clust_7="13000.00000" pt_clust_8="13000.00000" pt_clust_9="87.05369"></scales>
<clustering>
<clus scale="   80.436">  5  6 -1 -1</clus>
<clus scale="   87.054">  2  9  1 -1</clus>
<clus scale="   88.854">  7  8 -1 -1</clus>
<clus scale="  260.491">  1  5  2 -1</clus>
<clus scale="   87.054">  2  5  1 -1</clus>
</clustering>
</event>
<event>
 9    1  0.6296820E-005  0.1124978E+03  0.7546771E-02  0.1260521E+00
         21   -1    0    0  501  502  0.00000000000E+00  0.00000000000E+00  0.13735612914E+03  0.13735612914E+03  0.00000000000E+00 0. -1.
         -2   -1    0    0    0  501 -0.00000000000E+00 -0.00000000000E+00 -0.24261874822E+03  0.24261874822E+03  0.00000000000E+00 0.  1.
         23    2    1    2    0    0  0.51156637699E+02 -0.60213612190E+02 -0.16583691711E+03  0.20525415663E+03  0.91568035178E+02 0.  0.
        -24    2    1    2    0    0 -0.38004736414E+02 -0.12766368839E+02  0.40890252707E+02  0.97997114328E+02  0.79524093751E+02 0.  0.
         13    1    4    4    0    0 -0.38878396087E+02 -0.33939143840E+02  0.52680586982E+02  0.73747131549E+02  0.00000000000E+00 0. -1.
        -14    1    4    4    0    0  0.87365967319E+00  0.21172775001E+02 -0.11790334275E+02  0.24249982779E+02  0.00000000000E+00 0.  1.
        -11    1    3    3    0    0 -0.45309078833E+01 -0.53193890516E+02 -0.37678504376E+02  0.65343621008E+02  0.00000000000E+00 0.  1.
         11    1    3    3    0    0  0.55687545583E+02 -0.70197216743E+01 -0.12815841273E+03  0.13991053563E+03  0.00000000000E+00 0. -1.
         -1    1    1    2    0  502 -0.13151901285E+02  0.72979981029E+02  0.19684045324E+02  0.76723606398E+02  0.00000000000E+00 0.  1.
<scales pt_clust_5="13000.00000" pt_clust_6="13000.00000" pt_clust_7="13000.00000" pt_clust_8="13000.00000" pt_clust_9="74.15558"></scales>
<clustering>
<clus scale="   74.156">  1  9  2 -1</clus>
<clus scale="   79.524">  5  6 -1 -1</clus>
<clus scale="   91.568">  7  8 -1 -1</clus>
<clus scale="  102.933">  1  5  2 -1</clus>
<clus scale="   74.156">  1  5  2 -1</clus>
</clustering>
</event>
<event>
 9    1  0.6296820E-005  0.8920288E+02  0.7546771E-02  0.1306955E+00
          3   -1    0    0  502    0 -0.00000000000E+00  0.00000000000E+00  0.26565562721E+03  0.26565562721E+03  0.00000000000E+00 0. -1.
         21   -1    0    0  501  502  0.00000000000E+00 -0.00000000000E+00 -0.48050613212E+02  0.48050613212E+02  0.00000000000E+00 0. -1.
        -24    2    1    2    0    0  0.18565763759E+02 -0.29072604434E+02  0.89625396098E+02  0.12680439536E+03  0.82805429431E+02 0.  0.
         23    2    1    2    0    0 -0.22663101337E+02 -0.14881347576E+02  0.72382769990E+02  0.11591066554E+03  0.86376769604E+02 0.  0.
         11    1    3    3    0    0 -0.25082793501E+02 -0.73248472340E+01  0.69134499238E+02  0.73907908249E+02  0.00000000000E+00 0. -1.
        -12    1    3    3    0    0  0.43648557260E+02 -0.21747757200E+02  0.20490896860E+02  0.52896487107E+02  0.00000000000E+00 0.  1.
        -11    1    4    4    0    0 -0.86171313667E+01 -0.44658722610E+02  0.11845754774E+02  0.46999769833E+02  0.00000000000E+00 0. -1.
         11    1    4    4    0    0 -0.14045969970E+02  0.29777375034E+02  0.60537015215E+02  0.68910895710E+02  0.00000000000E+00 0.  1.
          4    1    1    2  501    0  0.40973375779E+01  0.43953952010E+02  0.55596847907E+02  0.70991179520E+02  0.00000000000E+00 0. -1.
<scales pt_clust_5="13000.00000" pt_clust_6="13000.00000" pt_clust_7="13000.00000" pt_clust_8="13000.00000" pt_clust_9="44.14454"></scales>
<clustering>
<clus scale="   44.145">  2  9  1 -1</clus>
<clus scale="   82.805">  5  6 -1 -1</clus>
<clus scale="   85.749">  1  5  2 -1</clus>
<clus scale="   86.377">  7  8 -1 -1</clus>
<clus scale="   44.145">  2  5  1 -1</clus>
</clustering>
</event>
<event>
 9    1  0.6296820E-005  0.1206394E+03  0.7546771E-02  0.1245070E+00
          1   -1    0    0  502    0 -0.00000000000E+00  0.00000000000E+00  0.89968939488E+03  0.89968939488E+03  0.00000000000E+00 0. -1.
         21   -1    0    0  501  502  0.00000000000E+00 -0.00000000000E+00 -0.84989346951E+02  0.84989346951E+02  0.00000000000E+00 0. -1.
        -24    2    1    2    0    0  0.76813240390E+02 -0.66784212510E+01  0.64916536144E+03  0.65857601923E+03  0.79761089494E+02 0.  0.
         23    2    1    2    0    0 -0.91211794462E+02  0.34506480429E+02  0.22373451399E+03  0.26000477136E+03  0.89638494749E+02 0.  0.
         13    1    3    3    0    0 -0.29051768022E+01 -0.24016368511E+02  0.79517738078E+02  0.83116163757E+02  0.00000000000E+00 0. -1.
        -14    1    3    3    0    0  0.79718417192E+02  0.17337947259E+02  0.56964762336E+03  0.57545985547E+03  0.00000000000E+00 0.  1.
        -11    1    4    4    0    0  0.12076435587E+02  0.22485251803E+02  0.25095012640E+02  0.35793665704E+02  0.00000000000E+00 0.  1.
         11    1    4    4    0    0 -0.10328823005E+03  0.12021228626E+02  0.19863950135E+03  0.22421110566E+03  0.00000000000E+00 0. -1.
          2    1    1    2  501    0  0.14398554072E+02 -0.27828059178E+02 -0.58199827501E+02  0.66097951241E+02  0.00000000000E+00 0. -1.
<scales pt_clust_5="13000.00000" pt_clust_6="13000.00000" pt_clust_7="13000.00000" pt_clust_8="13000.00000" pt_clust_9="31.33240"></scales>
<clustering>
<clus scale="   31.332">  2  9  1 -1</clus>
<clus scale="   79.761">  5  6 -1 -1</clus>
<clus scale="   89.638">  7  8 -1 -1</clus>
<clus scale="  113.493">  1  5  2 -1</clus>
<clus scale="   31.332">  2  5  1 -1</clus>
</clustering>
</event>
<event>
 9    1  0.6296820E-005  0.1589231E+03  0.7546771E-02  0.1192942E+00
         21   -1    0    0  501  502  0.00000000000E+00  0.00000000000E+00  0.31868387814E+02  0.31868387814E+02  0.00000000000E+00 0.  1.
          1   -1    0    0  502    0 -0.00000000000E+00 -0.00000000000E+00 -0.12156417543E+04  0.12156417543E+04  0.00000000000E+00 0. -1.
        -24    2    1    2    0    0 -0.75711362961E+02  0.95975836113E+02 -0.60403949868E+03  0.62549840970E+03  0.10696248394E+03 0.  0.
         23    2    1    2    0    0  0.14070080211E+02 -0.12055702383E+03 -0.32334946832E+03  0.35717811894E+03  0.91045959989E+02 0.  0.
         11    1    3    3    0    0 -0.78684772351E+02  0.51440730392E+02 -0.53562065528E+03  0.54380780475E+03  0.00000000000E+00 0. -1.
        -12    1    3    3    0    0  0.29734093908E+01  0.44535105721E+02 -0.68418843401E+02  0.81690604951E+02  0.00000000000E+00 0.  1.
        -13    1    4    4    0    0 -0.34216788522E+01 -0.36718625155E+02 -0.21946703559E+03  0.22254380474E+03  0.00000000000E+00 0. -1.
         13    1    4    4    0    0  0.17491759063E+02 -0.83838398676E+02 -0.10388243274E+03  0.13463431419E+03  0.00000000000E+00 0.  1.
          2    1    1    2  501    0  0.61641282750E+02  0.24581187719E+02 -0.25638439944E+03  0.26483361344E+03  0.00000000000E+00 0. -1.
<scales pt_clust_5="13000.00000" pt_clust_6="13000.00000" pt_clust_7="13000.00000" pt_clust_8="13000.00000" pt_clust_9="66.36179"></scales>
<clustering>
<clus scale="   66.362">  1  9  2 -1</clus>
<clus scale="   91.046">  7  8 -1 -1</clus>
<clus scale="  106.962">  5  6 -1 -1</clus>
<clus scale="  148.677">  1  7  2 -1</clus>
<clus scale="   66.362">  1  5  2 -1</clus>
</clustering>
</event>
<event>
 9    1  0.6296820E-005  0.1160664E+03  0.7546771E-02  0.1253261E+00
         21   -1    0    0  501  502  0.00000000000E+00  0.00000000000E+00  0.58603687333E+02  0.58603687333E+02  0.00000000000E+00 0. -1.
          1   -1    0    0  502    0 -0.00000000000E+00 -0.00000000000E+00 -0.51537712162E+03  0.51537712162E+03  0.00000000000E+00 0. -1.
         23    2    1    2    0    0 -0.23216354286E+02  0.73030577659E+02 -0.41260670872E+03  0.42934155539E+03  0.90649935049E+02 0.  0.
        -24    2    1    2    0    0 -0.10744315456E+02 -0.60152065802E+02 -0.37831294430E+02  0.10777028498E+03  0.80308879654E+02 0.  0.
         11    1    4    4    0    0 -0.28705544712E+02 -0.18785797446E+01 -0.36894987286E+02  0.46784371812E+02  0.00000000000E+00 0. -1.
        -12    1    4    4    0    0  0.17961229256E+02 -0.58273486057E+02 -0.93630714405E+00  0.60985913166E+02  0.00000000000E+00 0.  1.
        -13    1    3    3    0    0 -0.38541232524E+02  0.31394026100E+00 -0.83756380977E+02  0.92199004970E+02  0.00000000000E+00 0.  1.
         13    1    3    3    0    0  0.15324878238E+02  0.72716637398E+02 -0.32885032774E+03  0.33714255042E+03  0.00000000000E+00 0. -1.
          2    1    1    2  501    0  0.33960669741E+02 -0.12878511857E+02 -0.63354311382E+01  0.36868968587E+02  0.00000000000E+00 0. -1.
<scales pt_clust_5="13000.00000" pt_clust_6="13000.00000" pt_clust_7="13000.00000" pt_clust_8="13000.00000" pt_clust_9="36.32056"></scales>
<clustering>
<clus scale="   36.321">  1  9  2 -1</clus>
<clus scale="   80.309">  5  6 -1 -1</clus>
<clus scale="   90.650">  7  8 -1 -1</clus>
<clus scale="  108.183">  1  5  2 -1</clus>
<clus scale="   36.321">  1  5  2 -1</clus>
</clustering>
</event>
<event>
 9    1  0.6296820E-005  0.9806679E+02  0.7546771E-02  0.1289316E+00
         21   -1    0    0  501  502  0.00000000000E+00  0.00000000000E+00  0.36680083571E+03  0.36680083571E+03  0.00000000000E+00 0. -1.
          3   -1    0    0  502    0 -0.00000000000E+00 -0.00000000000E+00 -0.21348064544E+03  0.21348064544E+03  0.00000000000E+00 0. -1.
         23    2    1    2    0    0  0.13441401679E+02  0.37929915303E+02 -0.18931320484E+03  0.21361426054E+03  0.90400293284E+02 0.  0.
        -24    2    1    2    0    0 -0.38844337560E+01 -0.92017710111E+01  0.14193381531E+03  0.16369686996E+03  0.80942546865E+02 0.  0.
         13    1    4    4    0    0 -0.29229456696E+02  0.24778782763E+02  0.55717324510E+02  0.67622255689E+02  0.00000000000E+00 0. -1.
        -14    1    4    4    0    0  0.25345022940E+02 -0.33980553774E+02  0.86216490797E+02  0.96074614274E+02  0.00000000000E+00 0.  1.
        -13    1    3    3    0    0 -0.21009193095E+02  0.40653446537E+02 -0.41372710347E+02  0.61691085833E+02  0.00000000000E+00 0.  1.
         13    1    3    3    0    0  0.34450594774E+02 -0.27235312339E+01 -0.14794049449E+03  0.15192317471E+03  0.00000000000E+00 0. -1.
          4    1    1    2  501    0 -0.95569679230E+01 -0.28728144292E+02  0.20069957980E+03  0.20297035065E+03  0.00000000000E+00 0. -1.
<scales pt_clust_5="13000.00000" pt_clust_6="13000.00000" pt_clust_7="13000.00000" pt_clust_8="13000.00000" pt_clust_9="30.27609"></scales>
<clustering>
<clus scale="   30.276">  1  9  2 -1</clus>
<clus scale="   80.943">  5  6 -1 -1</clus>
<clus scale="   89.424">  1  5  2 -1</clus>
<clus scale="   90.400">  7  8 -1 -1</clus>
<clus scale="   30.276">  1  5  2 -1</clus>
</clustering>
</event>
<event>
 9    1  0.6296820E-005  0.1911414E+03  0.7546771E-02  0.1191859E+00
          1   -1    0    0  502    0 -0.00000000000E+00  0.00000000000E+00  0.14705445477E+04  0.14705445477E+04  0.00000000000E+00 0. -1.
         21   -1    0    0  501  502  0.00000000000E+00 -0.00000000000E+00 -0.53829501906E+02  0.53829501906E+02  0.00000000000E+00 0. -1.
        -24    2    1    2    0    0  0.24716918071E+02 -0.31991166247E+02  0.46238358552E+02  0.98979585134E+02  0.77618372277E+02 0.  0.
         23    2    1    2    0    0  0.81254981074E+02 -0.13125305564E+03  0.44822436846E+03  0.48282984658E+03  0.91596068196E+02 0.  0.
         11    1    3    3    0    0 -0.24392791567E+02 -0.24551419673E+02  0.61520768890E+01  0.35151508338E+02  0.00000000000E+00 0. -1.
        -12    1    3    3    0    0  0.49109709639E+02 -0.74397465745E+01  0.40086281663E+02  0.63828076796E+02  0.00000000000E+00 0.  1.
        -11    1    4    4    0    0  0.44331232804E+02 -0.14235003357E+01  0.12002791156E+03  0.12796086944E+03  0.00000000000E+00 0.  1.
         11    1    4    4    0    0  0.36923748270E+02 -0.12982955531E+03  0.32819645690E+03  0.35486897714E+03  0.00000000000E+00 0. -1.
          2    1    1    2  501    0 -0.10597189915E+03  0.16324422189E+03  0.92225231878E+03  0.94256461788E+03  0.00000000000E+00 0. -1.
<scales pt_clust_5="13000.00000" pt_clust_6="13000.00000" pt_clust_7="13000.00000" pt_clust_8="13000.00000" pt_clust_9="167.76533"></scales>
<clustering>
<clus scale="   77.618">  5  6 -1 -1</clus>
<clus scale="   87.516">  1  5  2 -1</clus>
<clus scale="   91.596">  7  8 -1 -1</clus>
<clus scale="  167.765">  2  9  1 -1</clus>
<clus scale="  167.765">  2  5  1 -1</clus>
</clustering>
</event>
<event>
 9    1  0.6296820E-005  0.2638668E+03  0.7546771E-02  0.1140599E+00
         21   -1    0    0  501  502  0.00000000000E+00  0.00000000000E+00  0.16114666554E+03  0.16114666554E+03  0.00000000000E+00 0. -1.
          1   -1    0    0  502    0 -0.00000000000E+00 -0.00000000000E+00 -0.80648694614E+03  0.80648694614E+03  0.00000000000E+00 0. -1.
        -24    2    1    2    0    0  0.40782838809E+02 -0.23812097717E+01  0.32601741124E+02  0.11315062234E+03  0.10035576571E+03 0.  0.
         23    2    1    2    0    0  0.16523190004E+03 -0.15736509091E+03 -0.42617508761E+03  0.49206397450E+03  0.91849861559E+02 0.  0.
         13    1    3    3    0    0  0.20060785817E+02 -0.39570433968E+02  0.50278768782E+02  0.67053776644E+02  0.00000000000E+00 0. -1.
        -14    1    3    3    0    0  0.20722052991E+02  0.37189224196E+02 -0.17677027658E+02  0.46096845698E+02  0.00000000000E+00 0.  1.
        -11    1    4    4    0    0  0.28102696949E+02 -0.34173094891E+02 -0.25618452776E+02  0.51125992537E+02  0.00000000000E+00 0.  1.
         11    1    4    4    0    0  0.13712920309E+03 -0.12319199602E+03 -0.40055663484E+03  0.44093798196E+03  0.00000000000E+00 0. -1.
          2    1    1    2  501    0 -0.20601473885E+03  0.15974630068E+03 -0.25176693411E+03  0.36241901484E+03  0.00000000000E+00 0. -1.
<scales pt_clust_5="13000.00000" pt_clust_6="13000.00000" pt_clust_7="13000.00000" pt_clust_8="13000.00000" pt_clust_9="247.36471"></scales>
<clustering>
<clus scale="   91.850">  7  8 -1 -1</clus>
<clus scale="  100.356">  5  6 -1 -1</clus>
<clus scale="  108.352">  2  5  1 -1</clus>
<clus scale="  247.365">  1  9  2 -1</clus>
<clus scale="  247.365">  1  5  2 -1</clus>
</clustering>
</event>
<event>
 9    1  0.6296820E-005  0.1002548E+03  0.7546771E-02  0.1289536E+00
         21   -1    0    0  501  502  0.00000000000E+00  0.00000000000E+00  0.12799839035E+03  0.12799839035E+03  0.00000000000E+00 0. -1.
          1   -1    0    0  502    0 -0.00000000000E+00 -0.00000000000E+00 -0.20740147804E+03  0.20740147804E+03  0.00000000000E+00 0. -1.
         23    2    1    2    0    0  0.96110300659E+01  0.20014822448E+02 -0.14511223070E+03  0.17637345637E+03  0.97760276174E+02 0.  0.
        -24    2    1    2    0    0 -0.26720076768E+02 -0.89811409755E+01 -0.51594790782E+01  0.85291595251E+02  0.80333135133E+02 0.  0.
         13    1    4    4    0    0  0.67554679592E+01  0.31684340884E+02 -0.36127455738E+01  0.32597327117E+02  0.00000000000E+00 0. -1.
        -14    1    4    4    0    0 -0.33475544727E+02 -0.40665481859E+02 -0.15467335044E+01  0.52694268134E+02  0.00000000000E+00 0.  1.
        -13    1    3    3    0    0 -0.42899773657E+02  0.20605161696E+02 -0.64277329805E+02  0.79978362044E+02  0.00000000000E+00 0.  1.
         13    1    3    3    0    0  0.52510803723E+02 -0.59033924834E+00 -0.80834900896E+02  0.96395094330E+02  0.00000000000E+00 0. -1.
          2    1    1    2  501    0  0.17109046702E+02 -0.11033681472E+02  0.70868622091E+02  0.73734816762E+02  0.00000000000E+00 0. -1.
<scales pt_clust_5="13000.00000" pt_clust_6="13000.00000" pt_clust_7="13000.00000" pt_clust_8="13000.00000" pt_clust_9="20.35833"></scales>
<clustering>
<clus scale="   20.358">  1  9  2 -1</clus>
<clus scale="   80.333">  5  6 -1 -1</clus>
<clus scale="   83.351">  1  5  2 -1</clus>
<clus scale="   97.760">  7  8 -1 -1</clus>
<clus scale="   20.358">  1  5  2 -1</clus>
</clustering>
</event>
<event>
 9    1  0.6296820E-005  0.9794056E+02  0.7546771E-02  0.1295911E+00
         -4   -1    0    0    0  501 -0.00000000000E+00  0.00000000000E+00  0.16015675261E+03  0.16015675261E+03  0.00000000000E+00 0.  1.
         21   -1    0    0  501  502  0.00000000000E+00 -0.00000000000E+00 -0.18544619357E+03  0.18544619357E+03  0.00000000000E+00 0.  1.
        -24    2    1    2    0    0 -0.11133660048E+02 -0.37690654385E+02  0.11512671983E+03  0.14077471208E+03  0.70843589175E+02 0.  0.
         23    2    1    2    0    0 -0.44893075202E+01  0.18422498212E+02 -0.39905119642E+02  0.10130138565E+03  0.91159255366E+02 0.  0.
         11    1    3    3    0    0 -0.29963994124E+02 -0.12951218246E+02  0.14986071445E+02  0.35918760213E+02  0.00000000000E+00 0. -1.
        -12    1    3    3    0    0  0.18830334076E+02 -0.24739436139E+02  0.10014064839E+03  0.10485595187E+03  0.00000000000E+00 0.  1.
        -11    1    4    4    0    0  0.30077499074E+02 -0.23915489159E+02 -0.15275500215E+02  0.41351511207E+02  0.00000000000E+00 0.  1.
         11    1    4    4    0    0 -0.34566806594E+02  0.42337987371E+02 -0.24629619427E+02  0.59949874444E+02  0.00000000000E+00 0. -1.
         -3    1    1    2    0  502  0.15622967568E+02  0.19268156174E+02 -0.10051104115E+03  0.10352684845E+03  0.00000000000E+00 0.  1.
<scales pt_clust_5="13000.00000" pt_clust_6="13000.00000" pt_clust_7="13000.00000" pt_clust_8="13000.00000" pt_clust_9="24.80603"></scales>
<clustering>
<clus scale="   24.806">  2  9  1 -1</clus>
<clus scale="   70.844">  5  6 -1 -1</clus>
<clus scale="   79.380">  1  5  2 -1</clus>
<clus scale="   91.159">  7  8 -1 -1</clus>
<clus scale="   24.806">  2  5  1 -1</clus>
</clustering>
</event>
<event>
 9    1  0.6296820E-005  0.1406726E+03  0.7546771E-02  0.1214917E+00
          1   -1    0    0  502    0 -0.00000000000E+00  0.00000000000E+00  0.60895499254E+03  0.60895499254E+03  0.00000000000E+00 0. -1.
         21   -1    0    0  501  502  0.00000000000E+00 -0.00000000000E+00 -0.51447786667E+02  0.51447786667E+02  0.00000000000E+00 0.  1.
        -24    2    1    2    0    0 -0.79183527336E+01  0.10116162611E+03  0.39635945096E+03  0.41704776878E+03  0.80818637514E+02 0.  0.
         23    2    1    2    0    0 -0.10654916998E+02 -0.12176655587E+03  0.14668819067E+03  0.21207229192E+03  0.92285482790E+02 0.  0.
         11    1    3    3    0    0  0.30720099307E+02  0.79921222284E+02  0.25928008750E+03  0.27305180835E+03  0.00000000000E+00 0. -1.
        -12    1    3    3    0    0 -0.38638452041E+02  0.21240403822E+02  0.13707936347E+03  0.14399596043E+03  0.00000000000E+00 0.  1.
        -11    1    4    4    0    0 -0.33759779146E+02 -0.97116157832E+02  0.14563291567E+03  0.17827006739E+03  0.00000000000E+00 0. -1.
         11    1    4    4    0    0  0.23104862148E+02 -0.24650398039E+02  0.10552750062E+01  0.33802224537E+02  0.00000000000E+00 0.  1.
          2    1    1    2  501    0  0.18573269731E+02  0.20604929764E+02  0.14459564237E+02  0.31282718504E+02  0.00000000000E+00 0. -1.
<scales pt_clust_5="13000.00000" pt_clust_6="13000.00000" pt_clust_7="13000.00000" pt_clust_8="13000.00000" pt_clust_9="27.74039"></scales>
<clustering>
<clus scale="   27.740">  2  9  1 -1</clus>
<clus scale="   80.819">  5  6 -1 -1</clus>
<clus scale="   92.285">  7  8 -1 -1</clus>
<clus scale="  133.431">  1  5  2 -1</clus>
<clus scale="   27.740">  2  5  1 -1</clus>
</clustering>
</event>
<event>
 9    1  0.6296820E-005  0.1073524E+03  0.7546771E-02  0.1268899E+00
          1   -1    0    0  502    0 -0.00000000000E+00  0.00000000000E+00  0.91027707801E+03  0.91027707801E+03  0.00000000000E+00 0. -1.
         21   -1    0    0  501  502  0.00000000000E+00 -0.00000000000E+00 -0.21223290532E+02  0.21223290532E+02  0.00000000000E+00 0. -1.
        -24    2    1    2    0    0  0.32318569100E+02 -0.72150728092E+02  0.39487570002E+03  0.41082701320E+03  0.81251454393E+02 0.  0.
         23    2    1    2    0    0 -0.33189250109E+02  0.18855939618E+02  0.20867277674E+03  0.23023510887E+03  0.89480751116E+02 0.  0.
         11    1    3    3    0    0  0.42585177065E+02 -0.23029517586E+02  0.93385325667E+02  0.10518875908E+03  0.00000000000E+00 0. -1.
        -12    1    3    3    0    0 -0.10266607965E+02 -0.49121210506E+02  0.30149037435E+03  0.30563825413E+03  0.00000000000E+00 0.  1.
        -11    1    4    4    0    0 -0.46794993700E+02 -0.14639494379E+02  0.61323153975E+02  0.78515065080E+02  0.00000000000E+00 0. -1.
         11    1    4    4    0    0  0.13605743591E+02  0.33495433997E+02  0.14734962276E+03  0.15172004379E+03  0.00000000000E+00 0.  1.
          2    1    1    2  501    0  0.87068100894E+00  0.53294788474E+02  0.28550531072E+03  0.29043824647E+03  0.00000000000E+00 0. -1.
<scales pt_clust_5="13000.00000" pt_clust_6="13000.00000" pt_clust_7="13000.00000" pt_clust_8="13000.00000" pt_clust_9="53.30193"></scales>
<clustering>
<clus scale="   53.302">  2  9  1 -1</clus>
<clus scale="   81.251">  5  6 -1 -1</clus>
<clus scale="   89.481">  7  8 -1 -1</clus>
<clus scale="  100.596">  1  5  2 -1</clus>
<clus scale="   53.302">  2  5  1 -1</clus>
</clustering>
</event>
<event>
 9    1  0.6296820E-005  0.3364695E+03  0.7546771E-02  0.1068725E+00
         21   -1    0    0  501  502  0.00000000000E+00  0.00000000000E+00  0.13622282188E+04  0.13622282188E+04  0.00000000000E+00 0. -1.
          3   -1    0    0  502    0 -0.00000000000E+00 -0.00000000000E+00 -0.17163225989E+03  0.17163225989E+03  0.00000000000E+00 0. -1.
         23    2    1    2    0    0  0.30583861891E+03 -0.18239501215E+02  0.33806883571E+03  0.46109072522E+03  0.66664675684E+02 0.  0.
        -24    2    1    2    0    0 -0.36755978944E+03  0.67129906097E+02  0.90191231227E+03  0.97982529974E+03  0.83696928656E+02 0.  0.
         11    1    4    4    0    0 -0.19752372761E+03  0.29699250866E+02  0.58607199924E+03  0.61917530374E+03  0.00000000000E+00 0. -1.
        -12    1    4    4    0    0 -0.17003606183E+03  0.37430655231E+02  0.31584031304E+03  0.36064999600E+03  0.00000000000E+00 0.  1.
        -13    1    3    3    0    0  0.58833717996E+02 -0.26182971121E+02  0.49918474809E+02  0.81478883628E+02  0.00000000000E+00 0.  1.
         13    1    3    3    0    0  0.24700490092E+03  0.79434699054E+01  0.28815036090E+03  0.37961184160E+03  0.00000000000E+00 0. -1.
          4    1    1    2  501    0  0.61721170527E+02 -0.48890404881E+02 -0.49385189073E+02  0.92944453737E+02  0.00000000000E+00 0. -1.
<scales pt_clust_5="13000.00000" pt_clust_6="13000.00000" pt_clust_7="13000.00000" pt_clust_8="13000.00000" pt_clust_9="78.73869"></scales>
<clustering>
<clus scale="   66.665">  7  8 -1 -1</clus>
<clus scale="   78.739">  1  9  2 -1</clus>
<clus scale="   83.697">  5  6 -1 -1</clus>
<clus scale="  332.642">  2  7  1 -1</clus>
<clus scale="   78.739">  1  5  2 -1</clus>
</clustering>
</event>
<event>
 9    1  0.6296820E-005  0.9302544E+02  0.7546771E-02  0.1301932E+00
          3   -1    0    0  502    0 -0.00000000000E+00  0.00000000000E+00  0.37874176298E+02  0.37874176298E+02  0.00000000000E+00 0. -1.
         21   -1    0    0  501  502  0.00000000000E+00 -0.00000000000E+00 -0.45617726383E+03  0.45617726383E+03  0.00000000000E+00 0.  1.
        -24    2    1    2    0    0 -0.17650254542E+02 -0.32174393690E+02 -0.12022580328E+03  0.14940126193E+03  0.80745093965E+02 0.  0.
         23    2    1    2    0    0 -0.43529755340E+02 -0.45926346705E+01 -0.18804752780E+03  0.21349624082E+03  0.91119922292E+02 0.  0.
         11    1    3    3    0    0  0.28985200302E+02 -0.13047723867E+02 -0.20971337898E+02  0.38081254547E+02  0.00000000000E+00 0. -1.
        -12    1    3    3    0    0 -0.46635454845E+02 -0.19126669823E+02 -0.99254465378E+02  0.11132000739E+03  0.00000000000E+00 0.  1.
        -11    1    4    4    0    0  0.73604071746E+00 -0.35473003863E+02 -0.29922575939E+02  0.46413751301E+02  0.00000000000E+00 0.  1.
         11    1    4    4    0    0 -0.44265796058E+02  0.30880369193E+02 -0.15812495186E+03  0.16708248951E+03  0.00000000000E+00 0. -1.
          4    1    1    2  501    0  0.61180009882E+02  0.36767028360E+02 -0.11002975646E+03  0.13115393738E+03  0.00000000000E+00 0. -1.
<scales pt_clust_5="13000.00000" pt_clust_6="13000.00000" pt_clust_7="13000.00000" pt_clust_8="13000.00000" pt_clust_9="71.37796"></scales>
<clustering>
<clus scale="   71.378">  2  9  1 -1</clus>
<clus scale="   80.745">  5  6 -1 -1</clus>
<clus scale="   82.889">  1  5  2 -1</clus>
<clus scale="   91.120">  7  8 -1 -1</clus>
<clus scale="   71.378">  2  5  1 -1</clus>
</clustering>
</event>
<event>
 9    1  0.6296820E-005  0.1020184E+03  0.7546771E-02  0.1285242E+00
         21   -1    0    0  501  502  0.00000000000E+00  0.00000000000E+00  0.34583152905E+02  0.34583152905E+02  0.00000000000E+00 0. -1.
          1   -1    0    0  502    0 -0.00000000000E+00 -0.00000000000E+00 -0.53110600981E+03  0.53110600981E+03  0.00000000000E+00 0. -1.
         23    2    1    2    0    0  0.42220159187E+02 -0.13974682649E+02 -0.24836821792E+03  0.27022556579E+03  0.96732885502E+02 0.  0.
        -24    2    1    2    0    0 -0.13056036777E+02 -0.18644236013E+02 -0.59479826058E+02  0.10178157679E+03  0.79395037837E+02 0.  0.
         11    1    4    4    0    0 -0.37971929645E+01 -0.47663308487E+02 -0.51539871521E+02  0.70303399682E+02  0.00000000000E+00 0. -1.
        -12    1    4    4    0    0 -0.92588438127E+01  0.29019072474E+02 -0.79399545370E+01  0.31478177108E+02  0.00000000000E+00 0.  1.
        -13    1    3    3    0    0  0.57783818414E+02  0.11227254265E+02 -0.22478185084E+03  0.23236157466E+03  0.00000000000E+00 0.  1.
         13    1    3    3    0    0 -0.15563659227E+02 -0.25201936914E+02 -0.23586367079E+02  0.37863991136E+02  0.00000000000E+00 0. -1.
          2    1    1    2  501    0 -0.29164122410E+02  0.32618918662E+02 -0.18867481292E+03  0.19368202013E+03  0.00000000000E+00 0. -1.
<scales pt_clust_5="13000.00000" pt_clust_6="13000.00000" pt_clust_7="13000.00000" pt_clust_8="13000.00000" pt_clust_9="43.75548"></scales>
<clustering>
<clus scale="   43.755">  1  9  2 -1</clus>
<clus scale="   79.395">  5  6 -1 -1</clus>
<clus scale="   85.756">  1  5  2 -1</clus>
<clus scale="   96.733">  7  8 -1 -1</clus>
<clus scale="   43.755">  1  5  2 -1</clus>
</clustering>
</event>
<event>
 9    1  0.6296820E-005  0.9429417E+02  0.7546771E-02  0.1299048E+00
          1   -1    0    0  502    0 -0.00000000000E+00  0.00000000000E+00  0.38804925839E+03  0.38804925839E+03  0.00000000000E+00 0. -1.
         21   -1    0    0  501  502  0.00000000000E+00 -0.00000000000E+00 -0.56908548215E+02  0.56908548215E+02  0.00000000000E+00 0. -1.
        -24    2    1    2    0    0  0.22555476488E+02  0.13433287750E+02  0.24816655952E+03  0.26262296224E+03  0.81822834759E+02 0.  0.
         23    2    1    2    0    0  0.21024381807E+02  0.12620859970E+02  0.13926479370E+02  0.96628347698E+02  0.92421750765E+02 0.  0.
         13    1    3    3    0    0  0.17085961133E+02  0.47859872708E+02  0.13713583022E+03  0.14624887492E+03  0.00000000000E+00 0. -1.
        -14    1    3    3    0    0  0.54695153552E+01 -0.34426584958E+02  0.11103072930E+03  0.11637408732E+03  0.00000000000E+00 0.  1.
        -13    1    4    4    0    0 -0.55308540998E+01 -0.20925023143E+02  0.40742612919E+02  0.46134666446E+02  0.00000000000E+00 0.  1.
         13    1    4    4    0    0  0.26555235907E+02  0.33545883113E+02 -0.26816133548E+02  0.50493681252E+02  0.00000000000E+00 0. -1.
          2    1    1    2  501    0 -0.43579858295E+02 -0.26054147720E+02  0.69047671277E+02  0.85706496668E+02  0.00000000000E+00 0. -1.
<scales pt_clust_5="13000.00000" pt_clust_6="13000.00000" pt_clust_7="13000.00000" pt_clust_8="13000.00000" pt_clust_9="50.77426"></scales>
<clustering>
<clus scale="   50.774">  2  9  1 -1</clus>
<clus scale="   81.823">  5  6 -1 -1</clus>
<clus scale="   83.932">  1  5  2 -1</clus>
<clus scale="   92.422">  7  8 -1 -1</clus>
<clus scale="   50.774">  2  5  1 -1</clus>
</clustering>
</event>
<event>
 9    1  0.6296820E-005  0.1195473E+03  0.7546771E-02  0.1257324E+00
          1   -1    0    0  502    0 -0.00000000000E+00  0.00000000000E+00  0.90439850883E+03  0.90439850883E+03  0.00000000000E+00 0. -1.
         21   -1    0    0  501  502  0.00000000000E+00 -0.00000000000E+00 -0.29231484472E+02  0.29231484472E+02  0.00000000000E+00 0. -1.
         23    2    1    2    0    0  0.11264649430E+02  0.19784109257E+02  0.12619942926E+03  0.15579187593E+03  0.88467561035E+02 0.  0.
        -24    2    1    2    0    0  0.79371399557E+02  0.13401871899E+02  0.41576993587E+03  0.43094204815E+03  0.79793358466E+02 0.  0.
         13    1    4    4    0    0  0.76661089592E+02 -0.99621874687E+01  0.38227725538E+03  0.39001547126E+03  0.00000000000E+00 0. -1.
        -14    1    4    4    0    0  0.27103099651E+01  0.23364059367E+02  0.33492680484E+02  0.40926576894E+02  0.00000000000E+00 0.  1.
        -13    1    3    3    0    0 -0.28156519525E-01  0.53216562389E+02  0.94012411076E+02  0.10802933278E+03  0.00000000000E+00 0. -1.
         13    1    3    3    0    0  0.11292805949E+02 -0.33432453132E+02  0.32187018185E+02  0.47762543151E+02  0.00000000000E+00 0.  1.
          2    1    1    2  501    0 -0.90636048987E+02 -0.33185981156E+02  0.33319765924E+03  0.34689606922E+03  0.00000000000E+00 0. -1.
<scales pt_clust_5="13000.00000" pt_clust_6="13000.00000" pt_clust_7="13000.00000" pt_clust_8="13000.00000" pt_clust_9="89.02010"></scales>
<clustering>
<clus scale="   79.793">  5  6 -1 -1</clus>
<clus scale="   88.468">  7  8 -1 -1</clus>
<clus scale="   91.350">  1  7  2 -1</clus>
<clus scale="   89.020">  2  9  1 -1</clus>
<clus scale="   89.020">  2  5  1 -1</clus>
</clustering>
</event>
<event>
 9    1  0.6296820E-005  0.1382084E+03  0.7546771E-02  0.1239345E+00
          1   -1    0    0  502    0 -0.00000000000E+00  0.00000000000E+00  0.85940083683E+02  0.85940083683E+02  0.00000000000E+00 0. -1.
         21   -1    0    0  501  502  0.00000000000E+00 -0.00000000000E+00 -0.33698968338E+03  0.33698968338E+03  0.00000000000E+00 0. -1.
        -24    2    1    2    0    0  0.28831274023E+02  0.20370100954E+02 -0.86082639213E+02  0.12080171583E+03  0.77049661895E+02 0.  0.
         23    2    1    2    0    0 -0.11309335753E+03  0.32581251874E+02 -0.69037119072E+02  0.16390186357E+03  0.90807772696E+02 0.  0.
         11    1    3    3    0    0  0.35947957008E+02  0.28897274285E+02 -0.14479314811E+02  0.48342099991E+02  0.00000000000E+00 0. -1.
        -12    1    3    3    0    0 -0.71166829845E+01 -0.85271733310E+01 -0.71603324402E+02  0.72459615836E+02  0.00000000000E+00 0.  1.
        -13    1    4    4    0    0 -0.90296047808E+02 -0.45408341825E+01 -0.78022432611E+02  0.11942150315E+03  0.00000000000E+00 0. -1.
         13    1    4    4    0    0 -0.22797309721E+02  0.37122086056E+02  0.89853135384E+01  0.44480360420E+02  0.00000000000E+00 0.  1.
          2    1    1    2  501    0  0.84262083506E+02 -0.52951352827E+02 -0.95929841416E+02  0.13822618767E+03  0.00000000000E+00 0. -1.
<scales pt_clust_5="13000.00000" pt_clust_6="13000.00000" pt_clust_7="13000.00000" pt_clust_8="13000.00000" pt_clust_9="104.18979"></scales>
<clustering>
<clus scale="   77.050">  5  6 -1 -1</clus>
<clus scale="   84.752">  1  5  2 -1</clus>
<clus scale="   90.808">  7  8 -1 -1</clus>
<clus scale="  104.190">  2  9  1 -1</clus>
<clus scale="  104.190">  2  5  1 -1</clus>
</clustering>
</event>
<event>
 9    1  0.6296820E-005  0.9349352E+02  0.7546771E-02  0.1300614E+00
         21   -1    0    0  501  502  0.00000000000E+00  0.00000000000E+00  0.17494475782E+03  0.17494475782E+03  0.00000000000E+00 0.  1.
          1   -1    0    0  502    0 -0.00000000000E+00 -0.00000000000E+00 -0.71678218495E+02  0.71678218495E+02  0.00000000000E+00 0. -1.
         23    2    1    2    0    0 -0.25045599006E+02  0.18741047345E+01 -0.44907655536E+01  0.95096346514E+02  0.91609791218E+02 0.  0.
        -24    2    1    2    0    0  0.50762847002E+01  0.10373895041E+02  0.76022483753E+02  0.11208191046E+03  0.81544774516E+02 0.  0.
         13    1    4    4    0    0  0.35263389164E+02  0.25036589907E+02  0.22094773330E+02  0.48564559692E+02  0.00000000000E+00 0. -1.
        -14    1    4    4    0    0 -0.30187104464E+02 -0.14662694866E+02  0.53927710423E+02  0.63517350765E+02  0.00000000000E+00 0.  1.
        -13    1    3    3    0    0 -0.55022218224E+01  0.45214911701E+02 -0.11655705546E+02  0.47016147832E+02  0.00000000000E+00 0. -1.
         13    1    3    3    0    0 -0.19543377184E+02 -0.43340806967E+02  0.71649399925E+01  0.48080198683E+02  0.00000000000E+00 0.  1.
          2    1    1    2  501    0  0.19969314306E+02 -0.12247999775E+02  0.31734821129E+02  0.39444719348E+02  0.00000000000E+00 0. -1.
<scales pt_clust_5="13000.00000" pt_clust_6="13000.00000" pt_clust_7="13000.00000" pt_clust_8="13000.00000" pt_clust_9="23.42620"></scales>
<clustering>
<clus scale="   23.426">  1  9  2 -1</clus>
<clus scale="   81.545">  5  6 -1 -1</clus>
<clus scale="   83.655">  1  5  2 -1</clus>
<clus scale="   91.610">  7  8 -1 -1</clus>
<clus scale="   23.426">  1  5  2 -1</clus>
</clustering>
</event>
<event>
 9    1  0.6296820E-005  0.2405808E+03  0.7546771E-02  0.1130455E+00
          1   -1    0    0  502    0 -0.00000000000E+00  0.00000000000E+00  0.20126731326E+04  0.20126731326E+04  0.00000000000E+00 0. -1.
         21   -1    0    0  501  502  0.00000000000E+00 -0.00000000000E+00 -0.85142552988E+02  0.85142552988E+02  0.00000000000E+00 0. -1.
         23    2    1    2    0    0 -0.54387638052E+02  0.14927678420E+03  0.22992070057E+03  0.29382645685E+03  0.90713200371E+02 0.  0.
        -24    2    1    2    0    0 -0.13468907990E+03 -0.26204549352E+03  0.14057789937E+04  0.14384320476E+04  0.77866471462E+02 0.  0.
         13    1    4    4    0    0 -0.41109354912E+02 -0.15221109458E+03  0.83045970593E+03  0.84529374749E+03  0.00000000000E+00 0. -1.
        -14    1    4    4    0    0 -0.93579724983E+02 -0.10983439894E+03  0.57531928780E+03  0.59313830009E+03  0.00000000000E+00 0.  1.
        -11    1    3    3    0    0 -0.12824311999E+02  0.22337979126E+02  0.11429735258E+03  0.11716370213E+03  0.00000000000E+00 0.  1.
         11    1    3    3    0    0 -0.41563326053E+02  0.12693880507E+03  0.11562334799E+03  0.17666275472E+03  0.00000000000E+00 0. -1.
          2    1    1    2  501    0  0.18907671795E+03  0.11276870932E+03  0.29183088530E+03  0.36555718115E+03  0.00000000000E+00 0. -1.
<scales pt_clust_5="13000.00000" pt_clust_6="13000.00000" pt_clust_7="13000.00000" pt_clust_8="13000.00000" pt_clust_9="227.63119"></scales>
<clustering>
<clus scale="   77.866">  5  6 -1 -1</clus>
<clus scale="   90.713">  7  8 -1 -1</clus>
<clus scale="  182.949">  1  7  2 -1</clus>
<clus scale="  227.631">  2  9  1 -1</clus>
<clus scale="  227.631">  2  5  1 -1</clus>
</clustering>
</event>
<event>
 9    1  0.6296820E-005  0.1733542E+03  0.7546771E-02  0.1175208E+00
          1   -1    0    0  502    0 -0.00000000000E+00  0.00000000000E+00  0.47414664411E+03  0.47414664411E+03  0.00000000000E+00 0. -1.
         21   -1    0    0  501  502  0.00000000000E+00 -0.00000000000E+00 -0.14699181501E+03  0.14699181501E+03  0.00000000000E+00 0.  1.
         23    2    1    2    0    0 -0.70885051931E+02 -0.13638036268E+03  0.39359551655E+03  0.43119975287E+03  0.85973846722E+02 0.  0.
        -24    2    1    2    0    0  0.68879700040E+02  0.11256592640E+03 -0.58787072266E+02  0.16484435156E+03  0.79386645683E+02 0.  0.
         13    1    4    4    0    0 -0.93234190364E-01  0.64743411512E+02 -0.47191303498E+02  0.80117021616E+02  0.00000000000E+00 0. -1.
        -14    1    4    4    0    0  0.68972934231E+02  0.47822514884E+02 -0.11595768768E+02  0.84727329945E+02  0.00000000000E+00 0.  1.
        -11    1    3    3    0    0 -0.44199392745E+02 -0.13183724608E+03  0.37008823877E+03  0.39534788510E+03  0.00000000000E+00 0. -1.
         11    1    3    3    0    0 -0.26685659186E+02 -0.45431165955E+01  0.23507277776E+02  0.35851867776E+02  0.00000000000E+00 0.  1.
          2    1    1    2  501    0  0.20053518907E+01  0.23814436284E+02 -0.76536151773E+01  0.25094354684E+02  0.00000000000E+00 0. -1.
<scales pt_clust_5="13000.00000" pt_clust_6="13000.00000" pt_clust_7="13000.00000" pt_clust_8="13000.00000" pt_clust_9="23.89872"></scales>
<clustering>
<clus scale="   23.899">  2  9  1 -1</clus>
<clus scale="   79.387">  5  6 -1 -1</clus>
<clus scale="   85.974">  7  8 -1 -1</clus>
<clus scale="  170.183">  2  5  1 -1</clus>
<clus scale="   23.899">  2  5  1 -1</clus>
</clustering>
</event>
<event>
 9    1  0.6296820E-005  0.1078036E+03  0.7546771E-02  0.1267999E+00
          1   -1    0    0  502    0 -0.00000000000E+00  0.00000000000E+00  0.51545466312E+03  0.51545466312E+03  0.00000000000E+00 0. -1.
         21   -1    0    0  501  502  0.00000000000E+00 -0.00000000000E+00 -0.84722681066E+02  0.84722681066E+02  0.00000000000E+00 0. -1.
        -24    2    1    2    0    0  0.58788998473E+02  0.13047291185E+02  0.42597982198E+03  0.43779989987E+03  0.81139173284E+02 0.  0.
         23    2    1    2    0    0 -0.48018287958E+02 -0.57173294160E+02  0.87511430702E+01  0.11678024913E+03  0.89367234144E+02 0.  0.
         13    1    3    3    0    0  0.78568574201E+02  0.52111854936E+01  0.35850525838E+03  0.36705067442E+03  0.00000000000E+00 0. -1.
        -14    1    3    3    0    0 -0.19779575728E+02  0.78361056914E+01  0.67474563596E+02  0.70749225444E+02  0.00000000000E+00 0.  1.
        -13    1    4    4    0    0 -0.11240086621E+02 -0.73263230518E+02  0.16402906065E+02  0.75913739340E+02  0.00000000000E+00 0. -1.
         13    1    4    4    0    0 -0.36778201337E+02  0.16089936358E+02 -0.76517629945E+01  0.40866509791E+02  0.00000000000E+00 0.  1.
          2    1    1    2  501    0 -0.10770710516E+02  0.44126002975E+02 -0.39989829994E+01  0.45597195184E+02  0.00000000000E+00 0. -1.
<scales pt_clust_5="13000.00000" pt_clust_6="13000.00000" pt_clust_7="13000.00000" pt_clust_8="13000.00000" pt_clust_9="45.42150"></scales>
<clustering>
<clus scale="   45.421">  2  9  1 -1</clus>
<clus scale="   81.139">  5  6 -1 -1</clus>
<clus scale="   89.367">  7  8 -1 -1</clus>
<clus scale="  101.087">  1  5  2 -1</clus>
<clus scale="   45.421">  2  5  1 -1</clus>
</clustering>
</event>
<event>
 9    1  0.6296820E-005  0.4376497E+03  0.7546771E-02  0.1083568E+00
         21   -1    0    0  501  502  0.00000000000E+00  0.00000000000E+00  0.16721765005E+03  0.16721765005E+03  0.00000000000E+00 0. -1.
          1   -1    0    0  502    0 -0.00000000000E+00 -0.00000000000E+00 -0.15681023600E+04  0.15681023600E+04  0.00000000000E+00 0. -1.
         23    2    1    2    0    0 -0.11480936648E+02 -0.41073032697E+02 -0.30700107818E+03  0.32320202761E+03  0.91602853268E+02 0.  0.
        -24    2    1    2    0    0 -0.34615933911E+03  0.27113099449E+03 -0.71167164811E+03  0.84034946889E+03  0.79827256694E+02 0.  0.
         13    1    4    4    0    0 -0.24698576681E+03  0.21130669712E+03 -0.45940813014E+03  0.56276844198E+03  0.00000000000E+00 0. -1.
        -14    1    4    4    0    0 -0.99173572306E+02  0.59824297369E+02 -0.25226351798E+03  0.27758102691E+03  0.00000000000E+00 0.  1.
        -13    1    3    3    0    0  0.28930821467E+02  0.10834999441E+02 -0.58684081782E+02  0.66319010082E+02  0.00000000000E+00 0.  1.
         13    1    3    3    0    0 -0.40411758116E+02 -0.51908032138E+02 -0.24831699640E+03  0.25688301753E+03  0.00000000000E+00 0. -1.
          2    1    1    2  501    0  0.35764027576E+03 -0.23005796179E+03 -0.38221198363E+03  0.57176851353E+03  0.00000000000E+00 0. -1.
<scales pt_clust_5="13000.00000" pt_clust_6="13000.00000" pt_clust_7="13000.00000" pt_clust_8="13000.00000" pt_clust_9="430.30784"></scales>
<clustering>
<clus scale="   79.827">  5  6 -1 -1</clus>
<clus scale="   91.603">  7  8 -1 -1</clus>
<clus scale="  101.044">  2  7  1 -1</clus>
<clus scale="  430.308">  1  9  2 -1</clus>
<clus scale="  430.308">  1  5  2 -1</clus>
</clustering>
</event>
<event>
 9    1  0.6296820E-005  0.9912089E+02  0.7546771E-02  0.1288656E+00
         21   -1    0    0  501  502  0.00000000000E+00  0.00000000000E+00  0.33465006744E+03  0.33465006744E+03  0.00000000000E+00 0. -1.
          1   -1    0    0  502    0 -0.00000000000E+00 -0.00000000000E+00 -0.17451634854E+03  0.17451634854E+03  0.00000000000E+00 0. -1.
        -24    2    1    2    0    0  0.38039117722E+02 -0.41706890552E+02 -0.71804741564E+02  0.12119882443E+03  0.79666774350E+02 0.  0.
         23    2    1    2    0    0  0.96650524169E+01  0.21799843173E+02 -0.45704577668E+02  0.10555364889E+03  0.92108729089E+02 0.  0.
         11    1    3    3    0    0  0.56327311457E+02 -0.42206145046E+02 -0.74744971762E+02  0.10266905814E+03  0.00000000000E+00 0. -1.
        -12    1    3    3    0    0 -0.18288193735E+02  0.49925449379E+00  0.29402301978E+01  0.18529766290E+02  0.00000000000E+00 0.  1.
        -13    1    4    4    0    0  0.25882278143E+02  0.82171369681E+01 -0.68961372931E+02  0.74115346713E+02  0.00000000000E+00 0.  1.
         13    1    4    4    0    0 -0.16217225726E+02  0.13582706205E+02  0.23256795263E+02  0.31438302181E+02  0.00000000000E+00 0. -1.
          2    1    1    2  501    0 -0.47704170139E+02  0.19907047380E+02  0.27764303813E+03  0.28241394266E+03  0.00000000000E+00 0. -1.
<scales pt_clust_5="13000.00000" pt_clust_6="13000.00000" pt_clust_7="13000.00000" pt_clust_8="13000.00000" pt_clust_9="51.69118"></scales>
<clustering>
<clus scale="   51.691">  1  9  2 -1</clus>
<clus scale="   79.667">  5  6 -1 -1</clus>
<clus scale="   87.680">  2  5  1 -1</clus>
<clus scale="   92.109">  7  8 -1 -1</clus>
<clus scale="   51.691">  1  5  2 -1</clus>
</clustering>
</event>
<event>
 9    1  0.6296820E-005  0.1184830E+03  0.7546771E-02  0.1250854E+00
          1   -1    0    0  502    0 -0.00000000000E+00  0.00000000000E+00  0.53451149161E+03  0.53451149161E+03  0.00000000000E+00 0. -1.
         21   -1    0    0  501  502  0.00000000000E+00 -0.00000000000E+00 -0.55267306447E+02  0.55267306447E+02  0.00000000000E+00 0.  1.
         23    2    1    2    0    0  0.51311738228E+02  0.46418673852E+02  0.38005861428E+03  0.39736534271E+03  0.93097140319E+02 0.  0.
        -24    2    1    2    0    0 -0.44562688842E+02 -0.76249744703E+02  0.10900412768E+03  0.16029108754E+03  0.77533709370E+02 0.  0.
         11    1    4    4    0    0  0.22395915947E+01 -0.47723241128E+02  0.12623572335E+02  0.49415362922E+02  0.00000000000E+00 0. -1.
        -12    1    4    4    0    0 -0.46802280437E+02 -0.28526503575E+02  0.96380555347E+02  0.11087572462E+03  0.00000000000E+00 0.  1.
        -11    1    3    3    0    0  0.35321245276E+02  0.69620039996E+02  0.33686878194E+03  0.34579635132E+03  0.00000000000E+00 0. -1.
         11    1    3    3    0    0  0.15990492952E+02 -0.23201366144E+02  0.43189832338E+02  0.51568991392E+02  0.00000000000E+00 0.  1.
          2    1    1    2  501    0 -0.67490493863E+01  0.29831070851E+02 -0.98185568015E+01  0.32122367805E+02  0.00000000000E+00 0. -1.
<scales pt_clust_5="13000.00000" pt_clust_6="13000.00000" pt_clust_7="13000.00000" pt_clust_8="13000.00000" pt_clust_9="30.58500"></scales>
<clustering>
<clus scale="   30.585">  2  9  1 -1</clus>
<clus scale="   77.534">  5  6 -1 -1</clus>
<clus scale="   93.097">  7  8 -1 -1</clus>
<clus scale="  106.689">  2  5  1 -1</clus>
<clus scale="   30.585">  2  5  1 -1</clus>
</clustering>
</event>
<event>
 9    1  0.6296820E-005  0.1144627E+03  0.7546771E-02  0.1266597E+00
         -4   -1    0    0    0  501 -0.00000000000E+00  0.00000000000E+00  0.16681190004E+03  0.16681190004E+03  0.00000000000E+00 0.  1.
         21   -1    0    0  501  502  0.00000000000E+00 -0.00000000000E+00 -0.29699873145E+03  0.29699873145E+03  0.00000000000E+00 0. -1.
         23    2    1    2    0    0  0.28055019226E+02  0.68321488186E+01  0.62474399332E+02  0.12950476107E+03  0.10970264448E+03 0.  0.
        -24    2    1    2    0    0 -0.62622894107E+02 -0.35094622049E+01 -0.24846680743E+03  0.26857733316E+03  0.80399541696E+02 0.  0.
         13    1    4    4    0    0 -0.39358548831E+02  0.27953805451E+02 -0.20266990250E+03  0.20834010652E+03  0.00000000000E+00 0. -1.
        -14    1    4    4    0    0 -0.23264345276E+02 -0.31463267656E+02 -0.45796904922E+02  0.60237226639E+02  0.00000000000E+00 0.  1.
        -13    1    3    3    0    0  0.51161371963E+02 -0.36911657351E+02  0.26962189144E+02  0.68606968108E+02  0.00000000000E+00 0. -1.
         13    1    3    3    0    0 -0.23106352737E+02  0.43743806169E+02  0.35512210188E+02  0.60897792960E+02  0.00000000000E+00 0.  1.
         -3    1    1    2    0  502  0.34567874881E+02 -0.33226866137E+01  0.55805576688E+02  0.65728537254E+02  0.00000000000E+00 0.  1.
<scales pt_clust_5="13000.00000" pt_clust_6="13000.00000" pt_clust_7="13000.00000" pt_clust_8="13000.00000" pt_clust_9="34.72721"></scales>
<clustering>
<clus scale="   34.727">  2  9  1 -1</clus>
<clus scale="   80.400">  5  6 -1 -1</clus>
<clus scale="   86.782">  2  5  1 -1</clus>
<clus scale="  109.703">  7  8 -1 -1</clus>
<clus scale="   34.727">  2  5  1 -1</clus>
</clustering>
</event>
<event>
 9    1  0.6296820E-005  0.9173021E+02  0.7546771E-02  0.1304433E+00
          1   -1    0    0  502    0 -0.00000000000E+00  0.00000000000E+00  0.15367862059E+03  0.15367862059E+03  0.00000000000E+00 0. -1.
         21   -1    0    0  501  502  0.00000000000E+00 -0.00000000000E+00 -0.76512299110E+02  0.76512299110E+02  0.00000000000E+00 0. -1.
        -24    2    1    2    0    0 -0.16345121348E+02 -0.28059949679E+02  0.54156339965E+02  0.10201966298E+03  0.80128513709E+02 0.  0.
         23    2    1    2    0    0 -0.11130630515E+02  0.59671944618E+01  0.21169835742E+02  0.92866966469E+02  0.89535541381E+02 0.  0.
         11    1    3    3    0    0  0.23484383313E+02 -0.32900727983E+02  0.86246642771E+01  0.41332299661E+02  0.00000000000E+00 0. -1.
        -12    1    3    3    0    0 -0.39829504661E+02  0.48407783040E+01  0.45531675688E+02  0.60687363323E+02  0.00000000000E+00 0.  1.
        -13    1    4    4    0    0  0.25134010708E+02 -0.10817060718E+02  0.40182249598E+02  0.48614200391E+02  0.00000000000E+00 0.  1.
         13    1    4    4    0    0 -0.36264641222E+02  0.16784255180E+02 -0.19012413857E+02  0.44252766078E+02  0.00000000000E+00 0. -1.
          2    1    1    2  501    0  0.27475751863E+02  0.22092755217E+02  0.18401457753E+01  0.35304290249E+02  0.00000000000E+00 0. -1.
<scales pt_clust_5="13000.00000" pt_clust_6="13000.00000" pt_clust_7="13000.00000" pt_clust_8="13000.00000" pt_clust_9="35.25630"></scales>
<clustering>
<clus scale="   35.256">  2  9  1 -1</clus>
<clus scale="   80.129">  5  6 -1 -1</clus>
<clus scale="   82.574">  1  5  2 -1</clus>
<clus scale="   89.536">  7  8 -1 -1</clus>
<clus scale="   35.256">  2  5  1 -1</clus>
</clustering>
</event>
<event>
 9    1  0.6296820E-005  0.9403004E+02  0.7546771E-02  0.1304665E+00
          1   -1    0    0  502    0 -0.00000000000E+00  0.00000000000E+00  0.39991834403E+03  0.39991834403E+03  0.00000000000E+00 0. -1.
         21   -1    0    0  501  502  0.00000000000E+00 -0.00000000000E+00 -0.28312445029E+02  0.28312445029E+02  0.00000000000E+00 0.  1.
        -24    2    1    2    0    0 -0.12917467814E+02 -0.11509781904E+02  0.18395437391E+03  0.19902349367E+03  0.73971638457E+02 0.  0.
         23    2    1    2    0    0 -0.12521317650E+02  0.32521887905E+02  0.13603294063E+03  0.16794459331E+03  0.92119318808E+02 0.  0.
         13    1    3    3    0    0 -0.38022515804E+02 -0.26140206628E+02  0.12621924691E+03  0.13438869149E+03  0.00000000000E+00 0. -1.
        -14    1    3    3    0    0  0.25105047990E+02  0.14630424724E+02  0.57735127002E+02  0.64634802175E+02  0.00000000000E+00 0.  1.
        -11    1    4    4    0    0 -0.12866621372E+02  0.62774708691E+02  0.11305810328E+03  0.12995517964E+03  0.00000000000E+00 0.  1.
         11    1    4    4    0    0  0.34530372201E+00 -0.30252820787E+02  0.22974837350E+02  0.37989413676E+02  0.00000000000E+00 0. -1.
          2    1    1    2  501    0  0.25438785464E+02 -0.21012106001E+02  0.51618584449E+02  0.61262702071E+02  0.00000000000E+00 0. -1.
<scales pt_clust_5="13000.00000" pt_clust_6="13000.00000" pt_clust_7="13000.00000" pt_clust_8="13000.00000" pt_clust_9="32.99455"></scales>
<clustering>
<clus scale="   32.995">  2  9  1 -1</clus>
<clus scale="   73.972">  5  6 -1 -1</clus>
<clus scale="   76.338">  1  5  2 -1</clus>
<clus scale="   92.119">  7  8 -1 -1</clus>
<clus scale="   32.995">  2  5  1 -1</clus>
</clustering>
</event>
<event>
 9    1  0.6296820E-005  0.9939627E+02  0.7546771E-02  0.1291158E+00
          1   -1    0    0  502    0 -0.00000000000E+00  0.00000000000E+00  0.43140566562E+03  0.43140566562E+03  0.00000000000E+00 0. -1.
         21   -1    0    0  501  502  0.00000000000E+00 -0.00000000000E+00 -0.19842685130E+03  0.19842685130E+03  0.00000000000E+00 0. -1.
         23    2    1    2    0    0 -0.17496326173E+02 -0.26001138428E+02  0.28524898297E+03  0.30299311738E+03  0.97240250249E+02 0.  0.
        -24    2    1    2    0    0 -0.40466482609E+02  0.10258217834E+02  0.11657804669E+03  0.14762654683E+03  0.80376545776E+02 0.  0.
         11    1    4    4    0    0 -0.55844551399E+02  0.30943974465E+02  0.72852012425E+02  0.96868773044E+02  0.00000000000E+00 0. -1.
        -12    1    4    4    0    0  0.15378068790E+02 -0.20685756631E+02  0.43726034264E+02  0.50757773785E+02  0.00000000000E+00 0.  1.
        -13    1    3    3    0    0 -0.29202805662E+02  0.31021109891E+02  0.14538418991E+03  0.15149810491E+03  0.00000000000E+00 0.  1.
         13    1    3    3    0    0  0.11706479490E+02 -0.57022248319E+02  0.13986479306E+03  0.15149501247E+03  0.00000000000E+00 0. -1.
          2    1    1    2  501    0  0.57962808782E+02  0.15742920594E+02 -0.16884821534E+03  0.17921285271E+03  0.00000000000E+00 0. -1.
<scales pt_clust_5="13000.00000" pt_clust_6="13000.00000" pt_clust_7="13000.00000" pt_clust_8="13000.00000" pt_clust_9="60.06269"></scales>
<clustering>
<clus scale="   60.063">  2  9  1 -1</clus>
<clus scale="   80.377">  5  6 -1 -1</clus>
<clus scale="   82.972">  2  5  1 -1</clus>
<clus scale="   97.240">  7  8 -1 -1</clus>
<clus scale="   60.063">  2  5  1 -1</clus>
</clustering>
</event>
<event>
 9    1  0.6296820E-005  0.1994808E+03  0.7546771E-02  0.1151217E+00
          1   -1    0    0  502    0 -0.00000000000E+00  0.00000000000E+00  0.34405787255E+03  0.34405787255E+03  0.00000000000E+00 0. -1.
         21   -1    0    0  501  502  0.00000000000E+00 -0.00000000000E+00 -0.36985824347E+03  0.36985824347E+03  0.00000000000E+00 0. -1.
         23    2    1    2    0    0  0.17875400966E+03  0.79616497569E+02  0.25221203040E+03  0.33245881546E+03  0.92877193349E+02 0.  0.
        -24    2    1    2    0    0 -0.11894676157E+03 -0.20892845060E+02 -0.79996621517E+02  0.16643259655E+03  0.81948195081E+02 0.  0.
         13    1    4    4    0    0 -0.44385366720E+02 -0.49131709507E+02 -0.35610704558E+02  0.75180502373E+02  0.00000000000E+00 0. -1.
        -14    1    4    4    0    0 -0.74561394846E+02  0.28238864446E+02 -0.44385916959E+02  0.91252094173E+02  0.00000000000E+00 0.  1.
        -13    1    3    3    0    0  0.30226357881E+02  0.56586800543E+02  0.97880999054E+02  0.11703157131E+03  0.00000000000E+00 0.  1.
         13    1    3    3    0    0  0.14852765178E+03  0.23029697026E+02  0.15433103134E+03  0.21542724415E+03  0.00000000000E+00 0. -1.
          2    1    1    2  501    0 -0.59807248091E+02 -0.58723652508E+02 -0.19801577980E+03  0.21502470402E+03  0.00000000000E+00 0. -1.
<scales pt_clust_5="13000.00000" pt_clust_6="13000.00000" pt_clust_7="13000.00000" pt_clust_8="13000.00000" pt_clust_9="83.81751"></scales>
<clustering>
<clus scale="   81.948">  5  6 -1 -1</clus>
<clus scale="   83.818">  2  9  1 -1</clus>
<clus scale="   92.877">  7  8 -1 -1</clus>
<clus scale="  194.633">  2  5  1 -1</clus>
<clus scale="   83.818">  2  5  1 -1</clus>
</clustering>
</event>
<event>
 9    1  0.6296820E-005  0.9920560E+02  0.7546771E-02  0.1287372E+00
         21   -1    0    0  501  502  0.00000000000E+00  0.00000000000E+00  0.18376475207E+03  0.18376475207E+03  0.00000000000E+00 0. -1.
         -4   -1    0    0    0  501 -0.00000000000E+00 -0.00000000000E+00 -0.79499279616E+02  0.79499279616E+02  0.00000000000E+00 0.  1.
        -24    2    1    2    0    0 -0.74883336226E+00 -0.47896913124E+02 -0.79812538715E+01  0.94024441939E+02  0.80512236526E+02 0.  0.
         23    2    1    2    0    0  0.74339439994E+01  0.21286421723E+02  0.63512650050E+02  0.11331268077E+03  0.91090787869E+02 0.  0.
         11    1    3    3    0    0 -0.85303226074E+01 -0.58666410573E+02  0.20393507552E+02  0.62692976350E+02  0.00000000000E+00 0. -1.
        -12    1    3    3    0    0  0.77814892452E+01  0.10769497449E+02 -0.28374761423E+02  0.31331465590E+02  0.00000000000E+00 0.  1.
        -11    1    4    4    0    0  0.60813222542E+01 -0.32378439310E+02  0.46522939921E+02  0.57006400968E+02  0.00000000000E+00 0.  1.
         11    1    4    4    0    0  0.13526217452E+01  0.53664861032E+02  0.16989710129E+02  0.56306279805E+02  0.00000000000E+00 0. -1.
         -3    1    1    2    0  502 -0.66851106372E+01  0.26610491401E+02  0.48734076279E+02  0.55926908976E+02  0.00000000000E+00 0.  1.
<scales pt_clust_5="13000.00000" pt_clust_6="13000.00000" pt_clust_7="13000.00000" pt_clust_8="13000.00000" pt_clust_9="27.43736"></scales>
<clustering>
<clus scale="   27.437">  1  9  2 -1</clus>
<clus scale="   80.512">  5  6 -1 -1</clus>
<clus scale="   89.590">  2  5  1 -1</clus>
<clus scale="   91.091">  7  8 -1 -1</clus>
<clus scale="   27.437">  1  5  2 -1</clus>
</clustering>
</event>
<event>
 9    1  0.6296820E-005  0.1427079E+03  0.7546771E-02  0.1211106E+00
         21   -1    0    0  501  502  0.00000000000E+00  0.00000000000E+00  0.14360540106E+03  0.14360540106E+03  0.00000000000E+00 0. -1.
          3   -1    0    0  502    0 -0.00000000000E+00 -0.00000000000E+00 -0.29372736952E+03  0.29372736952E+03  0.00000000000E+00 0. -1.
         23    2    1    2    0    0 -0.55668079475E+02 -0.95808050568E+02 -0.18198034016E+03  0.22989840023E+03  0.86361522663E+02 0.  0.
        -24    2    1    2    0    0  0.31972870638E+02  0.12031359413E+03 -0.16194625425E+02  0.14851853953E+03  0.79359090868E+02 0.  0.
         11    1    4    4    0    0  0.13207836300E+02  0.10486589706E+03 -0.41390779782E+02  0.11350991127E+03  0.00000000000E+00 0. -1.
        -12    1    4    4    0    0  0.18765034339E+02  0.15447697071E+02  0.25196154357E+02  0.35008628264E+02  0.00000000000E+00 0.  1.
        -11    1    3    3    0    0  0.23003826063E+02 -0.29687151922E+02 -0.43917149657E+02  0.57785976126E+02  0.00000000000E+00 0.  1.
         11    1    3    3    0    0 -0.78671905538E+02 -0.66120898646E+02 -0.13806319050E+03  0.17211242410E+03  0.00000000000E+00 0. -1.
          4    1    1    2  501    0  0.23695208837E+02 -0.24505543563E+02  0.48052997135E+02  0.58915830817E+02  0.00000000000E+00 0. -1.
<scales pt_clust_5="13000.00000" pt_clust_6="13000.00000" pt_clust_7="13000.00000" pt_clust_8="13000.00000" pt_clust_9="34.08790"></scales>
<clustering>
<clus scale="   34.088">  1  9  2 -1</clus>
<clus scale="   79.359">  5  6 -1 -1</clus>
<clus scale="   86.362">  7  8 -1 -1</clus>
<clus scale="  138.583">  1  5  2 -1</clus>
<clus scale="   34.088">  1  5  2 -1</clus>
</clustering>
</event>
<event>
 9    1  0.6296820E-005  0.9329737E+02  0.7546771E-02  0.1298643E+00
         21   -1    0    0  501  502  0.00000000000E+00  0.00000000000E+00  0.25446500797E+03  0.25446500797E+03  0.00000000000E+00 0.  1.
         -2   -1    0    0    0  501 -0.00000000000E+00 -0.00000000000E+00 -0.78532466768E+02  0.78532466768E+02  0.00000000000E+00 0.  1.
        -24    2    1    2    0    0 -0.82509018198E+01 -0.50832974348E+01  0.27788427644E+02  0.85158378800E+02  0.79911422683E+02 0.  0.
         23    2    1    2    0    0  0.35581395981E+02  0.58037455155E+02  0.27683293599E+02  0.11344449829E+03  0.86422841356E+02 0.  0.
         11    1    3    3    0    0 -0.16462384573E+02 -0.39150812443E+02  0.36946644826E+01  0.42631523154E+02  0.00000000000E+00 0. -1.
        -12    1    3    3    0    0  0.82114827537E+01  0.34067515008E+02  0.24093763161E+02  0.42526855646E+02  0.00000000000E+00 0.  1.
        -13    1    4    4    0    0 -0.22709556794E+02  0.28948698854E+01 -0.97731144368E+01  0.24892127414E+02  0.00000000000E+00 0.  1.
         13    1    4    4    0    0  0.58290952774E+02  0.55142585270E+02  0.37456408036E+02  0.88552370880E+02  0.00000000000E+00 0. -1.
         -1    1    1    2    0  502 -0.27330494161E+02 -0.52954157720E+02  0.12046081996E+03  0.13439459765E+03  0.00000000000E+00 0.  1.
<scales pt_clust_5="13000.00000" pt_clust_6="13000.00000" pt_clust_7="13000.00000" pt_clust_8="13000.00000" pt_clust_9="59.59110"></scales>
<clustering>
<clus scale="   59.591">  1  9  2 -1</clus>
<clus scale="   79.911">  5  6 -1 -1</clus>
<clus scale="   86.423">  7  8 -1 -1</clus>
<clus scale="   87.300">  2  5  1 -1</clus>
<clus scale="   59.591">  1  5  2 -1</clus>
</clustering>
</event>
<event>
 9    1  0.6296820E-005  0.1008858E+03  0.7546771E-02  0.1283208E+00
         21   -1    0    0  501  502  0.00000000000E+00  0.00000000000E+00  0.15389798014E+03  0.15389798014E+03  0.00000000000E+00 0. -1.
          1   -1    0    0  502    0 -0.00000000000E+00 -0.00000000000E+00 -0.16495822534E+03  0.16495822534E+03  0.00000000000E+00 0. -1.
         23    2    1    2    0    0 -0.53483814084E+02 -0.38018628984E+02  0.15952713149E+02  0.11111380417E+03  0.88237485812E+02 0.  0.
        -24    2    1    2    0    0  0.40816140939E+01  0.35216432888E+02  0.62045245002E+02  0.10586113093E+03  0.78103200296E+02 0.  0.
         13    1    4    4    0    0 -0.35671085181E+02  0.17526104906E+02  0.42417590737E+02  0.58127813266E+02  0.00000000000E+00 0. -1.
        -14    1    4    4    0    0  0.39752699275E+02  0.17690327981E+02  0.19627654265E+02  0.47733317669E+02  0.00000000000E+00 0.  1.
        -11    1    3    3    0    0  0.20578986653E+02 -0.28363608596E+02  0.84601656269E+01  0.36049457509E+02  0.00000000000E+00 0. -1.
         11    1    3    3    0    0 -0.74062800738E+02 -0.96550203873E+01  0.74925475221E+01  0.75064346665E+02  0.00000000000E+00 0.  1.
          2    1    1    2  501    0  0.49402199991E+02  0.28021960961E+01 -0.89058203358E+02  0.10188127037E+03  0.00000000000E+00 0. -1.
<scales pt_clust_5="13000.00000" pt_clust_6="13000.00000" pt_clust_7="13000.00000" pt_clust_8="13000.00000" pt_clust_9="49.48163"></scales>
<clustering>
<clus scale="   49.482">  1  9  2 -1</clus>
<clus scale="   78.103">  5  6 -1 -1</clus>
<clus scale="   88.237">  7  8 -1 -1</clus>
<clus scale="   92.153">  1  5  2 -1</clus>
<clus scale="   49.482">  1  5  2 -1</clus>
</clustering>
</event>
<event>
 9    1  0.6296820E-005  0.1208268E+03  0.7546771E-02  0.1244009E+00
         -2   -1    0    0    0  501 -0.00000000000E+00  0.00000000000E+00  0.37926078270E+03  0.37926078270E+03  0.00000000000E+00 0.  1.
         21   -1    0    0  501  502  0.00000000000E+00 -0.00000000000E+00 -0.90285592353E+02  0.90285592353E+02  0.00000000000E+00 0.  1.
        -24    2    1    2    0    0 -0.55967081638E+02 -0.60203972468E+02  0.30084153364E+03  0.32224436523E+03  0.81110850289E+02 0.  0.
         23    2    1    2    0    0  0.37893749413E+02  0.75346860209E+02 -0.15871456289E+02  0.12338562805E+03  0.88651139282E+02 0.  0.
         13    1    3    3    0    0 -0.44245351084E+02 -0.13081551046E+02  0.55641745942E+02  0.72282653256E+02  0.00000000000E+00 0. -1.
        -14    1    3    3    0    0 -0.11721730554E+02 -0.47122421422E+02  0.24519978770E+03  0.24996171198E+03  0.00000000000E+00 0.  1.
        -13    1    4    4    0    0  0.29906645567E+00  0.26685566217E+02 -0.47313677393E+02  0.54321201694E+02  0.00000000000E+00 0.  1.
         13    1    4    4    0    0  0.37594682957E+02  0.48661293992E+02  0.31442221103E+02  0.69064426354E+02  0.00000000000E+00 0. -1.
         -1    1    1    2    0  502  0.18073332225E+02 -0.15142887741E+02  0.40051129943E+01  0.23916381769E+02  0.00000000000E+00 0.  1.
<scales pt_clust_5="13000.00000" pt_clust_6="13000.00000" pt_clust_7="13000.00000" pt_clust_8="13000.00000" pt_clust_9="23.57864"></scales>
<clustering>
<clus scale="   23.579">  2  9  1 -1</clus>
<clus scale="   81.111">  5  6 -1 -1</clus>
<clus scale="   88.651">  7  8 -1 -1</clus>
<clus scale="  115.408">  1  5  2 -1</clus>
<clus scale="   23.579">  2  5  1 -1</clus>
</clustering>
</event>
<event>
 9    1  0.6296820E-005  0.2391474E+03  0.7546771E-02  0.1121027E+00
          3   -1    0    0  502    0 -0.00000000000E+00  0.00000000000E+00  0.14581234338E+03  0.14581234338E+03  0.00000000000E+00 0. -1.
         21   -1    0    0  501  502  0.00000000000E+00 -0.00000000000E+00 -0.46562405090E+03  0.46562405090E+03  0.00000000000E+00 0.  1.
         23    2    1    2    0    0 -0.17291803352E+03 -0.15978670558E+03 -0.12960749354E+03  0.28375863146E+03  0.91040765306E+02 0.  0.
        -24    2    1    2    0    0  0.12901277651E+03  0.16283542675E+03 -0.15469984303E+03  0.27113108608E+03  0.80127097135E+02 0.  0.
         13    1    4    4    0    0  0.96976516889E+02  0.11875206969E+03 -0.65764029216E+02  0.16682747502E+03  0.00000000000E+00 0. -1.
        -14    1    4    4    0    0  0.32036259624E+02  0.44083357066E+02 -0.88935813818E+02  0.10430361106E+03  0.00000000000E+00 0.  1.
        -11    1    3    3    0    0 -0.19356012230E+02 -0.73670753887E+02 -0.44346038217E+02  0.88139697602E+02  0.00000000000E+00 0. -1.
         11    1    3    3    0    0 -0.15356202129E+03 -0.86115951693E+02 -0.85261455327E+02  0.19561893386E+03  0.00000000000E+00 0.  1.
          4    1    1    2  501    0  0.43905257008E+02 -0.30487211712E+01 -0.35504370948E+02  0.56546676738E+02  0.00000000000E+00 0. -1.
<scales pt_clust_5="13000.00000" pt_clust_6="13000.00000" pt_clust_7="13000.00000" pt_clust_8="13000.00000" pt_clust_9="44.01098"></scales>
<clustering>
<clus scale="   44.011">  2  9  1 -1</clus>
<clus scale="   80.127">  5  6 -1 -1</clus>
<clus scale="   91.041">  7  8 -1 -1</clus>
<clus scale="  235.209">  2  5  1 -1</clus>
<clus scale="   44.011">  2  5  1 -1</clus>
</clustering>
</event>
<event>
 9    1  0.6296820E-005  0.8251901E+02  0.7546771E-02  0.1324599E+00
         21   -1    0    0  501  502  0.00000000000E+00  0.00000000000E+00  0.67398470400E+02  0.67398470400E+02  0.00000000000E+00 0.  1.
         -2   -1    0    0    0  501 -0.00000000000E+00 -0.00000000000E+00 -0.42764153249E+03  0.42764153249E+03  0.00000000000E+00 0.  1.
         23    2    1    2    0    0 -0.25318150078E+01 -0.11249908249E+02 -0.33295425889E+03  0.34199398595E+03  0.77255274225E+02 0.  0.
        -24    2    1    2    0    0 -0.87895106291E+01  0.41120383308E+02 -0.58496013421E+02  0.10838834499E+03  0.80982148175E+02 0.  0.
         13    1    4    4    0    0 -0.12241934197E+02 -0.23309068266E+02 -0.12466406804E+02  0.29130549513E+02  0.00000000000E+00 0. -1.
        -14    1    4    4    0    0  0.34524235681E+01  0.64429451574E+02 -0.46029606616E+02  0.79257795477E+02  0.00000000000E+00 0.  1.
        -11    1    3    3    0    0  0.21619601206E+02 -0.34722322699E+02 -0.13057432118E+03  0.13683091829E+03  0.00000000000E+00 0.  1.
         11    1    3    3    0    0 -0.24151416214E+02  0.23472414450E+02 -0.20237993771E+03  0.20516306766E+03  0.00000000000E+00 0. -1.
         -1    1    1    2    0  502  0.11321325637E+02 -0.29870475059E+02  0.31207210215E+02  0.44657671948E+02  0.00000000000E+00 0.  1.
<scales pt_clust_5="13000.00000" pt_clust_6="13000.00000" pt_clust_7="13000.00000" pt_clust_8="13000.00000" pt_clust_9="31.94398"></scales>
<clustering>
<clus scale="   31.944">  1  9  2 -1</clus>
<clus scale="   77.255">  7  8 -1 -1</clus>
<clus scale="   78.865">  2  7  1 -1</clus>
<clus scale="   80.982">  5  6 -1 -1</clus>
<clus scale="   31.944">  1  5  2 -1</clus>
</clustering>
</event>
<event>
 9    1  0.6296820E-005  0.1071655E+03  0.7546771E-02  0.1269536E+00
          1   -1    0    0  502    0 -0.00000000000E+00  0.00000000000E+00  0.49602056608E+03  0.49602056608E+03  0.00000000000E+00 0. -1.
         21   -1    0    0  501  502  0.00000000000E+00 -0.00000000000E+00 -0.50397473952E+02  0.50397473952E+02  0.00000000000E+00 0.  1.
         23    2    1    2    0    0 -0.71192992088E+02 -0.19598121236E+02  0.31995623562E+03  0.33974955776E+03  0.87208031789E+02 0.  0.
        -24    2    1    2    0    0  0.25952663846E+02  0.48461136338E+02  0.11901861493E+03  0.15259482827E+03  0.78087953108E+02 0.  0.
         13    1    4    4    0    0  0.11579579690E+02 -0.19994482189E+02  0.16121603893E+02  0.28173961310E+02  0.00000000000E+00 0. -1.
        -14    1    4    4    0    0  0.14373084156E+02  0.68455618527E+02  0.10289701103E+03  0.12442086696E+03  0.00000000000E+00 0.  1.
        -13    1    3    3    0    0  0.10184434499E+02 -0.26062561492E+02  0.13029883041E+03  0.13326952024E+03  0.00000000000E+00 0.  1.
         13    1    3    3    0    0 -0.81377426587E+02  0.64644402555E+01  0.18965740521E+03  0.20648003753E+03  0.00000000000E+00 0. -1.
          2    1    1    2  501    0  0.45240328241E+02 -0.28863015102E+02  0.66482415760E+01  0.54073653994E+02  0.00000000000E+00 0. -1.
<scales pt_clust_5="13000.00000" pt_clust_6="13000.00000" pt_clust_7="13000.00000" pt_clust_8="13000.00000" pt_clust_9="53.66340"></scales>
<clustering>
<clus scale="   53.663">  2  9  1 -1</clus>
<clus scale="   78.088">  5  6 -1 -1</clus>
<clus scale="   87.208">  7  8 -1 -1</clus>
<clus scale="   99.885">  2  5  1 -1</clus>
<clus scale="   53.663">  2  5  1 -1</clus>
</clustering>
</event>
<event>
 9    1  0.6296820E-005  0.9425703E+02  0.7546771E-02  0.1299097E+00
         21   -1    0    0  501  502  0.00000000000E+00  0.00000000000E+00  0.31144673080E+02  0.31144673080E+02  0.00000000000E+00 0.  1.
         -2   -1    0    0    0  501 -0.00000000000E+00 -0.00000000000E+00 -0.49283848619E+03  0.49283848619E+03  0.00000000000E+00 0.  1.
         23    2    1    2    0    0  0.10513091729E+02  0.67189813618E+01 -0.26603949100E+03  0.28206690098E+03  0.92892712546E+02 0.  0.
        -24    2    1    2    0    0 -0.29910932725E+02  0.70021250491E+01 -0.65645574380E+02  0.10975416281E+03  0.82419300942E+02 0.  0.
         11    1    4    4    0    0  0.21548907544E+02  0.22684606746E+02 -0.38147144385E+02  0.49337120145E+02  0.00000000000E+00 0. -1.
        -12    1    4    4    0    0 -0.51459840269E+02 -0.15682481696E+02 -0.27498429995E+02  0.60417042669E+02  0.00000000000E+00 0.  1.
        -13    1    3    3    0    0 -0.31334023869E+02 -0.25905657063E+02 -0.11734802358E+03  0.12419131514E+03  0.00000000000E+00 0.  1.
         13    1    3    3    0    0  0.41847115598E+02  0.32624638425E+02 -0.14869146743E+03  0.15787558583E+03  0.00000000000E+00 0. -1.
         -1    1    1    2    0  502  0.19397840996E+02 -0.13721106411E+02 -0.13000874773E+03  0.13216209548E+03  0.00000000000E+00 0.  1.
<scales pt_clust_5="13000.00000" pt_clust_6="13000.00000" pt_clust_7="13000.00000" pt_clust_8="13000.00000" pt_clust_9="23.76017"></scales>
<clustering>
<clus scale="   23.760">  1  9  2 -1</clus>
<clus scale="   82.419">  5  6 -1 -1</clus>
<clus scale="   83.954">  1  5  2 -1</clus>
<clus scale="   92.893">  7  8 -1 -1</clus>
<clus scale="   23.760">  1  5  2 -1</clus>
</clustering>
</event>
<event>
 9    1  0.6296820E-005  0.1098836E+03  0.7546771E-02  0.1261905E+00
          1   -1    0    0  502    0 -0.00000000000E+00  0.00000000000E+00  0.63982569324E+03  0.63982569324E+03  0.00000000000E+00 0. -1.
         21   -1    0    0  501  502  0.00000000000E+00 -0.00000000000E+00 -0.40371910352E+02  0.40371910352E+02  0.00000000000E+00 0. -1.
         23    2    1    2    0    0  0.51204065246E+02  0.45928570327E+02  0.48341283053E+03  0.49653174385E+03  0.90136108504E+02 0.  0.
        -24    2    1    2    0    0 -0.48355439115E+02 -0.12308079391E+02  0.11070851944E+03  0.14950613313E+03  0.87212213916E+02 0.  0.
         13    1    4    4    0    0 -0.38995370254E+02  0.34065731881E+02  0.70157177740E+02  0.87196000930E+02  0.00000000000E+00 0. -1.
        -14    1    4    4    0    0 -0.93600688608E+01 -0.46373811271E+02  0.40551341703E+02  0.62310132201E+02  0.00000000000E+00 0.  1.
        -13    1    3    3    0    0  0.69037805993E+02  0.20481411284E+02  0.41745536004E+03  0.42362092074E+03  0.00000000000E+00 0. -1.
         13    1    3    3    0    0 -0.17833740747E+02  0.25447159043E+02  0.65957470497E+02  0.72910823111E+02  0.00000000000E+00 0.  1.
          2    1    1    2  501    0 -0.28486261312E+01 -0.33620490937E+02  0.53324329152E+01  0.34159726616E+02  0.00000000000E+00 0. -1.
<scales pt_clust_5="13000.00000" pt_clust_6="13000.00000" pt_clust_7="13000.00000" pt_clust_8="13000.00000" pt_clust_9="33.74096"></scales>
<clustering>
<clus scale="   33.741">  2  9  1 -1</clus>
<clus scale="   87.212">  5  6 -1 -1</clus>
<clus scale="   90.136">  7  8 -1 -1</clus>
<clus scale="  107.498">  2  5  1 -1</clus>
<clus scale="   33.741">  2  5  1 -1</clus>
</clustering>
</event>
<event>
 9    1  0.6296820E-005  0.9109992E+02  0.7546771E-02  0.1306219E+00
          1   -1    0    0  502    0 -0.00000000000E+00  0.00000000000E+00  0.59904982485E+03  0.59904982485E+03  0.00000000000E+00 0. -1.
         21   -1    0    0  501  502  0.00000000000E+00 -0.00000000000E+00 -0.27175643031E+02  0.27175643031E+02  0.00000000000E+00 0. -1.
        -24    2    1    2    0    0  0.16022063492E+02  0.33218676312E+02  0.26958900189E+03  0.28368097069E+03  0.80227652453E+02 0.  0.
         23    2    1    2    0    0  0.26269790575E+02  0.97173908573E+01  0.22942304985E+03  0.24798765300E+03  0.89879979159E+02 0.  0.
         13    1    3    3    0    0 -0.10407170192E+02  0.53463423198E+02  0.18212541377E+03  0.19009553691E+03  0.00000000000E+00 0. -1.
        -14    1    3    3    0    0  0.26429233685E+02 -0.20244746887E+02  0.87463588118E+02  0.93585433782E+02  0.00000000000E+00 0.  1.
        -13    1    4    4    0    0  0.35373763677E+02 -0.32846177204E+02  0.14781730368E+03  0.15549961344E+03  0.00000000000E+00 0. -1.
         13    1    4    4    0    0 -0.91039731019E+01  0.42563568061E+02  0.81605746171E+02  0.92488039554E+02  0.00000000000E+00 0.  1.
          2    1    1    2  501    0 -0.42291854068E+02 -0.42936067169E+02  0.72862130085E+02  0.94556844199E+02  0.00000000000E+00 0. -1.
<scales pt_clust_5="13000.00000" pt_clust_6="13000.00000" pt_clust_7="13000.00000" pt_clust_8="13000.00000" pt_clust_9="60.26696"></scales>
<clustering>
<clus scale="   60.267">  2  9  1 -1</clus>
<clus scale="   80.228">  5  6 -1 -1</clus>
<clus scale="   81.592">  1  5  2 -1</clus>
<clus scale="   89.880">  7  8 -1 -1</clus>
<clus scale="   60.267">  2  5  1 -1</clus>
</clustering>
</event>
<event>
 9    1  0.6296820E-005  0.9394180E+02  0.7546771E-02  0.1299814E+00
         21   -1    0    0  501  502  0.00000000000E+00  0.00000000000E+00  0.24684379866E+03  0.24684379866E+03  0.00000000000E+00 0.  1.
          1   -1    0    0  502    0 -0.00000000000E+00 -0.00000000000E+00 -0.61305432787E+02  0.61305432787E+02  0.00000000000E+00 0. -1.
         23    2    1    2    0    0  0.51586298559E+01  0.33612373535E+02  0.51004086802E+02  0.10878275076E+03  0.89865827075E+02 0.  0.
        -24    2    1    2    0    0  0.39701185688E+02 -0.10048722582E+02  0.11406702663E+03  0.14471707887E+03  0.79085936683E+02 0.  0.
         11    1    4    4    0    0 -0.48845465554E+01 -0.35690331193E+02  0.33877585272E+02  0.49450473400E+02  0.00000000000E+00 0. -1.
        -12    1    4    4    0    0  0.44585732244E+02  0.25641608610E+02  0.80189441357E+02  0.95266605466E+02  0.00000000000E+00 0.  1.
        -13    1    3    3    0    0  0.14030618912E+02 -0.29323381716E+02  0.16226259108E+02  0.36331948295E+02  0.00000000000E+00 0. -1.
         13    1    3    3    0    0 -0.88719890563E+01  0.62935755250E+02  0.34777827694E+02  0.72450802465E+02  0.00000000000E+00 0.  1.
          2    1    1    2  501    0 -0.44859815544E+02 -0.23563650952E+02  0.20467252445E+02  0.54649401822E+02  0.00000000000E+00 0. -1.
<scales pt_clust_5="13000.00000" pt_clust_6="13000.00000" pt_clust_7="13000.00000" pt_clust_8="13000.00000" pt_clust_9="50.67200"></scales>
<clustering>
<clus scale="   50.672">  1  9  2 -1</clus>
<clus scale="   79.086">  5  6 -1 -1</clus>
<clus scale="   83.689">  1  5  2 -1</clus>
<clus scale="   89.866">  7  8 -1 -1</clus>
<clus scale="   50.672">  1  5  2 -1</clus>
</clustering>
</event>
<event>
 9    1  0.6296820E-005  0.1027096E+03  0.7546771E-02  0.1279937E+00
         21   -1    0    0  501  502  0.00000000000E+00  0.00000000000E+00  0.32293109153E+02  0.32293109153E+02  0.00000000000E+00 0. -1.
          1   -1    0    0  502    0 -0.00000000000E+00 -0.00000000000E+00 -0.53708357171E+03  0.53708357171E+03  0.00000000000E+00 0. -1.
         23    2    1    2    0    0 -0.42179169133E+02  0.28926547895E+02 -0.39267034998E+03  0.40636706255E+03  0.91259839420E+02 0.  0.
        -24    2    1    2    0    0  0.17779317446E+02 -0.37177239230E+02 -0.99877974499E+02  0.13449126256E+03  0.80087693628E+02 0.  0.
         13    1    4    4    0    0  0.13406330497E+02  0.21683696346E+02 -0.10920845984E+02  0.27734045173E+02  0.00000000000E+00 0. -1.
        -14    1    4    4    0    0  0.43729869493E+01 -0.58860935576E+02 -0.88957128514E+02  0.10675721739E+03  0.00000000000E+00 0.  1.
        -11    1    3    3    0    0  0.17936754642E+02  0.17538586860E+02 -0.32598697216E+02  0.41133979340E+02  0.00000000000E+00 0.  1.
         11    1    3    3    0    0 -0.60115923775E+02  0.11387961035E+02 -0.36007165276E+03  0.36523308321E+03  0.00000000000E+00 0. -1.
          2    1    1    2  501    0  0.24399851687E+02  0.82506913351E+01 -0.12242138080E+02  0.28518355749E+02  0.00000000000E+00 0. -1.
<scales pt_clust_5="13000.00000" pt_clust_6="13000.00000" pt_clust_7="13000.00000" pt_clust_8="13000.00000" pt_clust_9="25.75707"></scales>
<clustering>
<clus scale="   25.757">  1  9  2 -1</clus>
<clus scale="   80.088">  5  6 -1 -1</clus>
<clus scale="   91.260">  7  8 -1 -1</clus>
<clus scale="   92.924">  1  5  2 -1</clus>
<clus scale="   25.757">  1  5  2 -1</clus>
</clustering>
</event>
<event>
 9    1  0.6296820E-005  0.1014968E+03  0.7546771E-02  0.1283222E+00
         21   -1    0    0  501  502  0.00000000000E+00  0.00000000000E+00  0.42057436294E+02  0.42057436294E+02  0.00000000000E+00 0.  1.
          1   -1    0    0  502    0 -0.00000000000E+00 -0.00000000000E+00 -0.58940988775E+03  0.58940988775E+03  0.00000000000E+00 0. -1.
         23    2    1    2    0    0  0.24466649339E+02  0.21706360920E+02 -0.20960223599E+03  0.23168091645E+03  0.93129837748E+02 0.  0.
        -24    2    1    2    0    0  0.48962094737E+02 -0.74564610610E+02 -0.15765224013E+03  0.19823974864E+03  0.80545646972E+02 0.  0.
         11    1    4    4    0    0 -0.10605319498E+02 -0.45299876725E+02 -0.10013894060E+03  0.11041901583E+03  0.00000000000E+00 0. -1.
        -12    1    4    4    0    0  0.59567414236E+02 -0.29264733885E+02 -0.57513299535E+02  0.87820732811E+02  0.00000000000E+00 0.  1.
        -13    1    3    3    0    0  0.20843559648E+02 -0.32173753021E+02 -0.12965943481E+03  0.13520788956E+03  0.00000000000E+00 0.  1.
         13    1    3    3    0    0  0.36230896909E+01  0.53880113941E+02 -0.79942801179E+02  0.96473026891E+02  0.00000000000E+00 0. -1.
          2    1    1    2  501    0 -0.73428744076E+02  0.52858249690E+02 -0.18009797533E+03  0.20154665895E+03  0.00000000000E+00 0. -1.
<scales pt_clust_5="13000.00000" pt_clust_6="13000.00000" pt_clust_7="13000.00000" pt_clust_8="13000.00000" pt_clust_9="90.47532"></scales>
<clustering>
<clus scale="   80.546">  5  6 -1 -1</clus>
<clus scale="   90.475">  1  9  2 -1</clus>
<clus scale="   90.475">  1  5  2 -1</clus>
<clus scale="   93.130">  7  8 -1 -1</clus>
<clus scale="   90.475">  1  5  2 -1</clus>
</clustering>
</event>
<event>
 9    1  0.6296820E-005  0.1252273E+03  0.7546771E-02  0.1250960E+00
         21   -1    0    0  501  502  0.00000000000E+00  0.00000000000E+00  0.12462145727E+03  0.12462145727E+03  0.00000000000E+00 0.  1.
          3   -1    0    0  502    0 -0.00000000000E+00 -0.00000000000E+00 -0.59267843204E+03  0.59267843204E+03  0.00000000000E+00 0. -1.
         23    2    1    2    0    0 -0.32381320392E+02  0.38187509703E+02 -0.23746259500E+03  0.26981781246E+03  0.11792511221E+03 0.  0.
        -24    2    1    2    0    0 -0.51032404027E+02 -0.25833976648E+02  0.79401967505E+02  0.12622175479E+03  0.79721755680E+02 0.  0.
         11    1    4    4    0    0  0.10733284792E+02  0.18911038609E+02  0.15248195467E+02  0.26558204923E+02  0.00000000000E+00 0. -1.
        -12    1    4    4    0    0 -0.61765688819E+02 -0.44745015258E+02  0.64153772038E+02  0.99663549869E+02  0.00000000000E+00 0.  1.
        -11    1    3    3    0    0 -0.49777278330E+01  0.73692420383E+02 -0.19305693885E+03  0.20670348868E+03  0.00000000000E+00 0. -1.
         11    1    3    3    0    0 -0.27403592559E+02 -0.35504910680E+02 -0.44405656151E+02  0.63114323776E+02  0.00000000000E+00 0.  1.
          4    1    1    2  501    0  0.83413724419E+02 -0.12353533055E+02 -0.30999634728E+03  0.32126032206E+03  0.00000000000E+00 0. -1.
<scales pt_clust_5="13000.00000" pt_clust_6="13000.00000" pt_clust_7="13000.00000" pt_clust_8="13000.00000" pt_clust_9="84.32358"></scales>
<clustering>
<clus scale="   79.722">  5  6 -1 -1</clus>
<clus scale="   84.324">  1  9  2 -1</clus>
<clus scale="   90.173">  1  5  2 -1</clus>
<clus scale="  117.925">  7  8 -1 -1</clus>
<clus scale="   84.324">  1  5  2 -1</clus>
</clustering>
</event>
<event>
 9    1  0.6296820E-005  0.1554118E+03  0.7546771E-02  0.1195129E+00
          3   -1    0    0  502    0 -0.00000000000E+00  0.00000000000E+00  0.10212508731E+03  0.10212508731E+03  0.00000000000E+00 0. -1.
         21   -1    0    0  501  502  0.00000000000E+00 -0.00000000000E+00 -0.42654671415E+03  0.42654671415E+03  0.00000000000E+00 0. -1.
        -24    2    1    2    0    0 -0.62172919801E+02 -0.10571050338E+03 -0.21531847040E+02  0.15170316312E+03  0.86660526093E+02 0.  0.
         23    2    1    2    0    0  0.27605047380E+02  0.13289989241E+03 -0.28565388280E+03  0.32973224532E+03  0.93278040295E+02 0.  0.
         13    1    3    3    0    0 -0.40822232756E+02 -0.59771602664E+01  0.14198922325E+02  0.43632448101E+02  0.00000000000E+00 0. -1.
        -14    1    3    3    0    0 -0.21350687045E+02 -0.99733343110E+02 -0.35730769366E+02  0.10807071502E+03  0.00000000000E+00 0.  1.
        -11    1    4    4    0    0 -0.21169294162E+02  0.53522535919E+02 -0.17945762405E+03  0.18846177251E+03  0.00000000000E+00 0. -1.
         11    1    4    4    0    0  0.48774341542E+02  0.79377356490E+02 -0.10619625875E+03  0.14127047281E+03  0.00000000000E+00 0.  1.
          4    1    1    2  501    0  0.34567872421E+02 -0.27189389033E+02 -0.17235896992E+02  0.47236393013E+02  0.00000000000E+00 0. -1.
<scales pt_clust_5="13000.00000" pt_clust_6="13000.00000" pt_clust_7="13000.00000" pt_clust_8="13000.00000" pt_clust_9="43.97957"></scales>
<clustering>
<clus scale="   43.980">  2  9  1 -1</clus>
<clus scale="   86.661">  5  6 -1 -1</clus>
<clus scale="   93.278">  7  8 -1 -1</clus>
<clus scale="  151.532">  1  5  2 -1</clus>
<clus scale="   43.980">  2  5  1 -1</clus>
</clustering>
</event>
<event>
 9    1  0.6296820E-005  0.9562411E+02  0.7546771E-02  0.1295023E+00
         21   -1    0    0  501  502  0.00000000000E+00  0.00000000000E+00  0.10038282002E+03  0.10038282002E+03  0.00000000000E+00 0. -1.
         -2   -1    0    0    0  501 -0.00000000000E+00 -0.00000000000E+00 -0.13307183438E+03  0.13307183438E+03  0.00000000000E+00 0.  1.
         23    2    1    2    0    0 -0.26718631262E+02  0.12055129447E+02 -0.61986525371E+02  0.11336302364E+03  0.90275325527E+02 0.  0.
        -24    2    1    2    0    0  0.40100469194E+02  0.83822235332E+01  0.15034734467E+02  0.91804075583E+02  0.80769027183E+02 0.  0.
         13    1    4    4    0    0  0.53950998194E+02  0.28927410223E+01  0.36841307608E+02  0.65393884293E+02  0.00000000000E+00 0. -1.
        -14    1    4    4    0    0 -0.13850529000E+02  0.54894825109E+01 -0.21806573141E+02  0.26410191289E+02  0.00000000000E+00 0.  1.
        -11    1    3    3    0    0 -0.62360775738E+01 -0.21953154784E+02  0.14604278382E+02  0.27094549554E+02  0.00000000000E+00 0. -1.
         11    1    3    3    0    0 -0.20482553688E+02  0.34008284231E+02 -0.76590803753E+02  0.86268474088E+02  0.00000000000E+00 0.  1.
         -1    1    1    2    0  502 -0.13381837932E+02 -0.20437352981E+02  0.14262776544E+02  0.28287555180E+02  0.00000000000E+00 0.  1.
<scales pt_clust_5="13000.00000" pt_clust_6="13000.00000" pt_clust_7="13000.00000" pt_clust_8="13000.00000" pt_clust_9="24.42865"></scales>
<clustering>
<clus scale="   24.429">  1  9  2 -1</clus>
<clus scale="   80.769">  5  6 -1 -1</clus>
<clus scale="   86.706">  1  5  2 -1</clus>
<clus scale="   90.275">  7  8 -1 -1</clus>
<clus scale="   24.429">  1  5  2 -1</clus>
</clustering>
</event>
<event>
 9    1  0.6296820E-005  0.1926968E+03  0.7546771E-02  0.1173056E+00
         21   -1    0    0  501  502  0.00000000000E+00  0.00000000000E+00  0.82777561950E+02  0.82777561950E+02  0.00000000000E+00 0. -1.
          1   -1    0    0  502    0 -0.00000000000E+00 -0.00000000000E+00 -0.10315818409E+04  0.10315818409E+04  0.00000000000E+00 0. -1.
         23    2    1    2    0    0 -0.66818203302E+02 -0.29227211640E+02 -0.53173034476E+03  0.54741816391E+03  0.10775242197E+03 0.  0.
        -24    2    1    2    0    0 -0.14501315525E+03 -0.16772023235E+02 -0.16848144964E+03  0.23711298446E+03  0.80786462788E+02 0.  0.
         13    1    4    4    0    0 -0.10187957449E+03 -0.43936144928E+02 -0.14029532519E+03  0.17886478356E+03  0.00000000000E+00 0. -1.
        -14    1    4    4    0    0 -0.43133580762E+02  0.27164121693E+02 -0.28186124448E+02  0.58248200900E+02  0.00000000000E+00 0.  1.
        -13    1    3    3    0    0 -0.79189642738E+02  0.14842908642E+02 -0.27186611445E+03  0.28355333826E+03  0.00000000000E+00 0.  1.
         13    1    3    3    0    0  0.12371439436E+02 -0.44070120282E+02 -0.25986423032E+03  0.26386482565E+03  0.00000000000E+00 0. -1.
          2    1    1    2  501    0  0.21183135855E+03  0.45999234875E+02 -0.24859248453E+03  0.32982825446E+03  0.00000000000E+00 0. -1.
<scales pt_clust_5="13000.00000" pt_clust_6="13000.00000" pt_clust_7="13000.00000" pt_clust_8="13000.00000" pt_clust_9="174.94461"></scales>
<clustering>
<clus scale="   80.786">  5  6 -1 -1</clus>
<clus scale="  107.752">  7  8 -1 -1</clus>
<clus scale="  130.113">  2  7  1 -1</clus>
<clus scale="  174.945">  1  9  2 -1</clus>
<clus scale="  174.945">  1  5  2 -1</clus>
</clustering>
</event>
<event>
 9    1  0.6296820E-005  0.9872566E+02  0.7546771E-02  0.1288078E+00
         21   -1    0    0  501  502  0.00000000000E+00  0.00000000000E+00  0.47218467596E+02  0.47218467596E+02  0.00000000000E+00 0. -1.
          1   -1    0    0  502    0 -0.00000000000E+00 -0.00000000000E+00 -0.31675042424E+03  0.31675042424E+03  0.00000000000E+00 0. -1.
         23    2    1    2    0    0  0.36866913237E+02  0.83877125980E+01 -0.17221596972E+03  0.19795977644E+03  0.90001165813E+02 0.  0.
        -24    2    1    2    0    0 -0.31251082469E+02 -0.45041126292E+02 -0.64326155688E+02  0.11637707679E+03  0.80002727981E+02 0.  0.
         11    1    4    4    0    0 -0.43577859861E+02 -0.61405428929E+02 -0.42591038228E+02  0.86508110079E+02  0.00000000000E+00 0. -1.
        -12    1    4    4    0    0  0.12326777393E+02  0.16364302636E+02 -0.21735117459E+02  0.29868966715E+02  0.00000000000E+00 0.  1.
        -13    1    3    3    0    0 -0.22452866473E+02  0.24520129091E+02 -0.39029480644E+02  0.51270540302E+02  0.00000000000E+00 0.  1.
         13    1    3    3    0    0  0.59319779709E+02 -0.16132416493E+02 -0.13318648907E+03  0.14668923614E+03  0.00000000000E+00 0. -1.
          2    1    1    2  501    0 -0.56158307680E+01  0.36653413694E+02 -0.32989831236E+02  0.49632038600E+02  0.00000000000E+00 0. -1.
<scales pt_clust_5="13000.00000" pt_clust_6="13000.00000" pt_clust_7="13000.00000" pt_clust_8="13000.00000" pt_clust_9="37.08113"></scales>
<clustering>
<clus scale="   37.081">  1  9  2 -1</clus>
<clus scale="   80.003">  5  6 -1 -1</clus>
<clus scale="   89.705">  1  5  2 -1</clus>
<clus scale="   90.001">  7  8 -1 -1</clus>
<clus scale="   37.081">  1  5  2 -1</clus>
</clustering>
</event>
<event>
 9    1  0.6296820E-005  0.1306857E+03  0.7546771E-02  0.1242038E+00
         21   -1    0    0  501  502  0.00000000000E+00  0.00000000000E+00  0.59633273744E+02  0.59633273744E+02  0.00000000000E+00 0. -1.
          1   -1    0    0  502    0 -0.00000000000E+00 -0.00000000000E+00 -0.61852037602E+03  0.61852037602E+03  0.00000000000E+00 0. -1.
        -24    2    1    2    0    0 -0.19618699660E+02 -0.46554826138E+02 -0.46095512237E+02  0.10551681842E+03  0.80353951415E+02 0.  0.
         23    2    1    2    0    0 -0.75935239517E+02  0.58613007426E+02 -0.41440830118E+03  0.43495884997E+03  0.90847761901E+02 0.  0.
         11    1    3    3    0    0 -0.19926040086E+02  0.91533268594E+01  0.12025429854E+02  0.25008827027E+02  0.00000000000E+00 0. -1.
        -12    1    3    3    0    0  0.30734042616E+00 -0.55708152997E+02 -0.58120942091E+02  0.80507991392E+02  0.00000000000E+00 0.  1.
        -13    1    4    4    0    0 -0.77332080018E+02  0.16036049365E+02 -0.17787380028E+03  0.19461884365E+03  0.00000000000E+00 0. -1.
         13    1    4    4    0    0  0.13968405009E+01  0.42576958061E+02 -0.23653450090E+03  0.24034000632E+03  0.00000000000E+00 0.  1.
          2    1    1    2  501    0  0.95553939177E+02 -0.12058181289E+02 -0.98383288861E+02  0.13767798137E+03  0.00000000000E+00 0. -1.
<scales pt_clust_5="13000.00000" pt_clust_6="13000.00000" pt_clust_7="13000.00000" pt_clust_8="13000.00000" pt_clust_9="93.94383"></scales>
<clustering>
<clus scale="   80.354">  5  6 -1 -1</clus>
<clus scale="   90.848">  7  8 -1 -1</clus>
<clus scale="   94.916">  2  5  1 -1</clus>
<clus scale="   93.944">  1  9  2 -1</clus>
<clus scale="   93.944">  1  5  2 -1</clus>
</clustering>
</event>
<event>
 9    1  0.6296820E-005  0.1146450E+03  0.7546771E-02  0.1256092E+00
          3   -1    0    0  502    0 -0.00000000000E+00  0.00000000000E+00  0.10037841728E+03  0.10037841728E+03  0.00000000000E+00 0. -1.
         21   -1    0    0  501  502  0.00000000000E+00 -0.00000000000E+00 -0.21214515618E+03  0.21214515618E+03  0.00000000000E+00 0.  1.
         23    2    1    2    0    0  0.60219805040E+02  0.26227423542E+02 -0.44772984552E+02  0.12087707688E+03  0.91062313309E+02 0.  0.
        -24    2    1    2    0    0 -0.81088649799E+02  0.13327996776E+02 -0.85655822380E+02  0.14318607208E+03  0.80077004855E+02 0.  0.
         13    1    4    4    0    0 -0.49820361629E+02 -0.83514021586E+01 -0.11713943216E+01  0.50529066047E+02  0.00000000000E+00 0. -1.
        -14    1    4    4    0    0 -0.31268288170E+02  0.21679398935E+02 -0.84484428058E+02  0.92657006036E+02  0.00000000000E+00 0.  1.
        -13    1    3    3    0    0  0.38748975317E+02 -0.23226184084E+02 -0.49184310961E+02  0.66783494666E+02  0.00000000000E+00 0.  1.
         13    1    3    3    0    0  0.21470829724E+02  0.49453607626E+02  0.44113264091E+01  0.54093582216E+02  0.00000000000E+00 0. -1.
          4    1    1    2  501    0  0.20868844759E+02 -0.39555420318E+02  0.18662068032E+02  0.48460424486E+02  0.00000000000E+00 0. -1.
<scales pt_clust_5="13000.00000" pt_clust_6="13000.00000" pt_clust_7="13000.00000" pt_clust_8="13000.00000" pt_clust_9="44.72295"></scales>
<clustering>
<clus scale="   44.723">  2  9  1 -1</clus>
<clus scale="   80.077">  5  6 -1 -1</clus>
<clus scale="   91.062">  7  8 -1 -1</clus>
<clus scale="  106.129">  2  5  1 -1</clus>
<clus scale="   44.723">  2  5  1 -1</clus>
</clustering>
</event>
<event>
 9    1  0.6296820E-005  0.9801288E+02  0.7546771E-02  0.1290397E+00
         21   -1    0    0  501  502  0.00000000000E+00  0.00000000000E+00  0.27279633940E+02  0.27279633940E+02  0.00000000000E+00 0.  1.
          1   -1    0    0  502    0 -0.00000000000E+00 -0.00000000000E+00 -0.56921360874E+03  0.56921360874E+03  0.00000000000E+00 0. -1.
         23    2    1    2    0    0 -0.26552188743E+02  0.49663815352E+02 -0.23232678143E+03  0.25597511283E+03  0.91520553636E+02 0.  0.
        -24    2    1    2    0    0  0.71339973201E+01 -0.95816765667E+01 -0.11488207093E+03  0.14076448829E+03  0.80461472133E+02 0.  0.
         13    1    4    4    0    0  0.31098316867E+02  0.73642668776E+01 -0.10506138633E+03  0.10981453745E+03  0.00000000000E+00 0. -1.
        -14    1    4    4    0    0 -0.23964319547E+02 -0.16945943444E+02 -0.98206846018E+01  0.30949950834E+02  0.00000000000E+00 0.  1.
        -11    1    3    3    0    0  0.11428060501E+02  0.60328891976E+02 -0.18169304430E+03  0.19178774236E+03  0.00000000000E+00 0.  1.
         11    1    3    3    0    0 -0.37980249244E+02 -0.10665076624E+02 -0.50633737128E+02  0.64187370468E+02  0.00000000000E+00 0. -1.
          2    1    1    2  501    0  0.19418191423E+02 -0.40082138786E+02 -0.19472512245E+03  0.19975364157E+03  0.00000000000E+00 0. -1.
<scales pt_clust_5="13000.00000" pt_clust_6="13000.00000" pt_clust_7="13000.00000" pt_clust_8="13000.00000" pt_clust_9="44.53814"></scales>
<clustering>
<clus scale="   44.538">  1  9  2 -1</clus>
<clus scale="   80.461">  5  6 -1 -1</clus>
<clus scale="   87.776">  1  5  2 -1</clus>
<clus scale="   91.521">  7  8 -1 -1</clus>
<clus scale="   44.538">  1  5  2 -1</clus>
</clustering>
</event>
<event>
 9    1  0.6296820E-005  0.1004265E+03  0.7546771E-02  0.1283727E+00
         -4   -1    0    0    0  501 -0.00000000000E+00  0.00000000000E+00  0.23963260102E+03  0.23963260102E+03  0.00000000000E+00 0.  1.
         21   -1    0    0  501  502  0.00000000000E+00 -0.00000000000E+00 -0.18260782214E+03  0.18260782214E+03  0.00000000000E+00 0. -1.
         23    2    1    2    0    0 -0.43935497301E+02  0.11307247049E+02  0.17713544554E+03  0.20364250111E+03  0.89638833280E+02 0.  0.
        -24    2    1    2    0    0  0.49867031293E+02  0.26493352358E+02 -0.64638450685E+01  0.98682666671E+02  0.80671363439E+02 0.  0.
         13    1    4    4    0    0  0.22115483686E+02  0.46653574952E+02 -0.27447157216E+02  0.58472190943E+02  0.00000000000E+00 0. -1.
        -14    1    4    4    0    0  0.27751547607E+02 -0.20160222594E+02  0.20983312148E+02  0.40210475728E+02  0.00000000000E+00 0.  1.
        -11    1    3    3    0    0 -0.53349349465E+02  0.29732775618E+02  0.17171499537E+03  0.18225320482E+03  0.00000000000E+00 0.  1.
         11    1    3    3    0    0  0.94138521632E+01 -0.18425528568E+02  0.54204501765E+01  0.21389296288E+02  0.00000000000E+00 0. -1.
         -3    1    1    2    0  502 -0.59315339917E+01 -0.37800599407E+02 -0.11364682160E+03  0.11991525537E+03  0.00000000000E+00 0.  1.
<scales pt_clust_5="13000.00000" pt_clust_6="13000.00000" pt_clust_7="13000.00000" pt_clust_8="13000.00000" pt_clust_9="38.26315"></scales>
<clustering>
<clus scale="   38.263">  2  9  1 -1</clus>
<clus scale="   80.671">  5  6 -1 -1</clus>
<clus scale="   89.639">  7  8 -1 -1</clus>
<clus scale="   92.511">  2  5  1 -1</clus>
<clus scale="   38.263">  2  5  1 -1</clus>
</clustering>
</event>
<event>
 9    1  0.6296820E-005  0.9822628E+02  0.7546771E-02  0.1290216E+00
          1   -1    0    0  502    0 -0.00000000000E+00  0.00000000000E+00  0.43269497987E+03  0.43269497987E+03  0.00000000000E+00 0. -1.
         21   -1    0    0  501  502  0.00000000000E+00 -0.00000000000E+00 -0.11597535721E+03  0.11597535721E+03  0.00000000000E+00 0.  1.
         23    2    1    2    0    0 -0.36141892190E+02 -0.31256991175E+02  0.34817553408E+03  0.36275313398E+03  0.89891032971E+02 0.  0.
        -24    2    1    2    0    0 -0.26180343868E+02 -0.30162620047E+02 -0.43234636704E+02  0.97626953820E+02  0.77888344752E+02 0.  0.
         13    1    4    4    0    0 -0.12012157055E+02 -0.18672635336E+02  0.21176659166E+02  0.30682407352E+02  0.00000000000E+00 0. -1.
        -14    1    4    4    0    0 -0.14168186813E+02 -0.11489984712E+02 -0.64411295870E+02  0.66944546468E+02  0.00000000000E+00 0.  1.
        -11    1    3    3    0    0  0.12463378389E+02 -0.46967711907E+02  0.13304684855E+03  0.14164309257E+03  0.00000000000E+00 0. -1.
         11    1    3    3    0    0 -0.48605270579E+02  0.15710720732E+02  0.21512868553E+03  0.22111004141E+03  0.00000000000E+00 0.  1.
          2    1    1    2  501    0  0.62322236057E+02  0.61419611222E+02  0.11778725280E+02  0.88290249287E+02  0.00000000000E+00 0. -1.
<scales pt_clust_5="13000.00000" pt_clust_6="13000.00000" pt_clust_7="13000.00000" pt_clust_8="13000.00000" pt_clust_9="87.50103"></scales>
<clustering>
<clus scale="   77.888">  5  6 -1 -1</clus>
<clus scale="   87.501">  2  9  1 -1</clus>
<clus scale="   87.501">  2  5  1 -1</clus>
<clus scale="   89.891">  7  8 -1 -1</clus>
<clus scale="   87.501">  2  5  1 -1</clus>
</clustering>
</event>
<event>
 9    1  0.6296820E-005  0.1385680E+03  0.7546771E-02  0.1217784E+00
          3   -1    0    0  502    0 -0.00000000000E+00  0.00000000000E+00  0.68113589550E+02  0.68113589550E+02  0.00000000000E+00 0. -1.
         21   -1    0    0  501  502  0.00000000000E+00 -0.00000000000E+00 -0.34299137737E+03  0.34299137737E+03  0.00000000000E+00 0. -1.
         23    2    1    2    0    0 -0.60814939093E+02  0.92853274658E+02 -0.84910046607E+02  0.16789259375E+03  0.93048479779E+02 0.  0.
        -24    2    1    2    0    0  0.57093513330E+02 -0.69472922036E+02 -0.18055123613E+03  0.21773374553E+03  0.81994383428E+02 0.  0.
         11    1    4    4    0    0  0.24439539169E+02 -0.78062256090E+02 -0.92767265225E+02  0.12368012127E+03  0.00000000000E+00 0. -1.
        -12    1    4    4    0    0  0.32653974161E+02  0.85893340535E+01 -0.87783970910E+02  0.94053624261E+02  0.00000000000E+00 0.  1.
        -11    1    3    3    0    0 -0.12047947726E+02  0.45116557253E+02 -0.87954521017E+02  0.99582400805E+02  0.00000000000E+00 0.  1.
         11    1    3    3    0    0 -0.48766991366E+02  0.47736717405E+02  0.30444744103E+01  0.68310192943E+02  0.00000000000E+00 0. -1.
          4    1    1    2  501    0  0.37214257627E+01 -0.23380352622E+02 -0.94165050807E+01  0.25478627639E+02  0.00000000000E+00 0. -1.
<scales pt_clust_5="13000.00000" pt_clust_6="13000.00000" pt_clust_7="13000.00000" pt_clust_8="13000.00000" pt_clust_9="23.67468"></scales>
<clustering>
<clus scale="   23.675">  2  9  1 -1</clus>
<clus scale="   81.994">  5  6 -1 -1</clus>
<clus scale="   93.048">  7  8 -1 -1</clus>
<clus scale="  131.401">  2  5  1 -1</clus>
<clus scale="   23.675">  2  5  1 -1</clus>
</clustering>
</event>
<event>
 9    1  0.6296820E-005  0.2482694E+03  0.7546771E-02  0.1118856E+00
          3   -1    0    0  502    0 -0.00000000000E+00  0.00000000000E+00  0.13889742658E+04  0.13889742658E+04  0.00000000000E+00 0. -1.
         21   -1    0    0  501  502  0.00000000000E+00 -0.00000000000E+00 -0.10592952909E+03  0.10592952909E+03  0.00000000000E+00 0. -1.
         23    2    1    2    0    0 -0.15134108193E+03 -0.13278580889E+03  0.27145769345E+03  0.35064534643E+03  0.93416730383E+02 0.  0.
        -24    2    1    2    0    0  0.15584241681E+03 -0.16094555310E+03  0.39892291891E+03  0.46480594511E+03  0.81943525914E+02 0.  0.
         13    1    4    4    0    0  0.14617926680E+03 -0.14367847575E+03  0.39444156033E+03  0.44451774650E+03  0.00000000000E+00 0. -1.
        -14    1    4    4    0    0  0.96631500074E+01 -0.17267077350E+02  0.44813585827E+01  0.20288198615E+02  0.00000000000E+00 0.  1.
        -13    1    3    3    0    0 -0.99931307612E+02 -0.11372368424E+03  0.24896511698E+03  0.29138114570E+03  0.00000000000E+00 0. -1.
         13    1    3    3    0    0 -0.51409774318E+02 -0.19062124652E+02  0.22492576477E+02  0.59264200731E+02  0.00000000000E+00 0.  1.
          4    1    1    2  501    0 -0.45013348766E+01  0.29373136199E+03  0.61266412432E+03  0.67945250332E+03  0.00000000000E+00 0. -1.
<scales pt_clust_5="13000.00000" pt_clust_6="13000.00000" pt_clust_7="13000.00000" pt_clust_8="13000.00000" pt_clust_9="234.35656"></scales>
<clustering>
<clus scale="   81.944">  5  6 -1 -1</clus>
<clus scale="   93.417">  7  8 -1 -1</clus>
<clus scale="  221.953">  1  7  2 -1</clus>
<clus scale="  234.357">  2  9  1 -1</clus>
<clus scale="  234.357">  2  5  1 -1</clus>
</clustering>
</event>
<event>
 9    1  0.6296820E-005  0.1070520E+03  0.7546771E-02  0.1272849E+00
         21   -1    0    0  501  502  0.00000000000E+00  0.00000000000E+00  0.32627743610E+03  0.32627743610E+03  0.00000000000E+00 0. -1.
          3   -1    0    0  502    0 -0.00000000000E+00 -0.00000000000E+00 -0.15589135274E+03  0.15589135274E+03  0.00000000000E+00 0. -1.
         23    2    1    2    0    0  0.60771854755E+01 -0.43061043263E+02 -0.10020352990E+03  0.14520182143E+03  0.95664183016E+02 0.  0.
        -24    2    1    2    0    0  0.35050983229E+02  0.71862294057E+02  0.77782306752E+02  0.13772918045E+03  0.80786627437E+02 0.  0.
         11    1    4    4    0    0  0.56867807443E+02  0.30660331896E+02  0.58911519500E+02  0.87433235129E+02  0.00000000000E+00 0. -1.
        -12    1    4    4    0    0 -0.21816824214E+02  0.41201962161E+02  0.18870787251E+02  0.50295945325E+02  0.00000000000E+00 0.  1.
        -11    1    3    3    0    0  0.30055215170E+02  0.11263005004E+02 -0.73283769273E+02  0.80004262883E+02  0.00000000000E+00 0. -1.
         11    1    3    3    0    0 -0.23978029695E+02 -0.54324048267E+02 -0.26919760623E+02  0.65197558544E+02  0.00000000000E+00 0.  1.
          4    1    1    2  501    0 -0.41128168705E+02 -0.28801250793E+02  0.19280730651E+03  0.19923778696E+03  0.00000000000E+00 0. -1.
<scales pt_clust_5="13000.00000" pt_clust_6="13000.00000" pt_clust_7="13000.00000" pt_clust_8="13000.00000" pt_clust_9="50.20994"></scales>
<clustering>
<clus scale="   50.210">  1  9  2 -1</clus>
<clus scale="   80.787">  5  6 -1 -1</clus>
<clus scale="   93.995">  1  5  2 -1</clus>
<clus scale="   95.664">  7  8 -1 -1</clus>
<clus scale="   50.210">  1  5  2 -1</clus>
</clustering>
</event>
<event>
 9    1  0.6296820E-005  0.2389508E+03  0.7546771E-02  0.1120494E+00
         21   -1    0    0  501  502  0.00000000000E+00  0.00000000000E+00  0.11812242638E+03  0.11812242638E+03  0.00000000000E+00 0. -1.
          1   -1    0    0  502    0 -0.00000000000E+00 -0.00000000000E+00 -0.32996759012E+03  0.32996759012E+03  0.00000000000E+00 0. -1.
        -24    2    1    2    0    0 -0.34312684570E+02  0.78977806895E+02 -0.62473664956E+02  0.13303745803E+03  0.79882113899E+02 0.  0.
         23    2    1    2    0    0  0.29084274964E+02  0.70244980484E+02 -0.27412164897E+02  0.12226029810E+03  0.91738221987E+02 0.  0.
         13    1    3    3    0    0  0.21901628285E+02  0.13868255999E+02 -0.33310699025E+02  0.42209152035E+02  0.00000000000E+00 0. -1.
        -14    1    3    3    0    0 -0.56214312855E+02  0.65109550895E+02 -0.29162965931E+02  0.90828305992E+02  0.00000000000E+00 0.  1.
        -13    1    4    4    0    0 -0.19737342699E+02 -0.11779697897E+02 -0.10699571439E+02  0.25353595571E+02  0.00000000000E+00 0.  1.
         13    1    4    4    0    0  0.48821617663E+02  0.82024678381E+02 -0.16712593458E+02  0.96906702528E+02  0.00000000000E+00 0. -1.
          2    1    1    2  501    0  0.52284096060E+01 -0.14922278738E+03 -0.12195933388E+03  0.19279226038E+03  0.00000000000E+00 0. -1.
<scales pt_clust_5="13000.00000" pt_clust_6="13000.00000" pt_clust_7="13000.00000" pt_clust_8="13000.00000" pt_clust_9="149.31443"></scales>
<clustering>
<clus scale="   79.882">  5  6 -1 -1</clus>
<clus scale="   91.738">  7  8 -1 -1</clus>
<clus scale="  114.223">  5  7 -1 -1</clus>
<clus scale="  149.314">  1  9  2 -1</clus>
<clus scale="  149.314">  1  5  2 -1</clus>
</clustering>
</event>
<event>
 9    1  0.9454681E-005  0.8851805E+02  0.7546771E-02  0.1308528E+00
         21   -1    0    0  501  502  0.00000000000E+00  0.00000000000E+00  0.98035077389E+02  0.98035077389E+02  0.00000000000E+00 0. -1.
          1   -1    0    0  502    0 -0.00000000000E+00 -0.00000000000E+00 -0.62721434309E+03  0.62721434309E+03  0.00000000000E+00 0. -1.
        -24    2    1    2    0    0  0.31136000593E+01 -0.33111786754E+02 -0.53753255388E+03  0.54452935741E+03  0.80404537613E+02 0.  0.
         23    2    1    2    0    0 -0.36693963171E+02 -0.21617192994E+02 -0.38111473618E+02  0.10146177580E+03  0.83834703795E+02 0.  0.
         11    1    3    3    0    0  0.26421586262E+02 -0.50866425277E+02 -0.33047980061E+03  0.33541376246E+03  0.00000000000E+00 0. -1.
        -12    1    3    3    0    0 -0.23307986203E+02  0.17754638523E+02 -0.20705275328E+03  0.20911559495E+03  0.00000000000E+00 0.  1.
        -13    1    4    4    0    0  0.18581186415E+02 -0.24982076188E+02  0.46711549373E+01  0.31483079704E+02  0.00000000000E+00 0.  1.
         13    1    4    4    0    0 -0.55275149586E+02  0.33648831934E+01 -0.42782628556E+02  0.69978696092E+02  0.00000000000E+00 0. -1.
          2    1    1    2  501    0  0.33580363112E+02  0.54728979748E+02  0.46464761806E+02  0.79258287268E+02  0.00000000000E+00 0. -1.
<scales pt_clust_5="13000.00000" pt_clust_6="13000.00000" pt_clust_7="13000.00000" pt_clust_8="13000.00000" pt_clust_9="64.20983"></scales>
<clustering>
<clus scale="   64.210">  1  9  2 -1</clus>
<clus scale="   80.405">  5  6 -1 -1</clus>
<clus scale="   83.835">  7  8 -1 -1</clus>
<clus scale="   85.276">  2  5  1 -1</clus>
<clus scale="   64.210">  1  5  2 -1</clus>
</clustering>
</event>
<event>
 9    1  0.6296820E-005  0.1228343E+03  0.7546771E-02  0.1242334E+00
          1   -1    0    0  502    0 -0.00000000000E+00  0.00000000000E+00  0.37682601536E+03  0.37682601536E+03  0.00000000000E+00 0. -1.
         21   -1    0    0  501  502  0.00000000000E+00 -0.00000000000E+00 -0.15841930088E+03  0.15841930088E+03  0.00000000000E+00 0. -1.
         23    2    1    2    0    0 -0.62567259508E+02  0.46637940786E+02  0.22664935541E+03  0.25700089854E+03  0.92681023177E+02 0.  0.
        -24    2    1    2    0    0  0.10221250707E+03 -0.36238860126E+02 -0.10648925407E+03  0.17179121894E+03  0.80072530171E+02 0.  0.
         13    1    4    4    0    0  0.10532304610E+03 -0.71953750283E+01 -0.84799815350E+02  0.13540947583E+03  0.00000000000E+00 0. -1.
        -14    1    4    4    0    0 -0.31105390292E+01 -0.29043485098E+02 -0.21689438722E+02  0.36381743111E+02  0.00000000000E+00 0.  1.
        -13    1    3    3    0    0 -0.47251484796E+02  0.65263585790E+02  0.21618922562E+03  0.23071588528E+03  0.00000000000E+00 0. -1.
         13    1    3    3    0    0 -0.15315774713E+02 -0.18625645004E+02  0.10460129795E+02  0.26285013262E+02  0.00000000000E+00 0.  1.
          2    1    1    2  501    0 -0.39645247563E+02 -0.10399080660E+02  0.98246613135E+02  0.10645319876E+03  0.00000000000E+00 0. -1.
<scales pt_clust_5="13000.00000" pt_clust_6="13000.00000" pt_clust_7="13000.00000" pt_clust_8="13000.00000" pt_clust_9="40.98644"></scales>
<clustering>
<clus scale="   40.986">  2  9  1 -1</clus>
<clus scale="   80.073">  5  6 -1 -1</clus>
<clus scale="   92.681">  7  8 -1 -1</clus>
<clus scale="  113.623">  2  5  1 -1</clus>
<clus scale="   40.986">  2  5  1 -1</clus>
</clustering>
</event>
<event>
 9    1  0.6296820E-005  0.9696190E+02  0.7546771E-02  0.1291931E+00
         21   -1    0    0  501  502  0.00000000000E+00  0.00000000000E+00  0.80004063968E+02  0.80004063968E+02  0.00000000000E+00 0. -1.
         -4   -1    0    0    0  501 -0.00000000000E+00 -0.00000000000E+00 -0.33638210491E+03  0.33638210491E+03  0.00000000000E+00 0.  1.
         23    2    1    2    0    0 -0.20086432469E+02 -0.46904275729E+01 -0.11797212928E+03  0.15118165909E+03  0.92265951886E+02 0.  0.
        -24    2    1    2    0    0  0.58685182588E+02 -0.47829682193E+02 -0.54900854979E-01  0.11226913902E+03  0.82901914385E+02 0.  0.
         13    1    4    4    0    0  0.67298198937E+02 -0.26471367866E+02  0.26590343978E+02  0.77050809793E+02  0.00000000000E+00 0. -1.
        -14    1    4    4    0    0 -0.86130163490E+01 -0.21358314327E+02 -0.26645244833E+02  0.35218329230E+02  0.00000000000E+00 0.  1.
        -13    1    3    3    0    0 -0.15250196187E+02  0.37847803026E+02 -0.22609890219E+02  0.46650099821E+02  0.00000000000E+00 0. -1.
         13    1    3    3    0    0 -0.48362362817E+01 -0.42538230599E+02 -0.95362239064E+02  0.10453155927E+03  0.00000000000E+00 0.  1.
         -3    1    1    2    0  502 -0.38598750119E+02  0.52520109766E+02 -0.13835101080E+03  0.15293537076E+03  0.00000000000E+00 0.  1.
<scales pt_clust_5="13000.00000" pt_clust_6="13000.00000" pt_clust_7="13000.00000" pt_clust_8="13000.00000" pt_clust_9="65.17844"></scales>
<clustering>
<clus scale="   65.178">  1  9  2 -1</clus>
<clus scale="   82.902">  5  6 -1 -1</clus>
<clus scale="   88.098">  1  5  2 -1</clus>
<clus scale="   92.266">  7  8 -1 -1</clus>
<clus scale="   65.178">  1  5  2 -1</clus>
</clustering>
</event>
<event>
 9    1  0.6296820E-005  0.1011995E+03  0.7546771E-02  0.1283229E+00
          1   -1    0    0  502    0 -0.00000000000E+00  0.00000000000E+00  0.46584612282E+03  0.46584612282E+03  0.00000000000E+00 0. -1.
         21   -1    0    0  501  502  0.00000000000E+00 -0.00000000000E+00 -0.51205803226E+02  0.51205803226E+02  0.00000000000E+00 0.  1.
         23    2    1    2    0    0 -0.16278196968E+02 -0.33951073085E+02  0.30433737296E+03  0.31985807249E+03  0.90941161718E+02 0.  0.
        -24    2    1    2    0    0  0.32533161924E+02  0.49290229986E+02  0.13260539160E+03  0.16561992964E+03  0.79736050909E+02 0.  0.
         13    1    4    4    0    0 -0.21629346081E+02 -0.49652341585E+01  0.36019439442E+02  0.42306999183E+02  0.00000000000E+00 0. -1.
        -14    1    4    4    0    0  0.54162508005E+02  0.54255464145E+02  0.96585952162E+02  0.12331293046E+03  0.00000000000E+00 0.  1.
        -11    1    3    3    0    0 -0.17219290780E+02  0.14803506156E+02  0.16881561805E+02  0.28295492547E+02  0.00000000000E+00 0.  1.
         11    1    3    3    0    0  0.94109381196E+00 -0.48754579241E+02  0.28745581115E+03  0.29156257994E+03  0.00000000000E+00 0. -1.
          2    1    1    2  501    0 -0.16254964956E+02 -0.15339156901E+02 -0.22302444969E+02  0.31573923921E+02  0.00000000000E+00 0. -1.
<scales pt_clust_5="13000.00000" pt_clust_6="13000.00000" pt_clust_7="13000.00000" pt_clust_8="13000.00000" pt_clust_9="22.34980"></scales>
<clustering>
<clus scale="   22.350">  2  9  1 -1</clus>
<clus scale="   79.736">  5  6 -1 -1</clus>
<clus scale="   90.941">  7  8 -1 -1</clus>
<clus scale="   91.263">  2  5  1 -1</clus>
<clus scale="   22.350">  2  5  1 -1</clus>
</clustering>
</event>
<event>
 9    1  0.6296820E-005  0.1489304E+03  0.7546771E-02  0.1204257E+00
          3   -1    0    0  502    0 -0.00000000000E+00  0.00000000000E+00  0.95071488492E+02  0.95071488492E+02  0.00000000000E+00 0. -1.
         21   -1    0    0  501  502  0.00000000000E+00 -0.00000000000E+00 -0.40205815984E+03  0.40205815984E+03  0.00000000000E+00 0. -1.
        -24    2    1    2    0    0  0.46978616317E+02 -0.11319033580E+03  0.36390054901E+01  0.14490348849E+03  0.77231704026E+02 0.  0.
         23    2    1    2    0    0 -0.22129990732E+02  0.10108964573E+03 -0.24386353255E+03  0.27996922381E+03  0.90578644347E+02 0.  0.
         11    1    3    3    0    0  0.46870934903E+02 -0.12109926670E+03  0.15364840509E+02  0.13075930276E+03  0.00000000000E+00 0. -1.
        -12    1    3    3    0    0  0.10768141384E+00  0.79089308975E+01 -0.11725835019E+02  0.14144185736E+02  0.00000000000E+00 0.  1.
        -11    1    4    4    0    0  0.34304397674E+02  0.41728639547E+02 -0.76641284771E+02  0.93765439206E+02  0.00000000000E+00 0. -1.
         11    1    4    4    0    0 -0.56434388406E+02  0.59361006178E+02 -0.16722224778E+03  0.18620378461E+03  0.00000000000E+00 0.  1.
          4    1    1    2  501    0 -0.24848625585E+02  0.12100690077E+02 -0.66762144288E+02  0.72256936025E+02  0.00000000000E+00 0. -1.
<scales pt_clust_5="13000.00000" pt_clust_6="13000.00000" pt_clust_7="13000.00000" pt_clust_8="13000.00000" pt_clust_9="27.63840"></scales>
<clustering>
<clus scale="   27.638">  2  9  1 -1</clus>
<clus scale="   77.232">  5  6 -1 -1</clus>
<clus scale="   90.579">  7  8 -1 -1</clus>
<clus scale="  141.211">  1  5  2 -1</clus>
<clus scale="   27.638">  2  5  1 -1</clus>
</clustering>
</event>
<event>
 9    1  0.6296820E-005  0.9343242E+02  0.7546771E-02  0.1300035E+00
         -2   -1    0    0    0  501 -0.00000000000E+00  0.00000000000E+00  0.26425977241E+03  0.26425977241E+03  0.00000000000E+00 0.  1.
         21   -1    0    0  501  502  0.00000000000E+00 -0.00000000000E+00 -0.10120454129E+03  0.10120454129E+03  0.00000000000E+00 0.  1.
         23    2    1    2    0    0  0.16715552759E+02  0.14520253336E+02  0.17893386304E+03  0.20126317532E+03  0.89438755237E+02 0.  0.
        -24    2    1    2    0    0  0.60638850847E+01 -0.61531082596E+02  0.16598552240E+02  0.10268944561E+03  0.80291752227E+02 0.  0.
         13    1    4    4    0    0 -0.27618726709E+02 -0.42032730148E+02  0.33319638928E+02  0.60330281012E+02  0.00000000000E+00 0. -1.
        -14    1    4    4    0    0  0.33682611794E+02 -0.19498352448E+02 -0.16721086688E+02  0.42359164598E+02  0.00000000000E+00 0.  1.
        -13    1    3    3    0    0  0.45782057093E+02 -0.11117984955E+02  0.13335922959E+03  0.14143652448E+03  0.00000000000E+00 0.  1.
         13    1    3    3    0    0 -0.29066504333E+02  0.25638238291E+02  0.45574633451E+02  0.59826650842E+02  0.00000000000E+00 0. -1.
         -1    1    1    2    0  502 -0.22779437844E+02  0.47010829260E+02 -0.32477184163E+02  0.61511692769E+02  0.00000000000E+00 0.  1.
<scales pt_clust_5="13000.00000" pt_clust_6="13000.00000" pt_clust_7="13000.00000" pt_clust_8="13000.00000" pt_clust_9="52.23907"></scales>
<clustering>
<clus scale="   52.239">  2  9  1 -1</clus>
<clus scale="   80.292">  5  6 -1 -1</clus>
<clus scale="   84.718">  2  5  1 -1</clus>
<clus scale="   89.439">  7  8 -1 -1</clus>
<clus scale="   52.239">  2  5  1 -1</clus>
</clustering>
</event>
<event>
 9    1  0.6296820E-005  0.1238783E+03  0.7546771E-02  0.1239124E+00
          1   -1    0    0  502    0 -0.00000000000E+00  0.00000000000E+00  0.55027329670E+03  0.55027329670E+03  0.00000000000E+00 0. -1.
         21   -1    0    0  501  502  0.00000000000E+00 -0.00000000000E+00 -0.81273930187E+02  0.81273930187E+02  0.00000000000E+00 0.  1.
         23    2    1    2    0    0 -0.39092567104E+02 -0.66943899045E+02  0.23703297585E+03  0.26530657322E+03  0.90516472155E+02 0.  0.
        -24    2    1    2    0    0 -0.58516460870E+02  0.11755242415E+03  0.19723370672E+03  0.25093625440E+03  0.82614285037E+02 0.  0.
         13    1    4    4    0    0 -0.23139827357E+02  0.32334974709E+02  0.13220430790E+03  0.13805426913E+03  0.00000000000E+00 0. -1.
        -14    1    4    4    0    0 -0.35376633513E+02  0.85217449437E+02  0.65029398824E+02  0.11288198527E+03  0.00000000000E+00 0.  1.
        -11    1    3    3    0    0 -0.64731331199E+02 -0.45241452887E+02  0.20143022138E+03  0.21635865682E+03  0.00000000000E+00 0. -1.
         11    1    3    3    0    0  0.25638764095E+02 -0.21702446158E+02  0.35602754472E+02  0.48947916397E+02  0.00000000000E+00 0.  1.
          2    1    1    2  501    0  0.97609027974E+02 -0.50608525101E+02  0.34732683940E+02  0.11530439926E+03  0.00000000000E+00 0. -1.
<scales pt_clust_5="13000.00000" pt_clust_6="13000.00000" pt_clust_7="13000.00000" pt_clust_8="13000.00000" pt_clust_9="109.94883"></scales>
<clustering>
<clus scale="   82.614">  5  6 -1 -1</clus>
<clus scale="   90.516">  7  8 -1 -1</clus>
<clus scale="  109.949">  2  9  1 -1</clus>
<clus scale="  118.227">  2  5  1 -1</clus>
<clus scale="  109.949">  2  5  1 -1</clus>
</clustering>
</event>
<event>
 9    1  0.9304957E-005  0.1250132E+03  0.7546771E-02  0.1248600E+00
          3   -1    0    0  502    0 -0.00000000000E+00  0.00000000000E+00  0.42072346125E+03  0.42072346125E+03  0.00000000000E+00 0. -1.
         21   -1    0    0  501  502  0.00000000000E+00 -0.00000000000E+00 -0.29179806905E+03  0.29179806905E+03  0.00000000000E+00 0. -1.
         23    2    1    2    0    0 -0.21040527451E+01 -0.23988081241E+02  0.25710604522E+03  0.27410039999E+03  0.91911129402E+02 0.  0.
        -24    2    1    2    0    0 -0.93637998939E+02  0.14987459466E+02  0.11973973585E+03  0.17250371668E+03  0.80170001495E+02 0.  0.
         13    1    4    4    0    0 -0.10127715493E+03  0.77056956838E+01  0.12470974681E+03  0.16083830640E+03  0.00000000000E+00 0. -1.
        -14    1    4    4    0    0  0.76391559924E+01  0.72817637825E+01 -0.49700109560E+01  0.11665410278E+02  0.00000000000E+00 0.  1.
        -13    1    3    3    0    0  0.43109017100E+02 -0.24100390601E+02  0.14690798231E+03  0.15498764935E+03  0.00000000000E+00 0. -1.
         13    1    3    3    0    0 -0.45213069845E+02  0.11230936022E+00  0.11019806291E+03  0.11911275065E+03  0.00000000000E+00 0.  1.
          4    1    1    2  501    0  0.95742051684E+02  0.90006217746E+01 -0.24792038887E+03  0.26591741363E+03  0.00000000000E+00 0. -1.
<scales pt_clust_5="13000.00000" pt_clust_6="13000.00000" pt_clust_7="13000.00000" pt_clust_8="13000.00000" pt_clust_9="95.92227"></scales>
<clustering>
<clus scale="   80.170">  5  6 -1 -1</clus>
<clus scale="   91.911">  7  8 -1 -1</clus>
<clus scale="   95.013">  1  7  2 -1</clus>
<clus scale="   95.922">  2  9  1 -1</clus>
<clus scale="   95.922">  2  5  1 -1</clus>
</clustering>
</event>
<event>
 9    1  0.6296820E-005  0.9200111E+02  0.7546771E-02  0.1305567E+00
          1   -1    0    0  502    0 -0.00000000000E+00  0.00000000000E+00  0.36781447048E+03  0.36781447048E+03  0.00000000000E+00 0. -1.
         21   -1    0    0  501  502  0.00000000000E+00 -0.00000000000E+00 -0.42296689409E+02  0.42296689409E+02  0.00000000000E+00 0. -1.
         23    2    1    2    0    0  0.16407555077E+02 -0.14040616084E+02  0.20077722639E+03  0.22148037817E+03  0.90970965221E+02 0.  0.
        -24    2    1    2    0    0 -0.71467858176E+01 -0.34025911256E+02  0.10484426316E+03  0.13579125755E+03  0.78981687280E+02 0.  0.
         13    1    4    4    0    0 -0.33656525931E+02 -0.14595078246E+02  0.94441215625E+02  0.10131594769E+03  0.00000000000E+00 0. -1.
        -14    1    4    4    0    0  0.26509740113E+02 -0.19430833010E+02  0.10403047534E+02  0.34475309866E+02  0.00000000000E+00 0.  1.
        -11    1    3    3    0    0  0.47662012198E+02 -0.19152554654E+02  0.16893050479E+03  0.17656727671E+03  0.00000000000E+00 0.  1.
         11    1    3    3    0    0 -0.31254457121E+02  0.51119385695E+01  0.31846721599E+02  0.44913101457E+02  0.00000000000E+00 0. -1.
          2    1    1    2  501    0 -0.92607692596E+01  0.48066527340E+02  0.19896291516E+02  0.52839524164E+02  0.00000000000E+00 0. -1.
<scales pt_clust_5="13000.00000" pt_clust_6="13000.00000" pt_clust_7="13000.00000" pt_clust_8="13000.00000" pt_clust_9="48.95051"></scales>
<clustering>
<clus scale="   48.951">  2  9  1 -1</clus>
<clus scale="   78.982">  5  6 -1 -1</clus>
<clus scale="   80.166">  2  5  1 -1</clus>
<clus scale="   90.971">  7  8 -1 -1</clus>
<clus scale="   48.951">  2  5  1 -1</clus>
</clustering>
</event>
<event>
 9    1  0.6296820E-005  0.9710609E+02  0.7546771E-02  0.1292966E+00
         21   -1    0    0  501  502  0.00000000000E+00  0.00000000000E+00  0.56781815370E+02  0.56781815370E+02  0.00000000000E+00 0.  1.
         -4   -1    0    0    0  501 -0.00000000000E+00 -0.00000000000E+00 -0.28969247595E+03  0.28969247595E+03  0.00000000000E+00 0.  1.
         23    2    1    2    0    0 -0.71891464402E+01  0.20664938011E+02 -0.14460489370E+03  0.17227851932E+03  0.91052674027E+02 0.  0.
        -24    2    1    2    0    0  0.37738933325E+02 -0.35805730404E+02 -0.10040197183E+03  0.13801772275E+03  0.79133168951E+02 0.  0.
         13    1    4    4    0    0  0.45016660308E+02 -0.52108799384E+01 -0.96135412900E+02  0.10628109234E+03  0.00000000000E+00 0. -1.
        -14    1    4    4    0    0 -0.72777269830E+01 -0.30594850465E+02 -0.42665589313E+01  0.31736630416E+02  0.00000000000E+00 0.  1.
        -11    1    3    3    0    0 -0.66331325884E+01  0.42737884917E+02 -0.14382254067E+03  0.15018471447E+03  0.00000000000E+00 0.  1.
         11    1    3    3    0    0 -0.55601385175E+00 -0.22072946906E+02 -0.78235302814E+00  0.22093804850E+02  0.00000000000E+00 0. -1.
         -3    1    1    2    0  502 -0.30549786885E+02  0.15140792392E+02  0.12096204952E+02  0.36178049246E+02  0.00000000000E+00 0.  1.
<scales pt_clust_5="13000.00000" pt_clust_6="13000.00000" pt_clust_7="13000.00000" pt_clust_8="13000.00000" pt_clust_9="34.09594"></scales>
<clustering>
<clus scale="   34.096">  1  9  2 -1</clus>
<clus scale="   79.133">  5  6 -1 -1</clus>
<clus scale="   86.029">  1  5  2 -1</clus>
<clus scale="   91.053">  7  8 -1 -1</clus>
<clus scale="   34.096">  1  5  2 -1</clus>
</clustering>
</event>
<event>
 9    1  0.6296820E-005  0.2172690E+03  0.7546771E-02  0.1159974E+00
         21   -1    0    0  501  502  0.00000000000E+00  0.00000000000E+00  0.12813267550E+03  0.12813267550E+03  0.00000000000E+00 0. -1.
          1   -1    0    0  502    0 -0.00000000000E+00 -0.00000000000E+00 -0.12780932642E+04  0.12780932642E+04  0.00000000000E+00 0. -1.
         23    2    1    2    0    0 -0.45627284457E+02 -0.65467963754E+02 -0.11290550692E+03  0.16671448914E+03  0.93156663907E+02 0.  0.
        -24    2    1    2    0    0  0.11775120315E+03  0.24569555728E+03 -0.10030086204E+04  0.10424251582E+04  0.79951641908E+02 0.  0.
         11    1    4    4    0    0  0.11790055030E+03  0.20573392404E+03 -0.75937453832E+03  0.79553546540E+03  0.00000000000E+00 0. -1.
        -12    1    4    4    0    0 -0.14934715271E+00  0.39961633235E+02 -0.24363408210E+03  0.24688969277E+03  0.00000000000E+00 0.  1.
        -11    1    3    3    0    0  0.28371490195E+02 -0.26680318740E+02 -0.31886729350E+02  0.50334325987E+02  0.00000000000E+00 0. -1.
         11    1    3    3    0    0 -0.73998774653E+02 -0.38787645014E+02 -0.81018777570E+02  0.11638016315E+03  0.00000000000E+00 0.  1.
          2    1    1    2  501    0 -0.72123918689E+02 -0.18022759352E+03 -0.34046461339E+02  0.19708629238E+03  0.00000000000E+00 0. -1.
<scales pt_clust_5="13000.00000" pt_clust_6="13000.00000" pt_clust_7="13000.00000" pt_clust_8="13000.00000" pt_clust_9="202.02365"></scales>
<clustering>
<clus scale="   79.952">  5  6 -1 -1</clus>
<clus scale="   93.157">  7  8 -1 -1</clus>
<clus scale="  122.662">  2  7  1 -1</clus>
<clus scale="  202.024">  1  9  2 -1</clus>
<clus scale="  202.024">  1  5  2 -1</clus>
</clustering>
</event>
<event>
 9    1  0.6296820E-005  0.1238468E+03  0.7546771E-02  0.1247434E+00
         21   -1    0    0  501  502  0.00000000000E+00  0.00000000000E+00  0.64722496660E+03  0.64722496660E+03  0.00000000000E+00 0. -1.
          3   -1    0    0  502    0 -0.00000000000E+00 -0.00000000000E+00 -0.11211533635E+03  0.11211533635E+03  0.00000000000E+00 0. -1.
         23    2    1    2    0    0  0.35272728306E+02  0.18886676118E+02 -0.64279387287E+02  0.11890554025E+03  0.91683237159E+02 0.  0.
        -24    2    1    2    0    0  0.70433033051E+02 -0.50176196175E+01  0.19803207345E+03  0.22515960659E+03  0.80586336752E+02 0.  0.
         13    1    4    4    0    0  0.65486803378E+02  0.27748750252E+02  0.15743633348E+03  0.17275622610E+03  0.00000000000E+00 0. -1.
        -14    1    4    4    0    0  0.49462296729E+01 -0.32766369869E+02  0.40595739973E+02  0.52403380486E+02  0.00000000000E+00 0.  1.
        -13    1    3    3    0    0  0.22680342432E+02 -0.53036711154E+01  0.19764467653E+02  0.30547684720E+02  0.00000000000E+00 0.  1.
         13    1    3    3    0    0  0.12592385874E+02  0.24190347234E+02 -0.84043854940E+02  0.88357855534E+02  0.00000000000E+00 0. -1.
          4    1    1    2  501    0 -0.10570576136E+03 -0.13869056501E+02  0.40135694408E+03  0.41527515610E+03  0.00000000000E+00 0. -1.
<scales pt_clust_5="13000.00000" pt_clust_6="13000.00000" pt_clust_7="13000.00000" pt_clust_8="13000.00000" pt_clust_9="94.04186"></scales>
<clustering>
<clus scale="   80.586">  5  6 -1 -1</clus>
<clus scale="   91.683">  7  8 -1 -1</clus>
<clus scale="  100.033">  2  7  1 -1</clus>
<clus scale="   94.042">  1  9  2 -1</clus>
<clus scale="   94.042">  1  5  2 -1</clus>
</clustering>
</event>
<event>
 9    1  0.6296820E-005  0.3409047E+03  0.7546771E-02  0.1066411E+00
         21   -1    0    0  501  502  0.00000000000E+00  0.00000000000E+00  0.90159973687E+03  0.90159973687E+03  0.00000000000E+00 0. -1.
          3   -1    0    0  502    0 -0.00000000000E+00 -0.00000000000E+00 -0.11109284960E+03  0.11109284960E+03  0.00000000000E+00 0. -1.
        -24    2    1    2    0    0 -0.39629653032E+02 -0.67132237037E+02  0.15404165325E+03  0.19033222005E+03  0.80126627322E+02 0.  0.
         23    2    1    2    0    0 -0.14603545260E+03 -0.15131123333E+03  0.20917969719E+03  0.30781006647E+03  0.82276658639E+02 0.  0.
         13    1    3    3    0    0 -0.15841943647E+02 -0.71915074724E+02  0.65594753484E+02  0.98617528035E+02  0.00000000000E+00 0. -1.
        -14    1    3    3    0    0 -0.23787709385E+02  0.47828376870E+01  0.88446899766E+02  0.91714692020E+02  0.00000000000E+00 0.  1.
        -13    1    4    4    0    0 -0.11210749544E+03 -0.13402665339E+03  0.20521627809E+03  0.26952728089E+03  0.00000000000E+00 0.  1.
         13    1    4    4    0    0 -0.33927957163E+02 -0.17284579940E+02  0.39634191041E+01  0.38282785582E+02  0.00000000000E+00 0. -1.
          4    1    1    2  501    0  0.18566510564E+03  0.21844347036E+03  0.42728553683E+03  0.51455029995E+03  0.00000000000E+00 0. -1.
<scales pt_clust_5="13000.00000" pt_clust_6="13000.00000" pt_clust_7="13000.00000" pt_clust_8="13000.00000" pt_clust_9="286.68638"></scales>
<clustering>
<clus scale="   80.127">  5  6 -1 -1</clus>
<clus scale="   82.277">  7  8 -1 -1</clus>
<clus scale="   88.535">  5  7 -1 -1</clus>
<clus scale="  286.686">  1  9  2 -1</clus>
<clus scale="  286.686">  1  5  2 -1</clus>
</clustering>
</event>
<event>
 9    1  0.6296820E-005  0.1464859E+03  0.7546771E-02  0.1233074E+00
         -2   -1    0    0    0  501 -0.00000000000E+00  0.00000000000E+00  0.30069713043E+03  0.30069713043E+03  0.00000000000E+00 0.  1.
         21   -1    0    0  501  502  0.00000000000E+00 -0.00000000000E+00 -0.17444465999E+03  0.17444465999E+03  0.00000000000E+00 0.  1.
        -24    2    1    2    0    0 -0.41444078595E+01  0.26349753554E+00  0.84771291405E+02  0.11718961155E+03  0.80808339059E+02 0.  0.
         23    2    1    2    0    0  0.12015227277E+03  0.65578139103E+01  0.14067305378E+03  0.20516676391E+03  0.88458574359E+02 0.  0.
         13    1    3    3    0    0 -0.33963296105E+02  0.11364918129E+01  0.81215673596E+01  0.34939332454E+02  0.00000000000E+00 0. -1.
        -14    1    3    3    0    0  0.29818888246E+02 -0.87299427732E+00  0.76649724045E+02  0.82250279096E+02  0.00000000000E+00 0.  1.
        -13    1    4    4    0    0  0.10120574180E+03 -0.27978383619E+01  0.51626386701E+02  0.11364732235E+03  0.00000000000E+00 0.  1.
         13    1    4    4    0    0  0.18946530964E+02  0.93556522722E+01  0.89046667080E+02  0.91519441558E+02  0.00000000000E+00 0. -1.
         -1    1    1    2    0  502 -0.11600786491E+03 -0.68213114459E+01 -0.99191874747E+02  0.15278541497E+03  0.00000000000E+00 0.  1.
<scales pt_clust_5="13000.00000" pt_clust_6="13000.00000" pt_clust_7="13000.00000" pt_clust_8="13000.00000" pt_clust_9="116.76130"></scales>
<clustering>
<clus scale="   80.808">  5  6 -1 -1</clus>
<clus scale="   80.915">  1  5  2 -1</clus>
<clus scale="   88.459">  7  8 -1 -1</clus>
<clus scale="  116.761">  2  9  1 -1</clus>
<clus scale="  116.761">  2  5  1 -1</clus>
</clustering>
</event>
<event>
 9    1  0.6296820E-005  0.2411520E+03  0.7546771E-02  0.1120143E+00
          1   -1    0    0  502    0 -0.00000000000E+00  0.00000000000E+00  0.11600430761E+04  0.11600430761E+04  0.00000000000E+00 0. -1.
         21   -1    0    0  501  502  0.00000000000E+00 -0.00000000000E+00 -0.18216182730E+03  0.18216182730E+03  0.00000000000E+00 0. -1.
         23    2    1    2    0    0 -0.68088137751E+02  0.20694467191E+03  0.98625370082E+03  0.10146084465E+04  0.96290423180E+02 0.  0.
        -24    2    1    2    0    0  0.10262664726E+03 -0.22523851216E+03  0.42929223697E+02  0.26310277387E+03  0.78201887965E+02 0.  0.
         11    1    4    4    0    0  0.25580592143E+02 -0.77731343040E+01 -0.56677409782E+01  0.27329683480E+02  0.00000000000E+00 0. -1.
        -12    1    4    4    0    0  0.77046055118E+02 -0.21746537785E+03  0.48596964676E+02  0.23577309039E+03  0.00000000000E+00 0.  1.
        -13    1    3    3    0    0 -0.58825735326E+02  0.90514035836E+02  0.30795753541E+03  0.32632974341E+03  0.00000000000E+00 0.  1.
         13    1    3    3    0    0 -0.92624024248E+01  0.11643063607E+03  0.67829616541E+03  0.68827870309E+03  0.00000000000E+00 0. -1.
          2    1    1    2  501    0 -0.34538509510E+02  0.18293840250E+02 -0.51301675672E+02  0.64493683079E+02  0.00000000000E+00 0. -1.
<scales pt_clust_5="13000.00000" pt_clust_6="13000.00000" pt_clust_7="13000.00000" pt_clust_8="13000.00000" pt_clust_9="39.08418"></scales>
<clustering>
<clus scale="   39.084">  2  9  1 -1</clus>
<clus scale="   78.202">  5  6 -1 -1</clus>
<clus scale="   96.290">  7  8 -1 -1</clus>
<clus scale="  234.516">  2  5  1 -1</clus>
<clus scale="   39.084">  2  5  1 -1</clus>
</clustering>
</event>
<event>
 9    1  0.6296820E-005  0.4221227E+03  0.7546771E-02  0.1063335E+00
         -4   -1    0    0    0  501 -0.00000000000E+00  0.00000000000E+00  0.21698673394E+04  0.21698673394E+04  0.00000000000E+00 0.  1.
         21   -1    0    0  501  502  0.00000000000E+00 -0.00000000000E+00 -0.13337817287E+03  0.13337817287E+03  0.00000000000E+00 0.  1.
         23    2    1    2    0    0  0.13838564676E+03  0.10471357924E+03  0.48391938426E+03  0.52193532681E+03  0.90127653949E+02 0.  0.
        -24    2    1    2    0    0 -0.46271997870E+03 -0.23308366997E+03  0.94920596145E+03  0.10843743639E+04  0.80237322871E+02 0.  0.
         11    1    4    4    0    0 -0.45437873742E+02 -0.25778718681E+02  0.15514989829E+03  0.16370899074E+03  0.00000000000E+00 0. -1.
        -12    1    4    4    0    0 -0.41728210496E+03 -0.20730495129E+03  0.79405606316E+03  0.92066537319E+03  0.00000000000E+00 0.  1.
        -11    1    3    3    0    0  0.44159862834E+02 -0.75888633845E-01  0.55448023666E+02  0.70884290030E+02  0.00000000000E+00 0.  1.
         11    1    3    3    0    0  0.94225783924E+02  0.10478946787E+03  0.42847136059E+03  0.45105103678E+03  0.00000000000E+00 0. -1.
         -3    1    1    2    0  502  0.32433433195E+03  0.12837009073E+03  0.60336382080E+03  0.69693582152E+03  0.00000000000E+00 0.  1.
<scales pt_clust_5="13000.00000" pt_clust_6="13000.00000" pt_clust_7="13000.00000" pt_clust_8="13000.00000" pt_clust_9="414.42681"></scales>
<clustering>
<clus scale="   80.237">  5  6 -1 -1</clus>
<clus scale="   90.128">  7  8 -1 -1</clus>
<clus scale="  195.547">  1  7  2 -1</clus>
<clus scale="  414.427">  2  9  1 -1</clus>
<clus scale="  414.427">  2  5  1 -1</clus>
</clustering>
</event>
<event>
 9    1  0.6296820E-005  0.1233460E+03  0.7546771E-02  0.1241337E+00
          1   -1    0    0  502    0 -0.00000000000E+00  0.00000000000E+00  0.14173164984E+03  0.14173164984E+03  0.00000000000E+00 0. -1.
         21   -1    0    0  501  502  0.00000000000E+00 -0.00000000000E+00 -0.13528977729E+03  0.13528977729E+03  0.00000000000E+00 0. -1.
         23    2    1    2    0    0  0.69632437469E+02 -0.21693593535E+02  0.13297740578E+02  0.11799261106E+03  0.91793997696E+02 0.  0.
        -24    2    1    2    0    0 -0.96470710011E+02  0.14767353049E+01 -0.90758089043E+01  0.12535475532E+03  0.79515191863E+02 0.  0.
         13    1    4    4    0    0 -0.87998638099E+02 -0.28627013323E+02  0.85758718875E+00  0.92541891351E+02  0.00000000000E+00 0. -1.
        -14    1    4    4    0    0 -0.84720719115E+01  0.30103748628E+02 -0.99333960931E+01  0.32812863969E+02  0.00000000000E+00 0.  1.
        -11    1    3    3    0    0  0.37217769958E+02  0.23096529811E+02 -0.25281474845E+02  0.50574351803E+02  0.00000000000E+00 0.  1.
         11    1    3    3    0    0  0.32414667511E+02 -0.44790123346E+02  0.38579215423E+02  0.67418259262E+02  0.00000000000E+00 0. -1.
          2    1    1    2  501    0  0.26838272542E+02  0.20216858230E+02  0.22199408763E+01  0.33674060747E+02  0.00000000000E+00 0. -1.
<scales pt_clust_5="13000.00000" pt_clust_6="13000.00000" pt_clust_7="13000.00000" pt_clust_8="13000.00000" pt_clust_9="33.60082"></scales>
<clustering>
<clus scale="   33.601">  2  9  1 -1</clus>
<clus scale="   79.515">  5  6 -1 -1</clus>
<clus scale="   91.794">  7  8 -1 -1</clus>
<clus scale="  114.502">  2  5  1 -1</clus>
<clus scale="   33.601">  2  5  1 -1</clus>
</clustering>
</event>
<event>
 9    1  0.6296820E-005  0.1315254E+03  0.7546771E-02  0.1227304E+00
         21   -1    0    0  501  502  0.00000000000E+00  0.00000000000E+00  0.61689896988E+02  0.61689896988E+02  0.00000000000E+00 0. -1.
          1   -1    0    0  502    0 -0.00000000000E+00 -0.00000000000E+00 -0.43885652428E+03  0.43885652428E+03  0.00000000000E+00 0. -1.
         23    2    1    2    0    0  0.86641116958E+02 -0.14986581348E+01 -0.24548329370E+03  0.27518185088E+03  0.89185617917E+02 0.  0.
        -24    2    1    2    0    0 -0.11828083882E+03  0.13692306677E+02 -0.12550830293E+03  0.19089881829E+03  0.80698132747E+02 0.  0.
         13    1    4    4    0    0 -0.90072543305E+02 -0.26958961013E+02 -0.75902168719E+02  0.12083454743E+03  0.00000000000E+00 0. -1.
        -14    1    4    4    0    0 -0.28208295511E+02  0.40651267691E+02 -0.49606134207E+02  0.70064270863E+02  0.00000000000E+00 0.  1.
        -13    1    3    3    0    0  0.51035073532E+02 -0.19336903540E+02 -0.44866712269E+02  0.70650664815E+02  0.00000000000E+00 0. -1.
         13    1    3    3    0    0  0.35606043426E+02  0.17838245406E+02 -0.20061658143E+03  0.20453118606E+03  0.00000000000E+00 0.  1.
          2    1    1    2  501    0  0.31639721858E+02 -0.12193648543E+02 -0.61750306681E+01  0.34465752099E+02  0.00000000000E+00 0. -1.
<scales pt_clust_5="13000.00000" pt_clust_6="13000.00000" pt_clust_7="13000.00000" pt_clust_8="13000.00000" pt_clust_9="33.90807"></scales>
<clustering>
<clus scale="   33.908">  1  9  2 -1</clus>
<clus scale="   80.698">  5  6 -1 -1</clus>
<clus scale="   89.186">  7  8 -1 -1</clus>
<clus scale="  125.925">  1  5  2 -1</clus>
<clus scale="   33.908">  1  5  2 -1</clus>
</clustering>
</event>
<event>
 9    1  0.1504468E-004  0.2021400E+03  0.7546771E-02  0.1173075E+00
         21   -1    0    0  501  502  0.00000000000E+00  0.00000000000E+00  0.12518319431E+03  0.12518319431E+03  0.00000000000E+00 0. -1.
          1   -1    0    0  502    0 -0.00000000000E+00 -0.00000000000E+00 -0.81060787193E+03  0.81060787193E+03  0.00000000000E+00 0. -1.
        -24    2    1    2    0    0  0.66585102832E+02 -0.41737108961E+02 -0.23164180209E+03  0.25758926368E+03  0.80738727413E+02 0.  0.
         23    2    1    2    0    0 -0.65229310869E+01 -0.17221272541E+03 -0.26545389541E+02  0.19662744119E+03  0.90873106591E+02 0.  0.
         13    1    3    3    0    0  0.74985780379E+02 -0.35984847907E+02 -0.23292309568E+03  0.24732760671E+03  0.00000000000E+00 0. -1.
        -14    1    3    3    0    0 -0.84006775462E+01 -0.57522610536E+01  0.12812935959E+01  0.10261656969E+02  0.00000000000E+00 0.  1.
        -13    1    4    4    0    0 -0.32809970928E+02 -0.12310008525E+03  0.13371077163E+02  0.12809727119E+03  0.00000000000E+00 0. -1.
         13    1    4    4    0    0  0.26287039841E+02 -0.49112640156E+02 -0.39916466704E+02  0.68530170004E+02  0.00000000000E+00 0.  1.
          2    1    1    2  501    0 -0.60062171746E+02  0.21394983437E+03 -0.42723748599E+03  0.48157436138E+03  0.00000000000E+00 0. -1.
<scales pt_clust_5="13000.00000" pt_clust_6="13000.00000" pt_clust_7="13000.00000" pt_clust_8="13000.00000" pt_clust_9="180.56219"></scales>
<clustering>
<clus scale="   80.739">  5  6 -1 -1</clus>
<clus scale="   90.873">  7  8 -1 -1</clus>
<clus scale="  112.669">  2  5  1 -1</clus>
<clus scale="  180.562">  1  9  2 -1</clus>
<clus scale="  180.562">  1  5  2 -1</clus>
</clustering>
</event>
<event>
 9    1  0.6296820E-005  0.9091050E+02  0.7546771E-02  0.1306219E+00
         -2   -1    0    0    0  501 -0.00000000000E+00  0.00000000000E+00  0.15583611640E+03  0.15583611640E+03  0.00000000000E+00 0.  1.
         21   -1    0    0  501  502  0.00000000000E+00 -0.00000000000E+00 -0.11598099023E+03  0.11598099023E+03  0.00000000000E+00 0.  1.
        -24    2    1    2    0    0  0.84319173227E+01  0.24521076324E+02  0.46363705871E+02  0.95552793977E+02  0.79425202555E+02 0.  0.
         23    2    1    2    0    0 -0.22073821314E+02  0.77823582098E+01 -0.62042581532E+02  0.11058601498E+03  0.88499525978E+02 0.  0.
         11    1    3    3    0    0  0.22532218755E+02  0.52953081238E+01 -0.16430328568E+02  0.28384799929E+02  0.00000000000E+00 0. -1.
        -12    1    3    3    0    0 -0.14100301433E+02  0.19225768200E+02  0.62794034439E+02  0.67167994048E+02  0.00000000000E+00 0.  1.
        -11    1    4    4    0    0  0.24255551682E+02  0.16286612902E+02 -0.55912196482E+02  0.63085333182E+02  0.00000000000E+00 0.  1.
         11    1    4    4    0    0 -0.46329372996E+02 -0.85042546920E+01 -0.61303850505E+01  0.47500681794E+02  0.00000000000E+00 0. -1.
         -1    1    1    2    0  502  0.13641903991E+02 -0.32303434534E+02  0.55534001827E+02  0.65678297680E+02  0.00000000000E+00 0.  1.
<scales pt_clust_5="13000.00000" pt_clust_6="13000.00000" pt_clust_7="13000.00000" pt_clust_8="13000.00000" pt_clust_9="35.06586"></scales>
<clustering>
<clus scale="   35.066">  2  9  1 -1</clus>
<clus scale="   79.425">  5  6 -1 -1</clus>
<clus scale="   82.103">  1  5  2 -1</clus>
<clus scale="   88.500">  7  8 -1 -1</clus>
<clus scale="   35.066">  2  5  1 -1</clus>
</clustering>
</event>
<event>
 9    1  0.6296820E-005  0.1150477E+03  0.7546771E-02  0.1254363E+00
         21   -1    0    0  501  502  0.00000000000E+00  0.00000000000E+00  0.92822271029E+02  0.92822271029E+02  0.00000000000E+00 0.  1.
          1   -1    0    0  502    0 -0.00000000000E+00 -0.00000000000E+00 -0.34283871643E+03  0.34283871643E+03  0.00000000000E+00 0. -1.
        -24    2    1    2    0    0 -0.57851425410E+02  0.53682098070E+02 -0.26969738740E+03  0.29234737757E+03  0.80633450416E+02 0.  0.
         23    2    1    2    0    0  0.39024768917E+02 -0.28047816456E+02 -0.75298312304E+01  0.10145688322E+03  0.89034758366E+02 0.  0.
         13    1    3    3    0    0 -0.37303518983E+02  0.71531308479E+02 -0.15828035403E+03  0.17765402077E+03  0.00000000000E+00 0. -1.
        -14    1    3    3    0    0 -0.20547906427E+02 -0.17849210408E+02 -0.11141703336E+03  0.11469335680E+03  0.00000000000E+00 0.  1.
        -11    1    4    4    0    0  0.44927319349E+02  0.73253691748E+01  0.25948216799E+02  0.52396898882E+02  0.00000000000E+00 0.  1.
         11    1    4    4    0    0 -0.59025504318E+01 -0.35373185631E+02 -0.33478048030E+02  0.49059984337E+02  0.00000000000E+00 0. -1.
          2    1    1    2  501    0  0.18826656493E+02 -0.25634281615E+02  0.27210773223E+02  0.41856726676E+02  0.00000000000E+00 0. -1.
<scales pt_clust_5="13000.00000" pt_clust_6="13000.00000" pt_clust_7="13000.00000" pt_clust_8="13000.00000" pt_clust_9="31.80502"></scales>
<clustering>
<clus scale="   31.805">  1  9  2 -1</clus>
<clus scale="   80.633">  5  6 -1 -1</clus>
<clus scale="   89.035">  7  8 -1 -1</clus>
<clus scale="  108.676">  2  5  1 -1</clus>
<clus scale="   31.805">  1  5  2 -1</clus>
</clustering>
</event>
<event>
 9    1  0.6296820E-005  0.9293400E+02  0.7546771E-02  0.1302430E+00
         21   -1    0    0  501  502  0.00000000000E+00  0.00000000000E+00  0.98802201879E+02  0.98802201879E+02  0.00000000000E+00 0. -1.
          1   -1    0    0  502    0 -0.00000000000E+00 -0.00000000000E+00 -0.15289237359E+03  0.15289237359E+03  0.00000000000E+00 0. -1.
        -24    2    1    2    0    0 -0.63065847104E+01 -0.21247957466E+01 -0.34174224366E+02  0.87977893195E+02  0.80795694888E+02 0.  0.
         23    2    1    2    0    0 -0.46089132986E+02  0.24483628746E+02 -0.93890451277E+01  0.10578530635E+03  0.91535351728E+02 0.  0.
         11    1    3    3    0    0  0.11009754527E+02  0.19090989632E+02 -0.51192918662E+02  0.55735047332E+02  0.00000000000E+00 0. -1.
        -12    1    3    3    0    0 -0.17316339237E+02 -0.21215785379E+02  0.17018694297E+02  0.32242845864E+02  0.00000000000E+00 0.  1.
        -11    1    4    4    0    0 -0.22180402761E+02 -0.30023908446E+02 -0.24153082236E+02  0.44460957328E+02  0.00000000000E+00 0.  1.
         11    1    4    4    0    0 -0.23908730225E+02  0.54507537192E+02  0.14764037109E+02  0.61324349026E+02  0.00000000000E+00 0. -1.
          2    1    1    2  501    0  0.52395717696E+02 -0.22358832999E+02 -0.10526902222E+02  0.57931375923E+02  0.00000000000E+00 0. -1.
<scales pt_clust_5="13000.00000" pt_clust_6="13000.00000" pt_clust_7="13000.00000" pt_clust_8="13000.00000" pt_clust_9="56.96691"></scales>
<clustering>
<clus scale="   56.967">  1  9  2 -1</clus>
<clus scale="   80.796">  5  6 -1 -1</clus>
<clus scale="   82.377">  2  5  1 -1</clus>
<clus scale="   91.535">  7  8 -1 -1</clus>
<clus scale="   56.967">  1  5  2 -1</clus>
</clustering>
</event>
<event>
 9    1  0.6296820E-005  0.1113207E+03  0.7546771E-02  0.1261970E+00
         21   -1    0    0  501  502  0.00000000000E+00  0.00000000000E+00  0.11190699308E+03  0.11190699308E+03  0.00000000000E+00 0.  1.
         -2   -1    0    0    0  501 -0.00000000000E+00 -0.00000000000E+00 -0.35423646493E+03  0.35423646493E+03  0.00000000000E+00 0.  1.
         23    2    1    2    0    0 -0.60385028089E+02  0.28453769286E+02 -0.28490473267E+03  0.30635603900E+03  0.90704726048E+02 0.  0.
        -24    2    1    2    0    0  0.58184088732E+02 -0.51030921966E+01 -0.12120322659E+02  0.10027519249E+03  0.80602619534E+02 0.  0.
         13    1    4    4    0    0  0.37192846105E+02 -0.34807241258E+02  0.16978860823E+02  0.53694818747E+02  0.00000000000E+00 0. -1.
        -14    1    4    4    0    0  0.20991242627E+02  0.29704149062E+02 -0.29099183483E+02  0.46580373742E+02  0.00000000000E+00 0.  1.
        -11    1    3    3    0    0  0.68808342729E+01  0.39363016924E+02 -0.66657434615E+02  0.77717479186E+02  0.00000000000E+00 0. -1.
         11    1    3    3    0    0 -0.67265862362E+02 -0.10909247638E+02 -0.21824729805E+03  0.22863855981E+03  0.00000000000E+00 0.  1.
         -1    1    1    2    0  502  0.22009393569E+01 -0.23350677089E+02  0.54695583477E+02  0.59512226530E+02  0.00000000000E+00 0.  1.
<scales pt_clust_5="13000.00000" pt_clust_6="13000.00000" pt_clust_7="13000.00000" pt_clust_8="13000.00000" pt_clust_9="23.45417"></scales>
<clustering>
<clus scale="   23.454">  1  9  2 -1</clus>
<clus scale="   80.603">  5  6 -1 -1</clus>
<clus scale="   90.705">  7  8 -1 -1</clus>
<clus scale="  103.256">  1  5  2 -1</clus>
<clus scale="   23.454">  1  5  2 -1</clus>
</clustering>
</event>
<event>
 9    1  0.6296820E-005  0.1101167E+03  0.7546771E-02  0.1264513E+00
         21   -1    0    0  501  502  0.00000000000E+00  0.00000000000E+00  0.25839849180E+03  0.25839849180E+03  0.00000000000E+00 0.  1.
          1   -1    0    0  502    0 -0.00000000000E+00 -0.00000000000E+00 -0.24854489142E+03  0.24854489142E+03  0.00000000000E+00 0. -1.
         23    2    1    2    0    0 -0.35171037734E+01 -0.61097753251E+02 -0.20388613020E+03  0.23142945772E+03  0.90800519499E+02 0.  0.
        -24    2    1    2    0    0  0.39899991847E+02  0.67860820644E+02  0.83097119621E+02  0.13973121151E+03  0.80140999819E+02 0.  0.
         11    1    4    4    0    0  0.30247437439E+02 -0.11251638025E+02  0.18957570805E+02  0.37428549540E+02  0.00000000000E+00 0. -1.
        -12    1    4    4    0    0  0.96525544081E+01  0.79112458668E+02  0.64139548816E+02  0.10230266197E+03  0.00000000000E+00 0.  1.
        -13    1    3    3    0    0  0.24452451663E+02 -0.94311246927E+00 -0.98716040411E+01  0.26386747048E+02  0.00000000000E+00 0.  1.
         13    1    3    3    0    0 -0.27969555436E+02 -0.60154640782E+02 -0.19401452616E+03  0.20504271067E+03  0.00000000000E+00 0. -1.
          2    1    1    2  501    0 -0.36382888073E+02 -0.67630673924E+01  0.13064261095E+03  0.13578271400E+03  0.00000000000E+00 0. -1.
<scales pt_clust_5="13000.00000" pt_clust_6="13000.00000" pt_clust_7="13000.00000" pt_clust_8="13000.00000" pt_clust_9="37.00613"></scales>
<clustering>
<clus scale="   37.006">  1  9  2 -1</clus>
<clus scale="   80.141">  5  6 -1 -1</clus>
<clus scale="   90.801">  7  8 -1 -1</clus>
<clus scale="  101.506">  1  5  2 -1</clus>
<clus scale="   37.006">  1  5  2 -1</clus>
</clustering>
</event>
<event>
 9    1  0.6296820E-005  0.9606958E+02  0.7546771E-02  0.1295761E+00
          1   -1    0    0  502    0 -0.00000000000E+00  0.00000000000E+00  0.19532731835E+03  0.19532731835E+03  0.00000000000E+00 0. -1.
         21   -1    0    0  501  502  0.00000000000E+00 -0.00000000000E+00 -0.83110925810E+02  0.83110925810E+02  0.00000000000E+00 0. -1.
         23    2    1    2    0    0 -0.26999550128E+02  0.20568114559E+02  0.12020573743E+03  0.15519423264E+03  0.92107586492E+02 0.  0.
        -24    2    1    2    0    0  0.17493731584E+02 -0.20384288087E+01  0.23911848440E+02  0.85146820337E+02  0.79799866422E+02 0.  0.
         11    1    4    4    0    0 -0.31676380409E+02 -0.62351963548E+01  0.75393748514E+01  0.33152872010E+02  0.00000000000E+00 0. -1.
        -12    1    4    4    0    0  0.49170111993E+02  0.41967675461E+01  0.16372473588E+02  0.51993948327E+02  0.00000000000E+00 0.  1.
        -11    1    3    3    0    0  0.24523007430E+02  0.25867682973E+02  0.16508882921E+02  0.39281778614E+02  0.00000000000E+00 0.  1.
         11    1    3    3    0    0 -0.51522557559E+02 -0.52995684135E+01  0.10369685451E+03  0.11591245402E+03  0.00000000000E+00 0. -1.
          2    1    1    2  501    0  0.95058185440E+01 -0.18529685751E+02 -0.31901193330E+02  0.38097191184E+02  0.00000000000E+00 0. -1.
<scales pt_clust_5="13000.00000" pt_clust_6="13000.00000" pt_clust_7="13000.00000" pt_clust_8="13000.00000" pt_clust_9="20.82570"></scales>
<clustering>
<clus scale="   20.826">  2  9  1 -1</clus>
<clus scale="   79.800">  5  6 -1 -1</clus>
<clus scale="   84.342">  2  5  1 -1</clus>
<clus scale="   92.108">  7  8 -1 -1</clus>
<clus scale="   20.826">  2  5  1 -1</clus>
</clustering>
</event>
<event>
 9    1  0.6296820E-005  0.1413064E+03  0.7546771E-02  0.1214341E+00
          1   -1    0    0  502    0 -0.00000000000E+00  0.00000000000E+00  0.75963637631E+03  0.75963637631E+03  0.00000000000E+00 0. -1.
         21   -1    0    0  501  502  0.00000000000E+00 -0.00000000000E+00 -0.83869278612E+02  0.83869278612E+02  0.00000000000E+00 0. -1.
         23    2    1    2    0    0  0.17494902653E+02 -0.10907611874E+03  0.67727404593E+03  0.69242970549E+03  0.92493742794E+02 0.  0.
        -24    2    1    2    0    0 -0.18020770580E+02  0.81408644076E+02  0.18684077861E+02  0.11682039184E+03  0.79660490098E+02 0.  0.
         13    1    4    4    0    0  0.24012467114E+02  0.36694546798E+01  0.14620631060E+02  0.28351831108E+02  0.00000000000E+00 0. -1.
        -14    1    4    4    0    0 -0.42033237694E+02  0.77739189396E+02  0.40634468004E+01  0.88468560737E+02  0.00000000000E+00 0.  1.
        -13    1    3    3    0    0  0.25993289853E+02  0.40603092445E+01  0.72974784239E+02  0.77572265426E+02  0.00000000000E+00 0.  1.
         13    1    3    3    0    0 -0.84983871999E+01 -0.11313642798E+03  0.60429926169E+03  0.61485744006E+03  0.00000000000E+00 0. -1.
          2    1    1    2  501    0  0.52586792695E+00  0.27667474661E+02 -0.20191026091E+02  0.34255557590E+02  0.00000000000E+00 0. -1.
<scales pt_clust_5="13000.00000" pt_clust_6="13000.00000" pt_clust_7="13000.00000" pt_clust_8="13000.00000" pt_clust_9="27.67247"></scales>
<clustering>
<clus scale="   27.672">  2  9  1 -1</clus>
<clus scale="   79.660">  5  6 -1 -1</clus>
<clus scale="   92.494">  7  8 -1 -1</clus>
<clus scale="  133.260">  2  5  1 -1</clus>
<clus scale="   27.672">  2  5  1 -1</clus>
</clustering>
</event>
<event>
 9    1  0.6296820E-005  0.1189844E+03  0.7546771E-02  0.1248014E+00
         21   -1    0    0  501  502  0.00000000000E+00  0.00000000000E+00  0.46219820751E+03  0.46219820751E+03  0.00000000000E+00 0. -1.
          1   -1    0    0  502    0 -0.00000000000E+00 -0.00000000000E+00 -0.40538602104E+03  0.40538602104E+03  0.00000000000E+00 0. -1.
         23    2    1    2    0    0  0.64788534181E+02  0.29460659549E+02 -0.35479501664E+03  0.37364675148E+03  0.93096221380E+02 0.  0.
        -24    2    1    2    0    0 -0.95326008480E+02 -0.65369173601E+02  0.89202623070E+02  0.16810520128E+03  0.83319109364E+02 0.  0.
         13    1    4    4    0    0 -0.63250617384E+02 -0.25509982665E+02  0.34977339434E+01  0.68290804343E+02  0.00000000000E+00 0. -1.
        -14    1    4    4    0    0 -0.32075391096E+02 -0.39859190936E+02  0.85704889127E+02  0.99814396939E+02  0.00000000000E+00 0.  1.
        -11    1    3    3    0    0 -0.15147713148E+02 -0.18515106200E+02 -0.68820719853E+02  0.72859823306E+02  0.00000000000E+00 0.  1.
         11    1    3    3    0    0  0.79936247328E+02  0.47975765749E+02 -0.28597429679E+03  0.30078692818E+03  0.00000000000E+00 0. -1.
          2    1    1    2  501    0  0.30537474299E+02  0.35908514052E+02  0.32240458004E+03  0.32583227579E+03  0.00000000000E+00 0. -1.
<scales pt_clust_5="13000.00000" pt_clust_6="13000.00000" pt_clust_7="13000.00000" pt_clust_8="13000.00000" pt_clust_9="47.13766"></scales>
<clustering>
<clus scale="   47.138">  1  9  2 -1</clus>
<clus scale="   83.319">  5  6 -1 -1</clus>
<clus scale="   93.096">  7  8 -1 -1</clus>
<clus scale="  111.501">  1  5  2 -1</clus>
<clus scale="   47.138">  1  5  2 -1</clus>
</clustering>
</event>
<event>
 9    1  0.6296820E-005  0.1249465E+03  0.7546771E-02  0.1238511E+00
         21   -1    0    0  501  502  0.00000000000E+00  0.00000000000E+00  0.84735133799E+02  0.84735133799E+02  0.00000000000E+00 0.  1.
         -2   -1    0    0    0  501 -0.00000000000E+00 -0.00000000000E+00 -0.29203828781E+03  0.29203828781E+03  0.00000000000E+00 0.  1.
        -24    2    1    2    0    0  0.72194178698E+02  0.55372641686E+02 -0.18028165102E+03  0.21737024410E+03  0.80437680493E+02 0.  0.
         23    2    1    2    0    0 -0.49985673872E+02 -0.51315460692E+02 -0.50265161125E+02  0.12700030654E+03  0.92036119751E+02 0.  0.
         11    1    3    3    0    0  0.25829898995E+01  0.41714613647E+02 -0.10929711238E+03  0.11701555283E+03  0.00000000000E+00 0. -1.
        -12    1    3    3    0    0  0.69611188798E+02  0.13658028039E+02 -0.70984538635E+02  0.10035469128E+03  0.00000000000E+00 0.  1.
        -11    1    4    4    0    0 -0.42160117836E+02  0.16714657238E+02 -0.67164541854E+01  0.45847203397E+02  0.00000000000E+00 0.  1.
         11    1    4    4    0    0 -0.78255560366E+01 -0.68030117931E+02 -0.43548706940E+02  0.81153103139E+02  0.00000000000E+00 0. -1.
         -1    1    1    2    0  502 -0.22208504825E+02 -0.40571809933E+01  0.23243658127E+02  0.32402870973E+02  0.00000000000E+00 0.  1.
<scales pt_clust_5="13000.00000" pt_clust_6="13000.00000" pt_clust_7="13000.00000" pt_clust_8="13000.00000" pt_clust_9="22.57606"></scales>
<clustering>
<clus scale="   22.576">  1  9  2 -1</clus>
<clus scale="   80.438">  5  6 -1 -1</clus>
<clus scale="   92.036">  7  8 -1 -1</clus>
<clus scale="  116.667">  2  5  1 -1</clus>
<clus scale="   22.576">  1  5  2 -1</clus>
</clustering>
</event>
<event>
 9    1  0.6296820E-005  0.1389639E+03  0.7546771E-02  0.1216579E+00
          1   -1    0    0  502    0 -0.00000000000E+00  0.00000000000E+00  0.58242658702E+03  0.58242658702E+03  0.00000000000E+00 0. -1.
         21   -1    0    0  501  502  0.00000000000E+00 -0.00000000000E+00 -0.21612819073E+03  0.21612819073E+03  0.00000000000E+00 0. -1.
         23    2    1    2    0    0  0.44253741581E+02 -0.93018802811E+02  0.43166444339E+03  0.45273314217E+03  0.89566818701E+02 0.  0.
        -24    2    1    2    0    0 -0.30758275577E+02  0.11519502497E+03  0.10190356672E+03  0.17654955832E+03  0.81052108776E+02 0.  0.
         11    1    4    4    0    0 -0.41558977047E+02  0.11329331653E+03  0.10970732157E+03  0.16308960896E+03  0.00000000000E+00 0. -1.
        -12    1    4    4    0    0  0.10800701469E+02  0.19017084395E+01 -0.78037548432E+01  0.13459949364E+02  0.00000000000E+00 0.  1.
        -11    1    3    3    0    0  0.55225178562E+02 -0.15422434031E+02  0.20690528645E+03  0.21470321232E+03  0.00000000000E+00 0.  1.
         11    1    3    3    0    0 -0.10971436981E+02 -0.77596368780E+02  0.22475915694E+03  0.23802992985E+03  0.00000000000E+00 0. -1.
          2    1    1    2  501    0 -0.13495466004E+02 -0.22176222162E+02 -0.16726961383E+03  0.16927207727E+03  0.00000000000E+00 0. -1.
<scales pt_clust_5="13000.00000" pt_clust_6="13000.00000" pt_clust_7="13000.00000" pt_clust_8="13000.00000" pt_clust_9="25.95982"></scales>
<clustering>
<clus scale="   25.960">  2  9  1 -1</clus>
<clus scale="   81.052">  5  6 -1 -1</clus>
<clus scale="   89.567">  7  8 -1 -1</clus>
<clus scale="  133.635">  2  5  1 -1</clus>
<clus scale="   25.960">  2  5  1 -1</clus>
</clustering>
</event>
<event>
 9    1  0.6296820E-005  0.1917785E+03  0.7546771E-02  0.1180911E+00
          1   -1    0    0  502    0 -0.00000000000E+00  0.00000000000E+00  0.83818034934E+03  0.83818034934E+03  0.00000000000E+00 0. -1.
         21   -1    0    0  501  502  0.00000000000E+00 -0.00000000000E+00 -0.94417744192E+02  0.94417744192E+02  0.00000000000E+00 0. -1.
         23    2    1    2    0    0  0.26222090017E+02  0.53044615760E+02  0.33798736798E+03  0.35559944038E+03  0.93349728546E+02 0.  0.
        -24    2    1    2    0    0 -0.53816743504E+02  0.13157589539E+03  0.34324192846E+03  0.38013166065E+03  0.80477325072E+02 0.  0.
         11    1    4    4    0    0 -0.65446163229E+02  0.12188104943E+03  0.25049616516E+03  0.28615820669E+03  0.00000000000E+00 0. -1.
        -12    1    4    4    0    0  0.11629419725E+02  0.96948459533E+01  0.92745763298E+02  0.93973453969E+02  0.00000000000E+00 0.  1.
        -13    1    3    3    0    0  0.69879202367E+00 -0.20675976183E+02  0.22312418066E+02  0.30427426795E+02  0.00000000000E+00 0.  1.
         13    1    3    3    0    0  0.25523297993E+02  0.73720591943E+02  0.31567494991E+03  0.32517201358E+03  0.00000000000E+00 0. -1.
          2    1    1    2  501    0  0.27594653487E+02 -0.18462051115E+03  0.62533308709E+02  0.19686699250E+03  0.00000000000E+00 0. -1.
<scales pt_clust_5="13000.00000" pt_clust_6="13000.00000" pt_clust_7="13000.00000" pt_clust_8="13000.00000" pt_clust_9="174.07577"></scales>
<clustering>
<clus scale="   80.477">  5  6 -1 -1</clus>
<clus scale="   93.350">  7  8 -1 -1</clus>
<clus scale="  110.524">  1  7  2 -1</clus>
<clus scale="  174.076">  2  9  1 -1</clus>
<clus scale="  174.076">  2  5  1 -1</clus>
</clustering>
</event>
<event>
 9    1  0.6296820E-005  0.9656041E+02  0.7546771E-02  0.1290019E+00
          3   -1    0    0  502    0 -0.00000000000E+00  0.00000000000E+00  0.59501199856E+02  0.59501199856E+02  0.00000000000E+00 0. -1.
         21   -1    0    0  501  502  0.00000000000E+00 -0.00000000000E+00 -0.23802395092E+03  0.23802395092E+03  0.00000000000E+00 0.  1.
         23    2    1    2    0    0 -0.24266199268E+02 -0.30952127427E+02 -0.27089582937E+02  0.99842021788E+02  0.87679536905E+02 0.  0.
        -24    2    1    2    0    0  0.21638630024E+01  0.49053596348E+02 -0.13018608650E+03  0.16207954879E+03  0.83128968469E+02 0.  0.
         11    1    4    4    0    0 -0.22984245490E+02  0.23446650878E+02 -0.67347634123E+01  0.33516831837E+02  0.00000000000E+00 0. -1.
        -12    1    4    4    0    0  0.25148108493E+02  0.25606945470E+02 -0.12345132309E+03  0.12856271695E+03  0.00000000000E+00 0.  1.
        -13    1    3    3    0    0 -0.53869358820E+02 -0.31919227511E+02 -0.48505699900E+01  0.62803446830E+02  0.00000000000E+00 0.  1.
         13    1    3    3    0    0  0.29603159552E+02  0.96710008408E+00 -0.22239012947E+02  0.37038574957E+02  0.00000000000E+00 0. -1.
          4    1    1    2  501    0  0.22102336266E+02 -0.18101468922E+02 -0.21247081622E+02  0.35603580199E+02  0.00000000000E+00 0. -1.
<scales pt_clust_5="13000.00000" pt_clust_6="13000.00000" pt_clust_7="13000.00000" pt_clust_8="13000.00000" pt_clust_9="28.56882"></scales>
<clustering>
<clus scale="   28.569">  2  9  1 -1</clus>
<clus scale="   83.129">  5  6 -1 -1</clus>
<clus scale="   87.680">  7  8 -1 -1</clus>
<clus scale="   92.448">  2  5  1 -1</clus>
<clus scale="   28.569">  2  5  1 -1</clus>
</clustering>
</event>
<event>
 9    1  0.6296820E-005  0.1001516E+03  0.7546771E-02  0.1286513E+00
          1   -1    0    0  502    0 -0.00000000000E+00  0.00000000000E+00  0.24269887263E+03  0.24269887263E+03  0.00000000000E+00 0. -1.
         21   -1    0    0  501  502  0.00000000000E+00 -0.00000000000E+00 -0.35627057024E+03  0.35627057024E+03  0.00000000000E+00 0.  1.
         23    2    1    2    0    0 -0.23876802428E+02 -0.29367440267E+02  0.21826353555E+03  0.23996381645E+03  0.92255699097E+02 0.  0.
        -24    2    1    2    0    0  0.29264362188E+02  0.61351703361E+02 -0.25132440219E+03  0.27220693524E+03  0.79449518939E+02 0.  0.
         13    1    4    4    0    0  0.32823180651E+02  0.17254698136E+02 -0.33623173685E+02  0.50056004679E+02  0.00000000000E+00 0. -1.
        -14    1    4    4    0    0 -0.35588184627E+01  0.44097005224E+02 -0.21770122850E+03  0.22215093056E+03  0.00000000000E+00 0.  1.
        -13    1    3    3    0    0 -0.28307875897E+02 -0.58040759356E+02  0.10696997088E+03  0.12495055124E+03  0.00000000000E+00 0.  1.
         13    1    3    3    0    0  0.44310734690E+01  0.28673319089E+02  0.11129356466E+03  0.11501326521E+03  0.00000000000E+00 0. -1.
          2    1    1    2  501    0 -0.53875597597E+01 -0.31984263094E+02 -0.80510830965E+02  0.86798691168E+02  0.00000000000E+00 0. -1.
<scales pt_clust_5="13000.00000" pt_clust_6="13000.00000" pt_clust_7="13000.00000" pt_clust_8="13000.00000" pt_clust_9="32.43484"></scales>
<clustering>
<clus scale="   32.435">  2  9  1 -1</clus>
<clus scale="   79.450">  5  6 -1 -1</clus>
<clus scale="   88.495">  2  5  1 -1</clus>
<clus scale="   92.256">  7  8 -1 -1</clus>
<clus scale="   32.435">  2  5  1 -1</clus>
</clustering>
</event>
<event>
 9    1  0.6296820E-005  0.9558597E+02  0.7546771E-02  0.1296731E+00
          1   -1    0    0  502    0 -0.00000000000E+00  0.00000000000E+00  0.55375093241E+03  0.55375093241E+03  0.00000000000E+00 0. -1.
         21   -1    0    0  501  502  0.00000000000E+00 -0.00000000000E+00 -0.19463013247E+02  0.19463013247E+02  0.00000000000E+00 0.  1.
        -24    2    1    2    0    0  0.18249500778E+02 -0.14934098017E+02  0.22207609440E+03  0.23759236705E+03  0.81094202117E+02 0.  0.
         23    2    1    2    0    0  0.16086594486E+01  0.26876646357E+02  0.21647646238E+03  0.23712167708E+03  0.92949927777E+02 0.  0.
         11    1    3    3    0    0 -0.67716905200E+01  0.27903794575E+02  0.12860852242E+03  0.13177492016E+03  0.00000000000E+00 0. -1.
        -12    1    3    3    0    0  0.25021191298E+02 -0.42837892591E+02  0.93467571978E+02  0.10581744689E+03  0.00000000000E+00 0.  1.
        -13    1    4    4    0    0 -0.16488606798E+02 -0.31467576150E+02  0.86242405730E+02  0.93272906296E+02  0.00000000000E+00 0. -1.
         13    1    4    4    0    0  0.18097266246E+02  0.58344222507E+02  0.13023405665E+03  0.14384877079E+03  0.00000000000E+00 0.  1.
          2    1    1    2  501    0 -0.19858160227E+02 -0.11942548341E+02  0.95735362383E+02  0.98499901518E+02  0.00000000000E+00 0. -1.
<scales pt_clust_5="13000.00000" pt_clust_6="13000.00000" pt_clust_7="13000.00000" pt_clust_8="13000.00000" pt_clust_9="23.17265"></scales>
<clustering>
<clus scale="   23.173">  2  9  1 -1</clus>
<clus scale="   81.094">  5  6 -1 -1</clus>
<clus scale="   84.103">  1  5  2 -1</clus>
<clus scale="   92.950">  7  8 -1 -1</clus>
<clus scale="   23.173">  2  5  1 -1</clus>
</clustering>
</event>
<event>
 9    1  0.6296820E-005  0.1036086E+03  0.7546771E-02  0.1285608E+00
         21   -1    0    0  501  502  0.00000000000E+00  0.00000000000E+00  0.17195328990E+03  0.17195328990E+03  0.00000000000E+00 0.  1.
         -4   -1    0    0    0  501 -0.00000000000E+00 -0.00000000000E+00 -0.13463737931E+03  0.13463737931E+03  0.00000000000E+00 0.  1.
        -24    2    1    2    0    0 -0.16587301994E+01 -0.86228972941E+01  0.45742828628E+01  0.79663889976E+02  0.79046224191E+02 0.  0.
         23    2    1    2    0    0  0.64796999080E+02 -0.14426515591E+02  0.79313377314E+02  0.14515487518E+03  0.10184571924E+03 0.  0.
         11    1    3    3    0    0  0.37895120830E+02 -0.11241070018E+01  0.95583099811E+01  0.39098146874E+02  0.00000000000E+00 0. -1.
        -12    1    3    3    0    0 -0.39553851030E+02 -0.74987902923E+01 -0.49840271182E+01  0.40565743102E+02  0.00000000000E+00 0.  1.
        -11    1    4    4    0    0  0.99010320970E+01  0.33965236665E+02  0.59693910337E+02  0.69390422030E+02  0.00000000000E+00 0.  1.
         11    1    4    4    0    0  0.54895966983E+02 -0.48391752255E+02  0.19619466978E+02  0.75764453154E+02  0.00000000000E+00 0. -1.
         -3    1    1    2    0  502 -0.63138268880E+02  0.23049412885E+02 -0.46571749591E+02  0.81771904047E+02  0.00000000000E+00 0.  1.
<scales pt_clust_5="13000.00000" pt_clust_6="13000.00000" pt_clust_7="13000.00000" pt_clust_8="13000.00000" pt_clust_9="67.21399"></scales>
<clustering>
<clus scale="   67.214">  1  9  2 -1</clus>
<clus scale="   79.046">  5  6 -1 -1</clus>
<clus scale="   81.305">  2  5  1 -1</clus>
<clus scale="  101.846">  7  8 -1 -1</clus>
<clus scale="   67.214">  1  5  2 -1</clus>
</clustering>
</event>
<event>
 9    1  0.6296820E-005  0.1151148E+03  0.7546771E-02  0.1256414E+00
          1   -1    0    0  502    0 -0.00000000000E+00  0.00000000000E+00  0.41027544840E+03  0.41027544840E+03  0.00000000000E+00 0. -1.
         21   -1    0    0  501  502  0.00000000000E+00 -0.00000000000E+00 -0.73977569390E+02  0.73977569390E+02  0.00000000000E+00 0. -1.
        -24    2    1    2    0    0  0.86378163319E+00  0.60509928212E+02  0.20840486107E+03  0.23065110260E+03  0.78135443190E+02 0.  0.
         23    2    1    2    0    0  0.52139085955E+02 -0.10220928597E+03  0.63378942567E+02  0.16027342902E+03  0.92225046852E+02 0.  0.
         11    1    3    3    0    0 -0.37962628759E+02  0.24542174568E+02  0.82469502491E+02  0.94046256470E+02  0.00000000000E+00 0. -1.
        -12    1    3    3    0    0  0.38826410392E+02  0.35967753644E+02  0.12593535857E+03  0.13660484613E+03  0.00000000000E+00 0.  1.
        -11    1    4    4    0    0  0.66174855419E+02 -0.36298073247E+02  0.52674445285E+02  0.92039441530E+02  0.00000000000E+00 0. -1.
         11    1    4    4    0    0 -0.14035769463E+02 -0.65911212720E+02  0.10704497282E+02  0.68233987489E+02  0.00000000000E+00 0.  1.
          2    1    1    2  501    0 -0.53002867588E+02  0.41699357755E+02  0.64514075380E+02  0.93328486176E+02  0.00000000000E+00 0. -1.
<scales pt_clust_5="13000.00000" pt_clust_6="13000.00000" pt_clust_7="13000.00000" pt_clust_8="13000.00000" pt_clust_9="67.43990"></scales>
<clustering>
<clus scale="   67.440">  2  9  1 -1</clus>
<clus scale="   78.135">  5  6 -1 -1</clus>
<clus scale="   92.225">  7  8 -1 -1</clus>
<clus scale="  104.169">  1  5  2 -1</clus>
<clus scale="   67.440">  2  5  1 -1</clus>
</clustering>
</event>
<event>
 9    1  0.6296820E-005  0.9073586E+02  0.7546771E-02  0.1303912E+00
          1   -1    0    0  502    0 -0.00000000000E+00  0.00000000000E+00  0.34472637857E+03  0.34472637857E+03  0.00000000000E+00 0. -1.
         21   -1    0    0  501  502  0.00000000000E+00 -0.00000000000E+00 -0.27406523985E+03  0.27406523985E+03  0.00000000000E+00 0. -1.
         23    2    1    2    0    0  0.14183021192E+02 -0.64629064369E+01  0.29684134849E+03  0.31053426161E+03  0.89854405649E+02 0.  0.
        -24    2    1    2    0    0  0.45193044363E+02  0.33088694767E+02 -0.37457470491E+02  0.10863090043E+03  0.85207613822E+02 0.  0.
         13    1    4    4    0    0  0.61891940952E+02 -0.31453956884E+01 -0.20431875872E+02  0.65253102765E+02  0.00000000000E+00 0. -1.
        -14    1    4    4    0    0 -0.16698896589E+02  0.36234090455E+02 -0.17025594619E+02  0.43377797668E+02  0.00000000000E+00 0.  1.
        -13    1    3    3    0    0  0.13575774266E+02  0.37261502297E+02  0.79557302214E+02  0.88893675455E+02  0.00000000000E+00 0.  1.
         13    1    3    3    0    0  0.60724692548E+00 -0.43724408734E+02  0.21728404627E+03  0.22164058616E+03  0.00000000000E+00 0. -1.
          2    1    1    2  501    0 -0.59376065554E+02 -0.26625788330E+02 -0.18872273927E+03  0.19962645637E+03  0.00000000000E+00 0. -1.
<scales pt_clust_5="13000.00000" pt_clust_6="13000.00000" pt_clust_7="13000.00000" pt_clust_8="13000.00000" pt_clust_9="65.07265"></scales>
<clustering>
<clus scale="   65.073">  2  9  1 -1</clus>
<clus scale="   85.208">  5  6 -1 -1</clus>
<clus scale="   86.137">  2  5  1 -1</clus>
<clus scale="   89.854">  7  8 -1 -1</clus>
<clus scale="   65.073">  2  5  1 -1</clus>
</clustering>
</event>
<event>
 9    1  0.6296820E-005  0.2520475E+03  0.7546771E-02  0.1147080E+00
         21   -1    0    0  501  502  0.00000000000E+00  0.00000000000E+00  0.71559364820E+03  0.71559364820E+03  0.00000000000E+00 0. -1.
          1   -1    0    0  502    0 -0.00000000000E+00 -0.00000000000E+00 -0.35924425795E+03  0.35924425795E+03  0.00000000000E+00 0. -1.
        -24    2    1    2    0    0 -0.69197430325E+02  0.22171793488E+00  0.40191098208E+03  0.41576729639E+03  0.80880613947E+02 0.  0.
         23    2    1    2    0    0  0.29235305181E+03  0.20124833493E+02 -0.21783932960E+03  0.37641882312E+03  0.91443102791E+02 0.  0.
         11    1    3    3    0    0 -0.50075832858E+02 -0.38472288817E+02  0.22842587651E+03  0.23699385456E+03  0.00000000000E+00 0. -1.
        -12    1    3    3    0    0 -0.19121597467E+02  0.38694006752E+02  0.17348510557E+03  0.17877344183E+03  0.00000000000E+00 0.  1.
        -11    1    4    4    0    0  0.25070713997E+03  0.38627641305E+02 -0.15000782359E+03  0.29470071571E+03  0.00000000000E+00 0. -1.
         11    1    4    4    0    0  0.41645911849E+02 -0.18502807812E+02 -0.67831506006E+02  0.81718107404E+02  0.00000000000E+00 0.  1.
          2    1    1    2  501    0 -0.22315562149E+03 -0.20346551428E+02  0.17227773777E+03  0.28265178664E+03  0.00000000000E+00 0. -1.
<scales pt_clust_5="13000.00000" pt_clust_6="13000.00000" pt_clust_7="13000.00000" pt_clust_8="13000.00000" pt_clust_9="234.87468"></scales>
<clustering>
<clus scale="   80.881">  5  6 -1 -1</clus>
<clus scale="   91.443">  7  8 -1 -1</clus>
<clus scale="  106.443">  2  5  1 -1</clus>
<clus scale="  234.875">  1  9  2 -1</clus>
<clus scale="  234.875">  1  5  2 -1</clus>
</clustering>
</event>
<event>
 9    1  0.6296820E-005  0.1265533E+03  0.7546771E-02  0.1236461E+00
         21   -1    0    0  501  502  0.00000000000E+00  0.00000000000E+00  0.16416093276E+03  0.16416093276E+03  0.00000000000E+00 0.  1.
         -4   -1    0    0    0  501 -0.00000000000E+00 -0.00000000000E+00 -0.28170448068E+03  0.28170448068E+03  0.00000000000E+00 0.  1.
        -24    2    1    2    0    0  0.45837964121E+01 -0.85420846564E+02 -0.16729384331E+03  0.20503486024E+03  0.82062973924E+02 0.  0.
         23    2    1    2    0    0  0.31880489303E+02  0.78215737842E+02 -0.48236120015E+02  0.13603124342E+03  0.95098415701E+02 0.  0.
         13    1    3    3    0    0  0.26089927127E+02 -0.52095274500E+01 -0.81066235725E+02  0.85320326115E+02  0.00000000000E+00 0. -1.
        -14    1    3    3    0    0 -0.21506130715E+02 -0.80211319114E+02 -0.86227607584E+02  0.11971453413E+03  0.00000000000E+00 0.  1.
        -11    1    4    4    0    0  0.22774377667E+01  0.53692835154E+02  0.20302679800E+02  0.57448290459E+02  0.00000000000E+00 0. -1.
         11    1    4    4    0    0  0.29603051536E+02  0.24522902688E+02 -0.68538799814E+02  0.78582952964E+02  0.00000000000E+00 0.  1.
         -3    1    1    2    0  502 -0.36464285715E+02  0.72051087221E+01  0.97986415408E+02  0.10479930977E+03  0.00000000000E+00 0.  1.
<scales pt_clust_5="13000.00000" pt_clust_6="13000.00000" pt_clust_7="13000.00000" pt_clust_8="13000.00000" pt_clust_9="37.16931"></scales>
<clustering>
<clus scale="   37.169">  1  9  2 -1</clus>
<clus scale="   82.063">  5  6 -1 -1</clus>
<clus scale="   95.098">  7  8 -1 -1</clus>
<clus scale="  117.074">  2  5  1 -1</clus>
<clus scale="   37.169">  1  5  2 -1</clus>
</clustering>
</event>
<event>
 9    1  0.6296820E-005  0.1956710E+03  0.7546771E-02  0.1178593E+00
         21   -1    0    0  501  502  0.00000000000E+00  0.00000000000E+00  0.10461461093E+03  0.10461461093E+03  0.00000000000E+00 0. -1.
          3   -1    0    0  502    0 -0.00000000000E+00 -0.00000000000E+00 -0.63577718674E+03  0.63577718674E+03  0.00000000000E+00 0. -1.
         23    2    1    2    0    0  0.50710919458E+02 -0.37600042826E+02 -0.43515831939E+02  0.11794733566E+03  0.89624694065E+02 0.  0.
        -24    2    1    2    0    0  0.14303578087E+03 -0.53199699524E+02 -0.20333741793E+03  0.26661561283E+03  0.80301536955E+02 0.  0.
         13    1    4    4    0    0  0.10392559477E+03 -0.46868034214E+02 -0.19537409380E+03  0.22620384260E+03  0.00000000000E+00 0. -1.
        -14    1    4    4    0    0  0.39110186094E+02 -0.63316653092E+01 -0.79633241313E+01  0.40411770230E+02  0.00000000000E+00 0.  1.
        -13    1    3    3    0    0  0.73354647180E+02 -0.10237987027E+02 -0.27837170493E+02  0.79124134766E+02  0.00000000000E+00 0. -1.
         13    1    3    3    0    0 -0.22643727722E+02 -0.27362055799E+02 -0.15678661446E+02  0.38823200891E+02  0.00000000000E+00 0.  1.
          4    1    1    2  501    0 -0.19374670033E+03  0.90799742350E+02 -0.28430932594E+03  0.35582884919E+03  0.00000000000E+00 0. -1.
<scales pt_clust_5="13000.00000" pt_clust_6="13000.00000" pt_clust_7="13000.00000" pt_clust_8="13000.00000" pt_clust_9="178.43445"></scales>
<clustering>
<clus scale="   80.302">  5  6 -1 -1</clus>
<clus scale="   89.625">  7  8 -1 -1</clus>
<clus scale="  109.626">  2  7  1 -1</clus>
<clus scale="  178.434">  1  9  2 -1</clus>
<clus scale="  178.434">  1  5  2 -1</clus>
</clustering>
</event>
<event>
 9    1  0.6296820E-005  0.9061766E+02  0.7546771E-02  0.1309206E+00
         -2   -1    0    0    0  501 -0.00000000000E+00  0.00000000000E+00  0.35958417939E+03  0.35958417939E+03  0.00000000000E+00 0.  1.
         21   -1    0    0  501  502  0.00000000000E+00 -0.00000000000E+00 -0.72751096050E+02  0.72751096050E+02  0.00000000000E+00 0.  1.
        -24    2    1    2    0    0  0.67238435818E+01  0.51188617257E+01  0.17061898702E+03  0.18755848393E+03  0.77433412343E+02 0.  0.
         23    2    1    2    0    0  0.53665158457E+02  0.28406446781E+02  0.13511611958E+03  0.17316628697E+03  0.89684567906E+02 0.  0.
         11    1    3    3    0    0 -0.21505833205E+02 -0.27295500201E+02  0.82277274124E+02  0.89314584645E+02  0.00000000000E+00 0. -1.
        -12    1    3    3    0    0  0.28229676787E+02  0.32414361926E+02  0.88341712892E+02  0.98243899288E+02  0.00000000000E+00 0.  1.
        -13    1    4    4    0    0  0.48520391628E+02  0.59034329219E+02  0.85895564801E+02  0.11496664074E+03  0.00000000000E+00 0.  1.
         13    1    4    4    0    0  0.51447668291E+01 -0.30627882438E+02  0.49220554779E+02  0.58199646228E+02  0.00000000000E+00 0. -1.
         -1    1    1    2    0  502 -0.60389002039E+02 -0.33525308507E+02 -0.18902023254E+02  0.71610504542E+02  0.00000000000E+00 0.  1.
<scales pt_clust_5="13000.00000" pt_clust_6="13000.00000" pt_clust_7="13000.00000" pt_clust_8="13000.00000" pt_clust_9="69.07082"></scales>
<clustering>
<clus scale="   69.071">  2  9  1 -1</clus>
<clus scale="   77.433">  5  6 -1 -1</clus>
<clus scale="   78.512">  1  5  2 -1</clus>
<clus scale="   89.685">  7  8 -1 -1</clus>
<clus scale="   69.071">  2  5  1 -1</clus>
</clustering>
</event>
<event>
 9    1  0.6296820E-005  0.1296229E+03  0.7546771E-02  0.1229110E+00
          1   -1    0    0  502    0 -0.00000000000E+00  0.00000000000E+00  0.78061056337E+03  0.78061056337E+03  0.00000000000E+00 0. -1.
         21   -1    0    0  501  502  0.00000000000E+00 -0.00000000000E+00 -0.44621476882E+02  0.44621476882E+02  0.00000000000E+00 0. -1.
        -24    2    1    2    0    0 -0.11585080984E+03 -0.43653569325E+01  0.52805477585E+03  0.54669856766E+03  0.81221986568E+02 0.  0.
         23    2    1    2    0    0  0.56772667194E+02  0.42516557713E+02  0.15369644894E+03  0.18972194912E+03  0.85679788412E+02 0.  0.
         11    1    3    3    0    0 -0.11213294222E+03 -0.25072083673E+02  0.37510629964E+03  0.39231000770E+03  0.00000000000E+00 0. -1.
        -12    1    3    3    0    0 -0.37178676165E+01  0.20706726740E+02  0.15294847622E+03  0.15438855997E+03  0.00000000000E+00 0.  1.
        -11    1    4    4    0    0  0.38555940322E+02  0.61589969799E+02  0.66061036246E+02  0.98203591705E+02  0.00000000000E+00 0.  1.
         11    1    4    4    0    0  0.18216726872E+02 -0.19073412086E+02  0.87635412691E+02  0.91518357415E+02  0.00000000000E+00 0. -1.
          2    1    1    2  501    0  0.59078142643E+02 -0.38151200780E+02  0.54237861695E+02  0.88811523466E+02  0.00000000000E+00 0. -1.
<scales pt_clust_5="13000.00000" pt_clust_6="13000.00000" pt_clust_7="13000.00000" pt_clust_8="13000.00000" pt_clust_9="70.32596"></scales>
<clustering>
<clus scale="   70.326">  2  9  1 -1</clus>
<clus scale="   81.222">  5  6 -1 -1</clus>
<clus scale="   85.680">  7  8 -1 -1</clus>
<clus scale="  126.721">  1  5  2 -1</clus>
<clus scale="   70.326">  2  5  1 -1</clus>
</clustering>
</event>
<event>
 9    1  0.6296820E-005  0.1036093E+03  0.7546771E-02  0.1278655E+00
         -4   -1    0    0    0  501 -0.00000000000E+00  0.00000000000E+00  0.13721525161E+03  0.13721525161E+03  0.00000000000E+00 0.  1.
         21   -1    0    0  501  502  0.00000000000E+00 -0.00000000000E+00 -0.12738153583E+03  0.12738153583E+03  0.00000000000E+00 0. -1.
        -24    2    1    2    0    0  0.65801520678E+01  0.53286081032E+02  0.73737130175E+02  0.12102803480E+03  0.79548199284E+02 0.  0.
         23    2    1    2    0    0 -0.68287402112E+01 -0.30780564194E+02 -0.27962645959E+02  0.10116239792E+03  0.91966550219E+02 0.  0.
         11    1    3    3    0    0 -0.16712426173E+02 -0.11712631474E+02  0.38349337883E+02  0.43441485250E+02  0.00000000000E+00 0. -1.
        -12    1    3    3    0    0  0.23292578241E+02  0.64998712506E+02  0.35387792292E+02  0.77586549555E+02  0.00000000000E+00 0.  1.
        -13    1    4    4    0    0  0.22776235174E+02  0.23166608565E+02 -0.22217555590E+02  0.39358206482E+02  0.00000000000E+00 0.  1.
         13    1    4    4    0    0 -0.29604975385E+02 -0.53947172759E+02 -0.57450903696E+01  0.61804191440E+02  0.00000000000E+00 0. -1.
         -3    1    1    2    0  502  0.24858814344E+00 -0.22505516838E+02 -0.35940768436E+02  0.42406354713E+02  0.00000000000E+00 0.  1.
<scales pt_clust_5="13000.00000" pt_clust_6="13000.00000" pt_clust_7="13000.00000" pt_clust_8="13000.00000" pt_clust_9="22.50689"></scales>
<clustering>
<clus scale="   22.507">  2  9  1 -1</clus>
<clus scale="   79.548">  5  6 -1 -1</clus>
<clus scale="   91.967">  7  8 -1 -1</clus>
<clus scale="   92.763">  1  5  2 -1</clus>
<clus scale="   22.507">  2  5  1 -1</clus>
</clustering>
</event>
<event>
 9    1  0.6296820E-005  0.4438191E+03  0.7546771E-02  0.1067291E+00
         21   -1    0    0  501  502  0.00000000000E+00  0.00000000000E+00  0.29386574491E+03  0.29386574491E+03  0.00000000000E+00 0.  1.
          1   -1    0    0  502    0 -0.00000000000E+00 -0.00000000000E+00 -0.10413999660E+04  0.10413999660E+04  0.00000000000E+00 0. -1.
         23    2    1    2    0    0  0.56962175879E+02  0.10586674153E+03 -0.58735802755E+02  0.16182016378E+03  0.91013265172E+02 0.  0.
        -24    2    1    2    0    0 -0.45090813431E+03  0.72575488760E+02 -0.55001533883E+03  0.71924758268E+03  0.78834415617E+02 0.  0.
         11    1    4    4    0    0 -0.10915012091E+03 -0.11702860036E+02 -0.15799179857E+03  0.19238532752E+03  0.00000000000E+00 0. -1.
        -12    1    4    4    0    0 -0.34175801340E+03  0.84278348796E+02 -0.39202354026E+03  0.52686225516E+03  0.00000000000E+00 0.  1.
        -11    1    3    3    0    0  0.43628594011E+02  0.25674653817E+02  0.14229295165E+02  0.52584359888E+02  0.00000000000E+00 0. -1.
         11    1    3    3    0    0  0.13333581869E+02  0.80192087718E+02 -0.72965097920E+02  0.10923580389E+03  0.00000000000E+00 0.  1.
          2    1    1    2  501    0  0.39394595843E+03 -0.17844223030E+03 -0.13878307946E+03  0.45419796440E+03  0.00000000000E+00 0. -1.
<scales pt_clust_5="13000.00000" pt_clust_6="13000.00000" pt_clust_7="13000.00000" pt_clust_8="13000.00000" pt_clust_9="436.76143"></scales>
<clustering>
<clus scale="   78.834">  5  6 -1 -1</clus>
<clus scale="   91.013">  7  8 -1 -1</clus>
<clus scale="  150.784">  2  7  1 -1</clus>
<clus scale="  436.761">  1  9  2 -1</clus>
<clus scale="  436.761">  1  5  2 -1</clus>
</clustering>
</event>
<event>
 9    1  0.6296820E-005  0.8915259E+02  0.7546771E-02  0.1311416E+00
         21   -1    0    0  501  502  0.00000000000E+00  0.00000000000E+00  0.27740040088E+03  0.27740040088E+03  0.00000000000E+00 0.  1.
         -4   -1    0    0    0  501 -0.00000000000E+00 -0.00000000000E+00 -0.89733095392E+02  0.89733095392E+02  0.00000000000E+00 0.  1.
         23    2    1    2    0    0 -0.28113181839E+01 -0.11587880887E+02 -0.37683885244E+02  0.96119094711E+02  0.87616337904E+02 0.  0.
        -24    2    1    2    0    0 -0.13816711805E+02  0.29682307195E+02  0.58711135710E+02  0.10257210408E+03  0.77473209515E+02 0.  0.
         13    1    4    4    0    0 -0.11532962132E+02  0.29419823246E+02  0.77473178256E+02  0.83669758960E+02  0.00000000000E+00 0. -1.
        -14    1    4    4    0    0 -0.22837496736E+01  0.26248394939E+00 -0.18762042546E+02  0.18902345116E+02  0.00000000000E+00 0.  1.
        -13    1    3    3    0    0  0.21099321297E+01  0.38255159191E+02 -0.15194696252E+02  0.41216353702E+02  0.00000000000E+00 0. -1.
         13    1    3    3    0    0 -0.49212503136E+01 -0.49843040077E+02 -0.22489188992E+02  0.54902741009E+02  0.00000000000E+00 0.  1.
         -3    1    1    2    0  502  0.16628029989E+02 -0.18094426308E+02  0.16664005503E+03  0.16844229749E+03  0.00000000000E+00 0.  1.
<scales pt_clust_5="13000.00000" pt_clust_6="13000.00000" pt_clust_7="13000.00000" pt_clust_8="13000.00000" pt_clust_9="24.57437"></scales>
<clustering>
<clus scale="   24.574">  1  9  2 -1</clus>
<clus scale="   77.473">  5  6 -1 -1</clus>
<clus scale="   79.206">  1  5  2 -1</clus>
<clus scale="   87.616">  7  8 -1 -1</clus>
<clus scale="   24.574">  1  5  2 -1</clus>
</clustering>
</event>
<event>
 9    1  0.6296820E-005  0.1558042E+03  0.7546771E-02  0.1194701E+00
          1   -1    0    0  502    0 -0.00000000000E+00  0.00000000000E+00  0.36793934168E+03  0.36793934168E+03  0.00000000000E+00 0. -1.
         21   -1    0    0  501  502  0.00000000000E+00 -0.00000000000E+00 -0.12517307168E+03  0.12517307168E+03  0.00000000000E+00 0.  1.
         23    2    1    2    0    0  0.14184866384E+03  0.43227152081E+02  0.22634216729E+03  0.28444228192E+03  0.87675566361E+02 0.  0.
        -24    2    1    2    0    0 -0.87154241739E+02  0.13766241790E+02 -0.21136715666E+02  0.12120275563E+03  0.80361532819E+02 0.  0.
         11    1    4    4    0    0 -0.70377081081E+02  0.20847131196E+02  0.20118625484E+02  0.76107131807E+02  0.00000000000E+00 0. -1.
        -12    1    4    4    0    0 -0.16777160658E+02 -0.70808894060E+01 -0.41255341150E+02  0.45095623822E+02  0.00000000000E+00 0.  1.
        -13    1    3    3    0    0  0.90680188686E+02  0.15669412917E+02  0.20095198957E+03  0.22102065341E+03  0.00000000000E+00 0. -1.
         13    1    3    3    0    0  0.51168475159E+02  0.27557739164E+02  0.25390177721E+02  0.63421628508E+02  0.00000000000E+00 0.  1.
          2    1    1    2  501    0 -0.54694422106E+02 -0.56993393871E+02  0.37560818370E+02  0.87467375810E+02  0.00000000000E+00 0. -1.
<scales pt_clust_5="13000.00000" pt_clust_6="13000.00000" pt_clust_7="13000.00000" pt_clust_8="13000.00000" pt_clust_9="78.99194"></scales>
<clustering>
<clus scale="   78.992">  2  9  1 -1</clus>
<clus scale="   80.362">  5  6 -1 -1</clus>
<clus scale="   87.676">  7  8 -1 -1</clus>
<clus scale="  151.809">  2  5  1 -1</clus>
<clus scale="   78.992">  2  5  1 -1</clus>
</clustering>
</event>
<event>
 9    1  0.6296820E-005  0.8630978E+02  0.7546771E-02  0.1324323E+00
          1   -1    0    0  502    0 -0.00000000000E+00  0.00000000000E+00  0.34275957252E+03  0.34275957252E+03  0.00000000000E+00 0. -1.
         21   -1    0    0  501  502  0.00000000000E+00 -0.00000000000E+00 -0.51455629518E+02  0.51455629518E+02  0.00000000000E+00 0. -1.
        -24    2    1    2    0    0 -0.18004819342E+02 -0.12031858163E+01  0.19318226679E+03  0.20544407653E+03  0.67544497970E+02 0.  0.
         23    2    1    2    0    0 -0.36040339415E+01  0.31132619678E+02  0.11649300807E+03  0.14753740889E+03  0.84937842131E+02 0.  0.
         11    1    3    3    0    0 -0.27853748161E+02  0.26054411404E+02  0.13722461151E+03  0.14242632356E+03  0.00000000000E+00 0. -1.
        -12    1    3    3    0    0  0.98489288185E+01 -0.27257597220E+02  0.55957655278E+02  0.63017752969E+02  0.00000000000E+00 0.  1.
        -11    1    4    4    0    0  0.26151981838E+02  0.29684483819E+02  0.11020375345E+03  0.11708954696E+03  0.00000000000E+00 0.  1.
         11    1    4    4    0    0 -0.29756015779E+02  0.14481358589E+01  0.62892546181E+01  0.30447861931E+02  0.00000000000E+00 0. -1.
          2    1    1    2  501    0  0.21608853284E+02 -0.29929433861E+02 -0.18371331853E+02  0.41233716611E+02  0.00000000000E+00 0. -1.
<scales pt_clust_5="13000.00000" pt_clust_6="13000.00000" pt_clust_7="13000.00000" pt_clust_8="13000.00000" pt_clust_9="36.91495"></scales>
<clustering>
<clus scale="   36.915">  2  9  1 -1</clus>
<clus scale="   67.544">  5  6 -1 -1</clus>
<clus scale="   69.262">  1  5  2 -1</clus>
<clus scale="   84.938">  7  8 -1 -1</clus>
<clus scale="   36.915">  2  5  1 -1</clus>
</clustering>
</event>
<event>
 9    1  0.6296820E-005  0.1276252E+03  0.7546771E-02  0.1236136E+00
          1   -1    0    0  502    0 -0.00000000000E+00  0.00000000000E+00  0.31192131945E+03  0.31192131945E+03  0.00000000000E+00 0. -1.
         21   -1    0    0  501  502  0.00000000000E+00 -0.00000000000E+00 -0.94640284682E+02  0.94640284682E+02  0.00000000000E+00 0.  1.
         23    2    1    2    0    0 -0.86427227251E+02 -0.76736511973E+01  0.18424973423E+03  0.22637555760E+03  0.98840163817E+02 0.  0.
        -24    2    1    2    0    0  0.59388171209E+02  0.55416401295E+02  0.45519217138E+02  0.12391501668E+03  0.81761848183E+02 0.  0.
         11    1    4    4    0    0  0.39405946098E+02 -0.13004732551E+02  0.46649956309E+01  0.41757799760E+02  0.00000000000E+00 0. -1.
        -12    1    4    4    0    0  0.19982225111E+02  0.68421133846E+02  0.40854221507E+02  0.82157216921E+02  0.00000000000E+00 0.  1.
        -13    1    3    3    0    0 -0.10302889531E+03 -0.20490933354E+02  0.17346157788E+03  0.20278991745E+03  0.00000000000E+00 0. -1.
         13    1    3    3    0    0  0.16601668055E+02  0.12817282157E+02  0.10788156350E+02  0.23585640156E+02  0.00000000000E+00 0.  1.
          2    1    1    2  501    0  0.27039056043E+02 -0.47742750098E+02 -0.12487916603E+02  0.56271029844E+02  0.00000000000E+00 0. -1.
<scales pt_clust_5="13000.00000" pt_clust_6="13000.00000" pt_clust_7="13000.00000" pt_clust_8="13000.00000" pt_clust_9="54.86785"></scales>
<clustering>
<clus scale="   54.868">  2  9  1 -1</clus>
<clus scale="   81.762">  5  6 -1 -1</clus>
<clus scale="   98.840">  7  8 -1 -1</clus>
<clus scale="  114.908">  2  5  1 -1</clus>
<clus scale="   54.868">  2  5  1 -1</clus>
</clustering>
</event>
<event>
 9    1  0.6296820E-005  0.9498117E+02  0.7546771E-02  0.1295407E+00
         21   -1    0    0  501  502  0.00000000000E+00  0.00000000000E+00  0.12914080349E+03  0.12914080349E+03  0.00000000000E+00 0. -1.
          3   -1    0    0  502    0 -0.00000000000E+00 -0.00000000000E+00 -0.27077282157E+03  0.27077282157E+03  0.00000000000E+00 0. -1.
         23    2    1    2    0    0 -0.21602849100E+02 -0.24750022679E+02 -0.21757059924E+03  0.23692426285E+03  0.87845853412E+02 0.  0.
        -24    2    1    2    0    0  0.59870853657E+02  0.31760325521E+02  0.49897175857E+02  0.11617334669E+03  0.80082962775E+02 0.  0.
         13    1    4    4    0    0  0.77507574998E+02  0.13476788585E+02  0.31202611906E+02  0.84632446511E+02  0.00000000000E+00 0. -1.
        -14    1    4    4    0    0 -0.17636721341E+02  0.18283536936E+02  0.18694563951E+02  0.31540900175E+02  0.00000000000E+00 0.  1.
        -13    1    3    3    0    0  0.10309090593E+02  0.28385308054E+02 -0.52011137714E+02  0.60142842537E+02  0.00000000000E+00 0.  1.
         13    1    3    3    0    0 -0.31911939693E+02 -0.53135330733E+02 -0.16555946153E+03  0.17678142031E+03  0.00000000000E+00 0. -1.
          4    1    1    2  501    0 -0.38268004557E+02 -0.70103028419E+01  0.26041405305E+02  0.46816015518E+02  0.00000000000E+00 0. -1.
<scales pt_clust_5="13000.00000" pt_clust_6="13000.00000" pt_clust_7="13000.00000" pt_clust_8="13000.00000" pt_clust_9="38.90481"></scales>
<clustering>
<clus scale="   38.905">  1  9  2 -1</clus>
<clus scale="   80.083">  5  6 -1 -1</clus>
<clus scale="   87.846">  7  8 -1 -1</clus>
<clus scale="   87.851">  1  5  2 -1</clus>
<clus scale="   38.905">  1  5  2 -1</clus>
</clustering>
</event>
<event>
 9    1  0.6296820E-005  0.1114238E+03  0.7546771E-02  0.1262372E+00
         21   -1    0    0  501  502  0.00000000000E+00  0.00000000000E+00  0.33759963764E+03  0.33759963764E+03  0.00000000000E+00 0.  1.
          3   -1    0    0  502    0 -0.00000000000E+00 -0.00000000000E+00 -0.52593232350E+02  0.52593232350E+02  0.00000000000E+00 0. -1.
         23    2    1    2    0    0 -0.18392410120E+02  0.60670068461E+02  0.77294100859E+02  0.13459090867E+03  0.90117682565E+02 0.  0.
        -24    2    1    2    0    0 -0.15439514766E+02 -0.73539042628E+02  0.17918233420E+03  0.20951325513E+03  0.78378095011E+02 0.  0.
         13    1    4    4    0    0 -0.31002480827E+02 -0.61238483129E+02  0.68157942664E+02  0.96730609331E+02  0.00000000000E+00 0. -1.
        -14    1    4    4    0    0  0.15562966062E+02 -0.12300559499E+02  0.11102439154E+03  0.11278264580E+03  0.00000000000E+00 0.  1.
        -13    1    3    3    0    0 -0.22438179587E+02 -0.47565047229E+01 -0.10334129678E+02  0.25157314573E+02  0.00000000000E+00 0.  1.
         13    1    3    3    0    0  0.40457694666E+01  0.65426573184E+02  0.87628230536E+02  0.10943359409E+03  0.00000000000E+00 0. -1.
          4    1    1    2  501    0  0.33831924886E+02  0.12868974167E+02  0.28529970231E+02  0.46088706197E+02  0.00000000000E+00 0. -1.
<scales pt_clust_5="13000.00000" pt_clust_6="13000.00000" pt_clust_7="13000.00000" pt_clust_8="13000.00000" pt_clust_9="36.19684"></scales>
<clustering>
<clus scale="   36.197">  1  9  2 -1</clus>
<clus scale="   78.378">  5  6 -1 -1</clus>
<clus scale="   90.118">  7  8 -1 -1</clus>
<clus scale="  102.163">  1  5  2 -1</clus>
<clus scale="   36.197">  1  5  2 -1</clus>
</clustering>
</event>
<event>
 9    1  0.6296820E-005  0.1067077E+03  0.7546771E-02  0.1271685E+00
          3   -1    0    0  502    0 -0.00000000000E+00  0.00000000000E+00  0.20391810501E+03  0.20391810501E+03  0.00000000000E+00 0. -1.
         21   -1    0    0  501  502  0.00000000000E+00 -0.00000000000E+00 -0.20253252997E+03  0.20253252997E+03  0.00000000000E+00 0. -1.
         23    2    1    2    0    0  0.22003685837E+01  0.54869554142E+02  0.15497440322E+03  0.18838750257E+03  0.91963448607E+02 0.  0.
        -24    2    1    2    0    0 -0.27563666614E+02 -0.48287044661E+02 -0.47540780996E+02  0.10882570920E+03  0.80569936861E+02 0.  0.
         11    1    4    4    0    0 -0.24888168761E+02  0.17756578742E+02 -0.23236371660E+02  0.38401119786E+02  0.00000000000E+00 0. -1.
        -12    1    4    4    0    0 -0.26754978531E+01 -0.66043623403E+02 -0.24304409336E+02  0.70424589414E+02  0.00000000000E+00 0.  1.
        -11    1    3    3    0    0  0.56703958939E+01 -0.23723475748E+02  0.17587653853E+02  0.30071286291E+02  0.00000000000E+00 0.  1.
         11    1    3    3    0    0 -0.34700273102E+01  0.78593029890E+02  0.13738674936E+03  0.15831621628E+03  0.00000000000E+00 0. -1.
          4    1    1    2  501    0  0.25363298030E+02 -0.65825094811E+01 -0.10604804718E+03  0.10923742321E+03  0.00000000000E+00 0. -1.
<scales pt_clust_5="13000.00000" pt_clust_6="13000.00000" pt_clust_7="13000.00000" pt_clust_8="13000.00000" pt_clust_9="26.20356"></scales>
<clustering>
<clus scale="   26.204">  2  9  1 -1</clus>
<clus scale="   80.570">  5  6 -1 -1</clus>
<clus scale="   91.963">  7  8 -1 -1</clus>
<clus scale="   97.061">  2  5  1 -1</clus>
<clus scale="   26.204">  2  5  1 -1</clus>
</clustering>
</event>
<event>
 9    1  0.6296820E-005  0.1318248E+03  0.7546771E-02  0.1228402E+00
         21   -1    0    0  501  502  0.00000000000E+00  0.00000000000E+00  0.44281062317E+02  0.44281062317E+02  0.00000000000E+00 0. -1.
          1   -1    0    0  502    0 -0.00000000000E+00 -0.00000000000E+00 -0.52934145398E+03  0.52934145398E+03  0.00000000000E+00 0. -1.
         23    2    1    2    0    0  0.16520944489E+02 -0.86389139877E+02 -0.30221839473E+03  0.32829384634E+03  0.93299873194E+02 0.  0.
        -24    2    1    2    0    0 -0.39930156535E+02  0.97921762868E+02 -0.12504503356E+03  0.18191351737E+03  0.79203398546E+02 0.  0.
         13    1    4    4    0    0  0.16652756392E+02  0.54021311309E+02 -0.33596594227E+02  0.65759771249E+02  0.00000000000E+00 0. -1.
        -14    1    4    4    0    0 -0.56582912927E+02  0.43900451558E+02 -0.91448439335E+02  0.11615374613E+03  0.00000000000E+00 0.  1.
        -13    1    3    3    0    0  0.29747216981E+02 -0.67307006042E+02 -0.29491101581E+03  0.30395334712E+03  0.00000000000E+00 0.  1.
         13    1    3    3    0    0 -0.13226272491E+02 -0.19082133835E+02 -0.73073789212E+01  0.24340499222E+02  0.00000000000E+00 0. -1.
          2    1    1    2  501    0  0.23409212045E+02 -0.11532622991E+02 -0.57796963373E+02  0.63415152580E+02  0.00000000000E+00 0. -1.
<scales pt_clust_5="13000.00000" pt_clust_6="13000.00000" pt_clust_7="13000.00000" pt_clust_8="13000.00000" pt_clust_9="26.09585"></scales>
<clustering>
<clus scale="   26.096">  1  9  2 -1</clus>
<clus scale="   79.203">  5  6 -1 -1</clus>
<clus scale="   93.300">  7  8 -1 -1</clus>
<clus scale="  122.254">  1  5  2 -1</clus>
<clus scale="   26.096">  1  5  2 -1</clus>
</clustering>
</event>
<event>
 9    1  0.6296820E-005  0.1008705E+03  0.7546771E-02  0.1280391E+00
          1   -1    0    0  502    0 -0.00000000000E+00  0.00000000000E+00  0.14692995658E+03  0.14692995658E+03  0.00000000000E+00 0. -1.
         21   -1    0    0  501  502  0.00000000000E+00 -0.00000000000E+00 -0.19308998701E+03  0.19308998701E+03  0.00000000000E+00 0. -1.
        -24    2    1    2    0    0  0.45585613299E+01  0.55164415184E+02  0.67073381265E+02  0.12159577871E+03  0.84987068089E+02 0.  0.
         23    2    1    2    0    0  0.36255374630E+01 -0.34437529917E+02  0.72800194741E+01  0.95867768311E+02  0.89098497904E+02 0.  0.
         11    1    3    3    0    0 -0.32021358465E+02  0.17159538931E+01  0.40327929135E+02  0.51523332229E+02  0.00000000000E+00 0. -1.
        -12    1    3    3    0    0  0.36579919794E+02  0.53448461291E+02  0.26745452130E+02  0.70072446484E+02  0.00000000000E+00 0.  1.
        -11    1    4    4    0    0 -0.16767656092E+02 -0.57794231588E+02  0.18399528439E+02  0.62927499096E+02  0.00000000000E+00 0.  1.
         11    1    4    4    0    0  0.20393193555E+02  0.23356701672E+02 -0.11119508964E+02  0.32940269215E+02  0.00000000000E+00 0. -1.
          2    1    1    2  501    0 -0.81840987929E+01 -0.20726885268E+02 -0.12051343117E+03  0.12255639656E+03  0.00000000000E+00 0. -1.
<scales pt_clust_5="13000.00000" pt_clust_6="13000.00000" pt_clust_7="13000.00000" pt_clust_8="13000.00000" pt_clust_9="22.28415"></scales>
<clustering>
<clus scale="   22.284">  2  9  1 -1</clus>
<clus scale="   84.987">  5  6 -1 -1</clus>
<clus scale="   89.098">  7  8 -1 -1</clus>
<clus scale="   97.258">  1  5  2 -1</clus>
<clus scale="   22.284">  2  5  1 -1</clus>
</clustering>
</event>
<event>
 9    1  0.6296820E-005  0.1823192E+03  0.7546771E-02  0.1166913E+00
         21   -1    0    0  501  502  0.00000000000E+00  0.00000000000E+00  0.83270776848E+03  0.83270776848E+03  0.00000000000E+00 0. -1.
          1   -1    0    0  502    0 -0.00000000000E+00 -0.00000000000E+00 -0.58244634423E+02  0.58244634423E+02  0.00000000000E+00 0. -1.
        -24    2    1    2    0    0 -0.13320659106E+03 -0.11960283071E+03  0.21859396797E+03  0.29372851210E+03  0.80276291490E+02 0.  0.
         23    2    1    2    0    0  0.92980759817E+02  0.73276718478E+02  0.45636938589E+03  0.48032892755E+03  0.91803938343E+02 0.  0.
         11    1    3    3    0    0 -0.88407070713E+02 -0.42176452418E+02  0.70390336367E+02  0.12062115380E+03  0.00000000000E+00 0. -1.
        -12    1    3    3    0    0 -0.44799520347E+02 -0.77426378290E+02  0.14820363160E+03  0.17310735830E+03  0.00000000000E+00 0.  1.
        -13    1    4    4    0    0  0.49420771291E+02  0.89892564870E+02  0.33309326700E+03  0.34853150557E+03  0.00000000000E+00 0.  1.
         13    1    4    4    0    0  0.43559988525E+02 -0.16615846393E+02  0.12327611889E+03  0.13179742198E+03  0.00000000000E+00 0. -1.
          2    1    1    2  501    0  0.40225831244E+02  0.46326112230E+02  0.99499780196E+02  0.11689496325E+03  0.00000000000E+00 0. -1.
<scales pt_clust_5="13000.00000" pt_clust_6="13000.00000" pt_clust_7="13000.00000" pt_clust_8="13000.00000" pt_clust_9="61.35332"></scales>
<clustering>
<clus scale="   61.353">  1  9  2 -1</clus>
<clus scale="   80.276">  5  6 -1 -1</clus>
<clus scale="   91.804">  7  8 -1 -1</clus>
<clus scale="  176.795">  2  5  1 -1</clus>
<clus scale="   61.353">  1  5  2 -1</clus>
</clustering>
</event>
<event>
 9    1  0.6296820E-005  0.3084614E+03  0.7546771E-02  0.1081086E+00
         21   -1    0    0  501  502  0.00000000000E+00  0.00000000000E+00  0.47236497901E+02  0.47236497901E+02  0.00000000000E+00 0. -1.
          1   -1    0    0  502    0 -0.00000000000E+00 -0.00000000000E+00 -0.16681759113E+04  0.16681759113E+04  0.00000000000E+00 0. -1.
        -24    2    1    2    0    0 -0.67416678470E+02 -0.17126663371E+03 -0.43795743076E+03  0.48191403640E+03  0.80976286432E+02 0.  0.
         23    2    1    2    0    0  0.86256911416E+01 -0.54805273438E+02 -0.25550765226E+03  0.27706043916E+03  0.91653183471E+02 0.  0.
         11    1    3    3    0    0 -0.48625897817E+02 -0.98602291261E+02 -0.34693708329E+03  0.36393987077E+03  0.00000000000E+00 0. -1.
        -12    1    3    3    0    0 -0.18790780653E+02 -0.72664342448E+02 -0.91020347475E+02  0.11797416563E+03  0.00000000000E+00 0.  1.
        -11    1    4    4    0    0 -0.24540750715E+02 -0.33014978447E+02 -0.38130892966E+02  0.56091017515E+02  0.00000000000E+00 0. -1.
         11    1    4    4    0    0  0.33166441857E+02 -0.21790294991E+02 -0.21737675929E+03  0.22096942165E+03  0.00000000000E+00 0.  1.
          2    1    1    2  501    0  0.58790987328E+02  0.22607190715E+03 -0.92747433039E+03  0.95643793365E+03  0.00000000000E+00 0. -1.
<scales pt_clust_5="13000.00000" pt_clust_6="13000.00000" pt_clust_7="13000.00000" pt_clust_8="13000.00000" pt_clust_9="233.59140"></scales>
<clustering>
<clus scale="   80.976">  5  6 -1 -1</clus>
<clus scale="   91.653">  7  8 -1 -1</clus>
<clus scale="   96.216">  5  7 -1 -1</clus>
<clus scale="  233.591">  1  9  2 -1</clus>
<clus scale="  233.591">  1  5  2 -1</clus>
</clustering>
</event>
<event>
 9    1  0.6296820E-005  0.1210016E+03  0.7546771E-02  0.1245459E+00
         -2   -1    0    0    0  501 -0.00000000000E+00  0.00000000000E+00  0.20678274351E+03  0.20678274351E+03  0.00000000000E+00 0.  1.
         21   -1    0    0  501  502  0.00000000000E+00 -0.00000000000E+00 -0.16093694864E+03  0.16093694864E+03  0.00000000000E+00 0.  1.
        -24    2    1    2    0    0  0.53318206374E+02  0.43209415862E+02  0.10541841253E+03  0.15015605472E+03  0.81999477544E+02 0.  0.
         23    2    1    2    0    0 -0.77618900441E+02 -0.53338992729E+02  0.19006346281E+02  0.13469153336E+03  0.94397172139E+02 0.  0.
         11    1    3    3    0    0  0.46699452870E+02 -0.64365698034E+01  0.20151734227E+02  0.51267540623E+02  0.00000000000E+00 0. -1.
        -12    1    3    3    0    0  0.66187535046E+01  0.49645985666E+02  0.85266678308E+02  0.98888514097E+02  0.00000000000E+00 0.  1.
        -11    1    4    4    0    0 -0.44337948081E+02  0.11441337919E+01  0.47315320171E+02  0.64852927498E+02  0.00000000000E+00 0.  1.
         11    1    4    4    0    0 -0.33280952360E+02 -0.54483126521E+02 -0.28308973890E+02  0.69838605858E+02  0.00000000000E+00 0. -1.
         -1    1    1    2    0  502  0.24300694067E+02  0.10129576866E+02 -0.78578963948E+02  0.82872104081E+02  0.00000000000E+00 0.  1.
<scales pt_clust_5="13000.00000" pt_clust_6="13000.00000" pt_clust_7="13000.00000" pt_clust_8="13000.00000" pt_clust_9="26.32740"></scales>
<clustering>
<clus scale="   26.327">  2  9  1 -1</clus>
<clus scale="   81.999">  5  6 -1 -1</clus>
<clus scale="   94.397">  7  8 -1 -1</clus>
<clus scale="  111.600">  1  5  2 -1</clus>
<clus scale="   26.327">  2  5  1 -1</clus>
</clustering>
</event>
<event>
 9    1  0.7373471E-005  0.3331632E+03  0.7546771E-02  0.1121778E+00
         21   -1    0    0  501  502  0.00000000000E+00  0.00000000000E+00  0.23129738396E+03  0.23129738396E+03  0.00000000000E+00 0. -1.
          1   -1    0    0  502    0 -0.00000000000E+00 -0.00000000000E+00 -0.10437507589E+04  0.10437507589E+04  0.00000000000E+00 0. -1.
         23    2    1    2    0    0  0.77885250894E+01  0.16225085498E+02 -0.75353529835E+02  0.11387404626E+03  0.83457950073E+02 0.  0.
        -24    2    1    2    0    0 -0.24422821704E+03 -0.22824286078E+03 -0.76743012483E+03  0.84215185469E+03  0.92350010062E+02 0.  0.
         11    1    4    4    0    0 -0.21055898047E+03 -0.19034058877E+03 -0.71471819616E+03  0.76901672538E+03  0.00000000000E+00 0. -1.
        -12    1    4    4    0    0 -0.33669236569E+02 -0.37902272014E+02 -0.52711928676E+02  0.73135129314E+02  0.00000000000E+00 0.  1.
        -13    1    3    3    0    0  0.67956459754E+01  0.39683812598E+02 -0.80346231180E+02  0.89869364365E+02  0.00000000000E+00 0.  1.
         13    1    3    3    0    0  0.99287911400E+00 -0.23458727100E+02  0.49927013453E+01  0.24004681894E+02  0.00000000000E+00 0. -1.
          2    1    1    2  501    0  0.23643969195E+03  0.21201777529E+03  0.30330279719E+02  0.31902224191E+03  0.00000000000E+00 0. -1.
<scales pt_clust_5="13000.00000" pt_clust_6="13000.00000" pt_clust_7="13000.00000" pt_clust_8="13000.00000" pt_clust_9="320.10810"></scales>
<clustering>
<clus scale="   83.458">  7  8 -1 -1</clus>
<clus scale="   85.376">  2  7  1 -1</clus>
<clus scale="   92.350">  5  6 -1 -1</clus>
<clus scale="  320.108">  1  9  2 -1</clus>
<clus scale="  320.108">  1  5  2 -1</clus>
</clustering>
</event>
<event>
 9    1  0.6296820E-005  0.1186832E+03  0.7546771E-02  0.1249438E+00
          1   -1    0    0  502    0 -0.00000000000E+00  0.00000000000E+00  0.10663259175E+04  0.10663259175E+04  0.00000000000E+00 0. -1.
         21   -1    0    0  501  502  0.00000000000E+00 -0.00000000000E+00 -0.38314385010E+02  0.38314385010E+02  0.00000000000E+00 0. -1.
        -24    2    1    2    0    0 -0.88258311977E+02 -0.83323458501E+01  0.38035015281E+03  0.39874921329E+03  0.80471974878E+02 0.  0.
         23    2    1    2    0    0  0.19671721127E+02  0.64112564611E+02  0.10296962878E+03  0.15407168330E+03  0.92940527163E+02 0.  0.
         13    1    3    3    0    0 -0.90419634930E+02  0.43507589763E+01  0.37321635687E+03  0.38403787381E+03  0.00000000000E+00 0. -1.
        -14    1    3    3    0    0  0.21613229525E+01 -0.12683104826E+02  0.71337959377E+01  0.14711339484E+02  0.00000000000E+00 0.  1.
        -11    1    4    4    0    0  0.21226151215E+02 -0.16683063266E+02  0.51827399169E+02  0.58437602620E+02  0.00000000000E+00 0.  1.
         11    1    4    4    0    0 -0.15544300884E+01  0.80795627878E+02  0.51142229612E+02  0.95634080676E+02  0.00000000000E+00 0. -1.
          2    1    1    2  501    0  0.68586590850E+02 -0.55780218761E+02  0.54469175092E+03  0.55181940594E+03  0.00000000000E+00 0. -1.
<scales pt_clust_5="13000.00000" pt_clust_6="13000.00000" pt_clust_7="13000.00000" pt_clust_8="13000.00000" pt_clust_9="88.40566"></scales>
<clustering>
<clus scale="   80.472">  5  6 -1 -1</clus>
<clus scale="   88.406">  2  9  1 -1</clus>
<clus scale="   92.941">  7  8 -1 -1</clus>
<clus scale="  109.195">  1  5  2 -1</clus>
<clus scale="   88.406">  2  5  1 -1</clus>
</clustering>
</event>
<event>
 9    1  0.6296820E-005  0.1175636E+03  0.7546771E-02  0.1252385E+00
         21   -1    0    0  501  502  0.00000000000E+00  0.00000000000E+00  0.76654645168E+03  0.76654645168E+03  0.00000000000E+00 0.  1.
         -4   -1    0    0    0  501 -0.00000000000E+00 -0.00000000000E+00 -0.34745852818E+02  0.34745852818E+02  0.00000000000E+00 0.  1.
        -24    2    1    2    0    0 -0.44124506095E+02 -0.49089914852E+02  0.18974204192E+03  0.21659433966E+03  0.80958469117E+02 0.  0.
         23    2    1    2    0    0  0.96276771151E+02 -0.14959454791E+02  0.33238356841E+03  0.35934095625E+03  0.95676979166E+02 0.  0.
         13    1    3    3    0    0  0.21570408807E+02 -0.94627972195E+01  0.74623047300E+02  0.78252324283E+02  0.00000000000E+00 0. -1.
        -14    1    3    3    0    0 -0.65694914902E+02 -0.39627117632E+02  0.11511899462E+03  0.13834201538E+03  0.00000000000E+00 0.  1.
        -11    1    4    4    0    0  0.57673366973E+02  0.24149483663E+01  0.30140740542E+03  0.30688511413E+03  0.00000000000E+00 0.  1.
         11    1    4    4    0    0  0.38603404179E+02 -0.17374403157E+02  0.30976162989E+02  0.52455842122E+02  0.00000000000E+00 0. -1.
         -3    1    1    2    0  502 -0.52152265056E+02  0.64049369643E+02  0.20967498853E+03  0.22535700859E+03  0.00000000000E+00 0.  1.
<scales pt_clust_5="13000.00000" pt_clust_6="13000.00000" pt_clust_7="13000.00000" pt_clust_8="13000.00000" pt_clust_9="82.59649"></scales>
<clustering>
<clus scale="   80.958">  5  6 -1 -1</clus>
<clus scale="   82.596">  1  9  2 -1</clus>
<clus scale="   95.677">  7  8 -1 -1</clus>
<clus scale="  105.931">  2  5  1 -1</clus>
<clus scale="   82.596">  1  5  2 -1</clus>
</clustering>
</event>
<event>
 9    1  0.6296820E-005  0.1033223E+03  0.7546771E-02  0.1278653E+00
         21   -1    0    0  501  502  0.00000000000E+00  0.00000000000E+00  0.48368497568E+03  0.48368497568E+03  0.00000000000E+00 0. -1.
          1   -1    0    0  502    0 -0.00000000000E+00 -0.00000000000E+00 -0.31926667944E+02  0.31926667944E+02  0.00000000000E+00 0. -1.
         23    2    1    2    0    0  0.90388671197E+01  0.47375785008E+02  0.16179211693E+03  0.19176505363E+03  0.90944931529E+02 0.  0.
        -24    2    1    2    0    0  0.31777692160E+02 -0.49787811021E+02  0.23717639868E+03  0.25707405422E+03  0.79660387990E+02 0.  0.
         13    1    4    4    0    0  0.38579654243E+02 -0.68225081699E+02  0.17235346951E+03  0.18933771401E+03  0.00000000000E+00 0. -1.
        -14    1    4    4    0    0 -0.68019620829E+01  0.18437270678E+02  0.64822929178E+02  0.67736340213E+02  0.00000000000E+00 0.  1.
        -13    1    3    3    0    0 -0.40544252656E+02  0.26490400937E+02  0.65485680047E+02  0.81449076461E+02  0.00000000000E+00 0.  1.
         13    1    3    3    0    0  0.49583119776E+02  0.20885384071E+02  0.96306436882E+02  0.11031597717E+03  0.00000000000E+00 0. -1.
          2    1    1    2  501    0 -0.40816559280E+02  0.24120260124E+01  0.52789792122E+02  0.66772535771E+02  0.00000000000E+00 0. -1.
<scales pt_clust_5="13000.00000" pt_clust_6="13000.00000" pt_clust_7="13000.00000" pt_clust_8="13000.00000" pt_clust_9="40.88779"></scales>
<clustering>
<clus scale="   40.888">  1  9  2 -1</clus>
<clus scale="   79.660">  5  6 -1 -1</clus>
<clus scale="   90.945">  7  8 -1 -1</clus>
<clus scale="   93.543">  1  5  2 -1</clus>
<clus scale="   40.888">  1  5  2 -1</clus>
</clustering>
</event>
<event>
 9    1  0.6296820E-005  0.8906346E+02  0.7546771E-02  0.1308583E+00
         21   -1    0    0  501  502  0.00000000000E+00  0.00000000000E+00  0.38031669793E+02  0.38031669793E+02  0.00000000000E+00 0.  1.
          1   -1    0    0  502    0 -0.00000000000E+00 -0.00000000000E+00 -0.34546599009E+03  0.34546599009E+03  0.00000000000E+00 0. -1.
         23    2    1    2    0    0  0.27844911479E+02  0.21790854807E+02 -0.21026346333E+03  0.22593531252E+03  0.74738617744E+02 0.  0.
        -24    2    1    2    0    0 -0.44975169247E+02 -0.89330459897E+01 -0.99389461302E+02  0.13602885754E+03  0.80765214703E+02 0.  0.
         13    1    4    4    0    0 -0.25703902280E+02 -0.24234600251E+02 -0.10500550976E+03  0.11078882399E+03  0.00000000000E+00 0. -1.
        -14    1    4    4    0    0 -0.19271266967E+02  0.15301554261E+02  0.56160484548E+01  0.25240033549E+02  0.00000000000E+00 0.  1.
        -13    1    3    3    0    0 -0.88646551357E+00 -0.25495054894E+02 -0.45955986869E+02  0.52561738691E+02  0.00000000000E+00 0.  1.
         13    1    3    3    0    0  0.28731376993E+02  0.47285909701E+02 -0.16430747646E+03  0.17337357383E+03  0.00000000000E+00 0. -1.
          2    1    1    2  501    0  0.17130257767E+02 -0.12857808817E+02  0.22186043390E+01  0.21533489823E+02  0.00000000000E+00 0. -1.
<scales pt_clust_5="13000.00000" pt_clust_6="13000.00000" pt_clust_7="13000.00000" pt_clust_8="13000.00000" pt_clust_9="21.41889"></scales>
<clustering>
<clus scale="   21.419">  1  9  2 -1</clus>
<clus scale="   74.739">  7  8 -1 -1</clus>
<clus scale="   80.765">  5  6 -1 -1</clus>
<clus scale="   83.637">  2  7  1 -1</clus>
<clus scale="   21.419">  1  5  2 -1</clus>
</clustering>
</event>
<event>
 9    1  0.6296820E-005  0.9880425E+02  0.7546771E-02  0.1287442E+00
          1   -1    0    0  502    0 -0.00000000000E+00  0.00000000000E+00  0.41960895085E+03  0.41960895085E+03  0.00000000000E+00 0. -1.
         21   -1    0    0  501  502  0.00000000000E+00 -0.00000000000E+00 -0.44654196852E+02  0.44654196852E+02  0.00000000000E+00 0.  1.
         23    2    1    2    0    0  0.26268283688E+02 -0.52043620689E+02  0.15867493984E+03  0.19189566158E+03  0.90816558067E+02 0.  0.
        -24    2    1    2    0    0 -0.29705941247E+02 -0.64648938421E+01  0.61171108207E+02  0.10655501848E+03  0.81779151905E+02 0.  0.
         13    1    4    4    0    0 -0.35620596750E+02  0.17570542238E+02  0.69826908994E+02  0.80332733596E+02  0.00000000000E+00 0. -1.
        -14    1    4    4    0    0  0.59146555037E+01 -0.24035436080E+02 -0.86558007871E+01  0.26222284884E+02  0.00000000000E+00 0.  1.
        -11    1    3    3    0    0  0.49546258720E+02 -0.17803852509E+01  0.97419215144E+02  0.10930921738E+03  0.00000000000E+00 0.  1.
         11    1    3    3    0    0 -0.23277975032E+02 -0.50263235438E+02  0.61255724695E+02  0.82586444204E+02  0.00000000000E+00 0. -1.
          2    1    1    2  501    0  0.34376575583E+01  0.58508514531E+02  0.15510870595E+03  0.16581246763E+03  0.00000000000E+00 0. -1.
<scales pt_clust_5="13000.00000" pt_clust_6="13000.00000" pt_clust_7="13000.00000" pt_clust_8="13000.00000" pt_clust_9="58.60945"></scales>
<clustering>
<clus scale="   58.609">  2  9  1 -1</clus>
<clus scale="   81.779">  5  6 -1 -1</clus>
<clus scale="   90.567">  2  5  1 -1</clus>
<clus scale="   90.817">  7  8 -1 -1</clus>
<clus scale="   58.609">  2  5  1 -1</clus>
</clustering>
</event>
<event>
 9    1  0.6296820E-005  0.8941986E+02  0.7546771E-02  0.1305003E+00
         21   -1    0    0  501  502  0.00000000000E+00  0.00000000000E+00  0.26775952098E+03  0.26775952098E+03  0.00000000000E+00 0.  1.
          3   -1    0    0  502    0 -0.00000000000E+00 -0.00000000000E+00 -0.39133828698E+03  0.39133828698E+03  0.00000000000E+00 0. -1.
         23    2    1    2    0    0  0.17782058045E+02 -0.15331678444E+02 -0.34701399358E+03  0.35851542917E+03  0.86967460930E+02 0.  0.
        -24    2    1    2    0    0  0.37006129883E+02 -0.53809719976E+02  0.16474779772E+03  0.19462723292E+03  0.80454852720E+02 0.  0.
         11    1    4    4    0    0  0.63339183819E+00 -0.28987594797E+02  0.56397618332E+01  0.29537920557E+02  0.00000000000E+00 0. -1.
        -12    1    4    4    0    0  0.36372738045E+02 -0.24822125179E+02  0.15910803589E+03  0.16508931236E+03  0.00000000000E+00 0.  1.
        -13    1    3    3    0    0 -0.12742336851E+02 -0.44364756479E+02 -0.21669853789E+03  0.22156004849E+03  0.00000000000E+00 0.  1.
         13    1    3    3    0    0  0.30524394896E+02  0.29033078035E+02 -0.13031545570E+03  0.13695538068E+03  0.00000000000E+00 0. -1.
          4    1    1    2  501    0 -0.54788187928E+02  0.69141398420E+02  0.58687429867E+02  0.10595514587E+03  0.00000000000E+00 0. -1.
<scales pt_clust_5="13000.00000" pt_clust_6="13000.00000" pt_clust_7="13000.00000" pt_clust_8="13000.00000" pt_clust_9="88.21722"></scales>
<clustering>
<clus scale="   80.455">  5  6 -1 -1</clus>
<clus scale="   86.967">  7  8 -1 -1</clus>
<clus scale="   88.217">  1  9  2 -1</clus>
<clus scale="   88.217">  1  5  2 -1</clus>
<clus scale="   88.217">  1  5  2 -1</clus>
</clustering>
</event>
<event>
 9    1  0.6296820E-005  0.2029017E+03  0.7546771E-02  0.1167978E+00
         21   -1    0    0  501  502  0.00000000000E+00  0.00000000000E+00  0.71297674591E+03  0.71297674591E+03  0.00000000000E+00 0. -1.
          1   -1    0    0  502    0 -0.00000000000E+00 -0.00000000000E+00 -0.13057533093E+03  0.13057533093E+03  0.00000000000E+00 0. -1.
        -24    2    1    2    0    0  0.81575398582E+02 -0.55750307940E+02  0.14984410792E+03  0.19524408404E+03  0.76839789064E+02 0.  0.
         23    2    1    2    0    0 -0.11655108172E+03 -0.12960781450E+03  0.23135245531E+02  0.19752272638E+03  0.89986930268E+02 0.  0.
         11    1    3    3    0    0  0.45920880060E+02 -0.63023354039E+02  0.60252564173E+02  0.98544618672E+02  0.00000000000E+00 0. -1.
        -12    1    3    3    0    0  0.35654518522E+02  0.72730460994E+01  0.89591543748E+02  0.96699465364E+02  0.00000000000E+00 0.  1.
        -13    1    4    4    0    0 -0.43782534991E+02 -0.76311684901E+02  0.52756888227E+02  0.10258495444E+03  0.00000000000E+00 0.  1.
         13    1    4    4    0    0 -0.72768546731E+02 -0.53296129600E+02 -0.29621642696E+02  0.94937771933E+02  0.00000000000E+00 0. -1.
          2    1    1    2  501    0  0.34975683139E+02  0.18535812244E+03  0.40942206153E+03  0.45078526643E+03  0.00000000000E+00 0. -1.
<scales pt_clust_5="13000.00000" pt_clust_6="13000.00000" pt_clust_7="13000.00000" pt_clust_8="13000.00000" pt_clust_9="181.85553"></scales>
<clustering>
<clus scale="   76.840">  5  6 -1 -1</clus>
<clus scale="   89.987">  7  8 -1 -1</clus>
<clus scale="  125.168">  2  5  1 -1</clus>
<clus scale="  181.856">  1  9  2 -1</clus>
<clus scale="  181.856">  1  5  2 -1</clus>
</clustering>
</event>
<event>
 9    1  0.6296820E-005  0.1039416E+03  0.7546771E-02  0.1284524E+00
         21   -1    0    0  501  502  0.00000000000E+00  0.00000000000E+00  0.15145605572E+03  0.15145605572E+03  0.00000000000E+00 0. -1.
          3   -1    0    0  502    0 -0.00000000000E+00 -0.00000000000E+00 -0.13886031465E+03  0.13886031465E+03  0.00000000000E+00 0. -1.
         23    2    1    2    0    0  0.35008678457E+01  0.27135479087E+02 -0.15703990359E+02  0.10439551935E+03  0.99514917707E+02 0.  0.
        -24    2    1    2    0    0 -0.65650467238E+02  0.23463492541E+02  0.18958508327E+02  0.10523574036E+03  0.76515466929E+02 0.  0.
         11    1    4    4    0    0 -0.64127132807E+02  0.29888713499E+02 -0.13573168641E+02  0.72040650078E+02  0.00000000000E+00 0. -1.
        -12    1    4    4    0    0 -0.15233344311E+01 -0.64252209580E+01  0.32531676969E+02  0.33195090278E+02  0.00000000000E+00 0.  1.
        -13    1    3    3    0    0 -0.51534278710E+01 -0.34563200477E+02 -0.22746252457E+02  0.41696098701E+02  0.00000000000E+00 0.  1.
         13    1    3    3    0    0  0.86542957168E+01  0.61698679564E+02  0.70422620979E+01  0.62699420649E+02  0.00000000000E+00 0. -1.
          4    1    1    2  501    0  0.62149599392E+02 -0.50598971628E+02  0.93412231024E+01  0.80685110668E+02  0.00000000000E+00 0. -1.
<scales pt_clust_5="13000.00000" pt_clust_6="13000.00000" pt_clust_7="13000.00000" pt_clust_8="13000.00000" pt_clust_9="80.14255"></scales>
<clustering>
<clus scale="   76.515">  5  6 -1 -1</clus>
<clus scale="   80.143">  1  9  2 -1</clus>
<clus scale="   82.190">  1  5  2 -1</clus>
<clus scale="   99.515">  7  8 -1 -1</clus>
<clus scale="   80.143">  1  5  2 -1</clus>
</clustering>
</event>
<event>
 9    1  0.6296820E-005  0.9340247E+02  0.7546771E-02  0.1301185E+00
         -2   -1    0    0    0  501 -0.00000000000E+00  0.00000000000E+00  0.31748256149E+03  0.31748256149E+03  0.00000000000E+00 0.  1.
         21   -1    0    0  501  502  0.00000000000E+00 -0.00000000000E+00 -0.83567584045E+02  0.83567584045E+02  0.00000000000E+00 0. -1.
        -24    2    1    2    0    0 -0.59290399823E+01  0.16266456159E+02  0.24117623637E+03  0.25481705887E+03  0.80411475490E+02 0.  0.
         23    2    1    2    0    0 -0.12141737803E+02 -0.47316477062E+02  0.14281928886E+02  0.10434316248E+03  0.91089248898E+02 0.  0.
         11    1    3    3    0    0  0.42980279662E+01  0.20876212419E+02  0.10306887072E+02  0.23675329152E+02  0.00000000000E+00 0. -1.
        -12    1    3    3    0    0 -0.10227067949E+02 -0.46097562600E+01  0.23086934930E+03  0.23114172972E+03  0.00000000000E+00 0.  1.
        -11    1    4    4    0    0 -0.27821908854E+02  0.18183300785E+02 -0.64851280860E+01  0.33863666754E+02  0.00000000000E+00 0.  1.
         11    1    4    4    0    0  0.15680171050E+02 -0.65499777848E+02  0.20767056972E+02  0.70479495724E+02  0.00000000000E+00 0. -1.
         -1    1    1    2    0  502  0.18070777786E+02  0.31050020903E+02 -0.21543187807E+02  0.41889924191E+02  0.00000000000E+00 0.  1.
<scales pt_clust_5="13000.00000" pt_clust_6="13000.00000" pt_clust_7="13000.00000" pt_clust_8="13000.00000" pt_clust_9="35.92571"></scales>
<clustering>
<clus scale="   35.926">  2  9  1 -1</clus>
<clus scale="   80.411">  5  6 -1 -1</clus>
<clus scale="   83.023">  1  5  2 -1</clus>
<clus scale="   91.089">  7  8 -1 -1</clus>
<clus scale="   35.926">  2  5  1 -1</clus>
</clustering>
</event>
<event>
 9    1  0.6296820E-005  0.4250748E+03  0.7546771E-02  0.1035469E+00
          1   -1    0    0  502    0 -0.00000000000E+00  0.00000000000E+00  0.14262417101E+04  0.14262417101E+04  0.00000000000E+00 0. -1.
         21   -1    0    0  501  502  0.00000000000E+00 -0.00000000000E+00 -0.21117686740E+03  0.21117686740E+03  0.00000000000E+00 0. -1.
         23    2    1    2    0    0 -0.87761479756E+02 -0.40107159467E+03  0.99334236403E+03  0.10787377121E+04  0.91572364304E+02 0.  0.
        -24    2    1    2    0    0  0.35452036209E+02  0.43069296288E+03  0.23067590234E+03  0.49790367287E+03  0.89125868215E+02 0.  0.
         13    1    4    4    0    0  0.85018424604E+01  0.38859669148E+03  0.18615902593E+03  0.43096966586E+03  0.00000000000E+00 0. -1.
        -14    1    4    4    0    0  0.26950193748E+02  0.42096271405E+02  0.44516876405E+02  0.66934007007E+02  0.00000000000E+00 0.  1.
        -11    1    3    3    0    0  0.17608520520E+02 -0.92392697768E+02  0.20265089299E+03  0.22341408869E+03  0.00000000000E+00 0.  1.
         11    1    3    3    0    0 -0.10537000028E+03 -0.30867889691E+03  0.79069147104E+03  0.85532362339E+03  0.00000000000E+00 0. -1.
          2    1    1    2  501    0  0.52309443547E+02 -0.29621368211E+02 -0.89534236753E+01  0.60777192551E+02  0.00000000000E+00 0. -1.
<scales pt_clust_5="13000.00000" pt_clust_6="13000.00000" pt_clust_7="13000.00000" pt_clust_8="13000.00000" pt_clust_9="60.11409"></scales>
<clustering>
<clus scale="   60.114">  2  9  1 -1</clus>
<clus scale="   89.126">  5  6 -1 -1</clus>
<clus scale="   91.572">  7  8 -1 -1</clus>
<clus scale="  424.554">  2  5  1 -1</clus>
<clus scale="   60.114">  2  5  1 -1</clus>
</clustering>
</event>
<event>
 9    1  0.6296820E-005  0.2193667E+03  0.7546771E-02  0.1158640E+00
         -2   -1    0    0    0  501 -0.00000000000E+00  0.00000000000E+00  0.14393037313E+03  0.14393037313E+03  0.00000000000E+00 0.  1.
         21   -1    0    0  501  502  0.00000000000E+00 -0.00000000000E+00 -0.82029134231E+03  0.82029134231E+03  0.00000000000E+00 0. -1.
        -24    2    1    2    0    0 -0.50286293745E+02 -0.73403114779E+02  0.33978226222E+02  0.12754766404E+03  0.84836066311E+02 0.  0.
         23    2    1    2    0    0 -0.13313672029E+03  0.15674732662E+03 -0.26723345620E+03  0.34991645687E+03  0.93448895042E+02 0.  0.
         13    1    3    3    0    0 -0.60265517329E+02 -0.33817851613E+02 -0.73022629905E+01  0.69490306601E+02  0.00000000000E+00 0. -1.
        -14    1    3    3    0    0  0.99792235843E+01 -0.39585263166E+02  0.41280489212E+02  0.58057357440E+02  0.00000000000E+00 0.  1.
        -11    1    4    4    0    0 -0.10575389705E+03  0.86601902330E+02 -0.10953343799E+03  0.17516092677E+03  0.00000000000E+00 0.  1.
         11    1    4    4    0    0 -0.27382823233E+02  0.70145424292E+02 -0.15770001821E+03  0.17475553010E+03  0.00000000000E+00 0. -1.
         -1    1    1    2    0  502  0.18342301403E+03 -0.83344211843E+02 -0.44310573920E+03  0.48675759453E+03  0.00000000000E+00 0.  1.
<scales pt_clust_5="13000.00000" pt_clust_6="13000.00000" pt_clust_7="13000.00000" pt_clust_8="13000.00000" pt_clust_9="198.46677"></scales>
<clustering>
<clus scale="   84.836">  5  6 -1 -1</clus>
<clus scale="   93.449">  7  8 -1 -1</clus>
<clus scale="  122.939">  1  5  2 -1</clus>
<clus scale="  198.467">  2  9  1 -1</clus>
<clus scale="  198.467">  2  5  1 -1</clus>
</clustering>
</event>
<event>
 9    1  0.6296820E-005  0.1012605E+03  0.7546771E-02  0.1285863E+00
          3   -1    0    0  502    0 -0.00000000000E+00  0.00000000000E+00  0.52473757743E+03  0.52473757743E+03  0.00000000000E+00 0. -1.
         21   -1    0    0  501  502  0.00000000000E+00 -0.00000000000E+00 -0.37959001787E+02  0.37959001787E+02  0.00000000000E+00 0. -1.
         23    2    1    2    0    0  0.19825255632E+01  0.25787108549E+02  0.31325047514E+03  0.32916467349E+03  0.97747719804E+02 0.  0.
        -24    2    1    2    0    0 -0.23521027626E+02 -0.21257730352E+02  0.18760998386E+03  0.20740296053E+03  0.82543032126E+02 0.  0.
         11    1    4    4    0    0 -0.45641334964E+02 -0.27364356259E+02  0.71967643124E+02  0.89505760192E+02  0.00000000000E+00 0. -1.
        -12    1    4    4    0    0  0.22120307338E+02  0.61066259068E+01  0.11564234074E+03  0.11789720034E+03  0.00000000000E+00 0.  1.
        -13    1    3    3    0    0 -0.23508227211E+02 -0.29736281709E+02  0.88898600778E+02  0.96642870491E+02  0.00000000000E+00 0. -1.
         13    1    3    3    0    0  0.25490752774E+02  0.55523390258E+02  0.22435187436E+03  0.23252180300E+03  0.00000000000E+00 0.  1.
          4    1    1    2  501    0  0.21538502063E+02 -0.45293781973E+01 -0.14081883357E+02  0.26128945192E+02  0.00000000000E+00 0. -1.
<scales pt_clust_5="13000.00000" pt_clust_6="13000.00000" pt_clust_7="13000.00000" pt_clust_8="13000.00000" pt_clust_9="22.00960"></scales>
<clustering>
<clus scale="   22.010">  2  9  1 -1</clus>
<clus scale="   82.543">  5  6 -1 -1</clus>
<clus scale="   86.674">  2  5  1 -1</clus>
<clus scale="   97.748">  7  8 -1 -1</clus>
<clus scale="   22.010">  2  5  1 -1</clus>
</clustering>
</event>
<event>
 9    1  0.6296820E-005  0.9190264E+02  0.7546771E-02  0.1303787E+00
          1   -1    0    0  502    0 -0.00000000000E+00  0.00000000000E+00  0.13739366188E+03  0.13739366188E+03  0.00000000000E+00 0. -1.
         21   -1    0    0  501  502  0.00000000000E+00 -0.00000000000E+00 -0.71248331552E+03  0.71248331552E+03  0.00000000000E+00 0. -1.
         23    2    1    2    0    0 -0.17975642759E+01  0.11497558794E+02  0.10110125096E+03  0.13604290861E+03  0.90281697701E+02 0.  0.
        -24    2    1    2    0    0  0.44880454009E+01 -0.74370921992E+02 -0.16297879963E+03  0.19677801459E+03  0.81291582019E+02 0.  0.
         13    1    4    4    0    0 -0.22475974567E+02 -0.52742704825E+02 -0.42304138262E+02  0.71250280414E+02  0.00000000000E+00 0. -1.
        -14    1    4    4    0    0  0.26964019968E+02 -0.21628217166E+02 -0.12067466137E+03  0.12552773418E+03  0.00000000000E+00 0.  1.
        -11    1    3    3    0    0  0.82612538216E+01  0.43373804971E+02  0.20291559825E+02  0.48593031111E+02  0.00000000000E+00 0. -1.
         11    1    3    3    0    0 -0.10058818098E+02 -0.31876246177E+02  0.80809691140E+02  0.87449877495E+02  0.00000000000E+00 0.  1.
          2    1    1    2  501    0 -0.26904811250E+01  0.62873363198E+02 -0.51321210498E+03  0.51705605420E+03  0.00000000000E+00 0. -1.
<scales pt_clust_5="13000.00000" pt_clust_6="13000.00000" pt_clust_7="13000.00000" pt_clust_8="13000.00000" pt_clust_9="62.93090"></scales>
<clustering>
<clus scale="   62.931">  2  9  1 -1</clus>
<clus scale="   81.292">  5  6 -1 -1</clus>
<clus scale="   83.088">  2  5  1 -1</clus>
<clus scale="   90.282">  7  8 -1 -1</clus>
<clus scale="   62.931">  2  5  1 -1</clus>
</clustering>
</event>
<event>
 9    1  0.6296820E-005  0.3607832E+03  0.7546771E-02  0.1108204E+00
         -4   -1    0    0    0  501 -0.00000000000E+00  0.00000000000E+00  0.31128056063E+03  0.31128056063E+03  0.00000000000E+00 0.  1.
         21   -1    0    0  501  502  0.00000000000E+00 -0.00000000000E+00 -0.66635525967E+03  0.66635525967E+03  0.00000000000E+00 0.  1.
         23    2    1    2    0    0  0.12025935423E+02  0.27066347397E+02  0.44972817011E+02  0.10484104956E+03  0.89954883795E+02 0.  0.
        -24    2    1    2    0    0 -0.32970579424E+03 -0.14022257338E+03 -0.38959877378E+03  0.53540182419E+03  0.80620270227E+02 0.  0.
         13    1    4    4    0    0 -0.18714243056E+03 -0.94182232600E+02 -0.17120178546E+03  0.27055985215E+03  0.00000000000E+00 0. -1.
        -14    1    4    4    0    0 -0.14256336369E+03 -0.46040340779E+02 -0.21839698832E+03  0.26484197204E+03  0.00000000000E+00 0.  1.
        -13    1    3    3    0    0 -0.31580820798E+02  0.36911469234E+01  0.45322134509E+02  0.55363062454E+02  0.00000000000E+00 0.  1.
         13    1    3    3    0    0  0.43606756221E+02  0.23375200473E+02 -0.34931749829E+00  0.49477987105E+02  0.00000000000E+00 0. -1.
         -3    1    1    2    0  502  0.31767985882E+03  0.11315622598E+03 -0.10448742274E+02  0.33739294656E+03  0.00000000000E+00 0.  1.
<scales pt_clust_5="13000.00000" pt_clust_6="13000.00000" pt_clust_7="13000.00000" pt_clust_8="13000.00000" pt_clust_9="351.66037"></scales>
<clustering>
<clus scale="   80.620">  5  6 -1 -1</clus>
<clus scale="   89.955">  7  8 -1 -1</clus>
<clus scale="   94.705">  1  7  2 -1</clus>
<clus scale="  351.660">  2  9  1 -1</clus>
<clus scale="  351.660">  2  5  1 -1</clus>
</clustering>
</event>
<event>
 9    1  0.6296820E-005  0.9924542E+02  0.7546771E-02  0.1287088E+00
          1   -1    0    0  502    0 -0.00000000000E+00  0.00000000000E+00  0.25606066792E+03  0.25606066792E+03  0.00000000000E+00 0. -1.
         21   -1    0    0  501  502  0.00000000000E+00 -0.00000000000E+00 -0.51350108994E+02  0.51350108994E+02  0.00000000000E+00 0.  1.
         23    2    1    2    0    0  0.52227490864E+02  0.16390055716E+02  0.14828925175E+03  0.18123457339E+03  0.88656210597E+02 0.  0.
        -24    2    1    2    0    0 -0.24852713145E+02 -0.10651522735E+02  0.30731954489E+02  0.88199209737E+02  0.78125125820E+02 0.  0.
         11    1    4    4    0    0 -0.29728902933E+02 -0.34273190176E+02  0.41773425431E+02  0.61672346369E+02  0.00000000000E+00 0. -1.
        -12    1    4    4    0    0  0.48761897870E+01  0.23621667442E+02 -0.11041470943E+02  0.26526863368E+02  0.00000000000E+00 0.  1.
        -11    1    3    3    0    0  0.54926200992E+02  0.42736772801E+02  0.13435144088E+03  0.15130640756E+03  0.00000000000E+00 0.  1.
         11    1    3    3    0    0 -0.26987101275E+01 -0.26346717085E+02  0.13937810877E+02  0.29928165823E+02  0.00000000000E+00 0. -1.
          2    1    1    2  501    0 -0.27374777719E+02 -0.57385329819E+01  0.25689352688E+02  0.37976993792E+02  0.00000000000E+00 0. -1.
<scales pt_clust_5="13000.00000" pt_clust_6="13000.00000" pt_clust_7="13000.00000" pt_clust_8="13000.00000" pt_clust_9="27.96981"></scales>
<clustering>
<clus scale="   27.970">  2  9  1 -1</clus>
<clus scale="   78.125">  5  6 -1 -1</clus>
<clus scale="   88.656">  7  8 -1 -1</clus>
<clus scale="   89.963">  2  5  1 -1</clus>
<clus scale="   27.970">  2  5  1 -1</clus>
</clustering>
</event>
<event>
 9    1  0.6296820E-005  0.1076826E+03  0.7546771E-02  0.1269679E+00
         21   -1    0    0  501  502  0.00000000000E+00  0.00000000000E+00  0.90364639026E+02  0.90364639026E+02  0.00000000000E+00 0. -1.
          1   -1    0    0  502    0 -0.00000000000E+00 -0.00000000000E+00 -0.25782575661E+03  0.25782575661E+03  0.00000000000E+00 0. -1.
         23    2    1    2    0    0  0.40682093062E+02  0.36981983561E+02 -0.15202350077E+03  0.18577518085E+03  0.91534546650E+02 0.  0.
        -24    2    1    2    0    0 -0.87885652813E+01 -0.75335139629E+02 -0.48353615727E+00  0.11034040108E+03  0.80138306445E+02 0.  0.
         13    1    4    4    0    0 -0.14836887511E+02 -0.91691026954E+02 -0.11194916734E+01  0.92890424245E+02  0.00000000000E+00 0. -1.
        -14    1    4    4    0    0  0.60483222299E+01  0.16355887325E+02  0.63595551617E+00  0.17449976831E+02  0.00000000000E+00 0.  1.
        -13    1    3    3    0    0 -0.19659827987E+02  0.54151836044E+01 -0.13617228808E+01  0.20437400499E+02  0.00000000000E+00 0.  1.
         13    1    3    3    0    0  0.60341921049E+02  0.31566799957E+02 -0.15066177789E+03  0.16533778035E+03  0.00000000000E+00 0. -1.
          2    1    1    2  501    0 -0.31893527781E+02  0.38353156067E+02 -0.14954080659E+02  0.52074813711E+02  0.00000000000E+00 0. -1.
<scales pt_clust_5="13000.00000" pt_clust_6="13000.00000" pt_clust_7="13000.00000" pt_clust_8="13000.00000" pt_clust_9="49.88148"></scales>
<clustering>
<clus scale="   49.881">  1  9  2 -1</clus>
<clus scale="   80.138">  5  6 -1 -1</clus>
<clus scale="   91.535">  7  8 -1 -1</clus>
<clus scale="   98.179">  1  5  2 -1</clus>
<clus scale="   49.881">  1  5  2 -1</clus>
</clustering>
</event>
<event>
 9    1  0.6296820E-005  0.1021536E+03  0.7546771E-02  0.1276455E+00
         21   -1    0    0  501  502  0.00000000000E+00  0.00000000000E+00  0.68378433032E+02  0.68378433032E+02  0.00000000000E+00 0.  1.
          1   -1    0    0  502    0 -0.00000000000E+00 -0.00000000000E+00 -0.42212650872E+03  0.42212650872E+03  0.00000000000E+00 0. -1.
         23    2    1    2    0    0 -0.54738776380E+02 -0.18065957412E+02 -0.89817006120E+02  0.14317415345E+03  0.95441244601E+02 0.  0.
        -24    2    1    2    0    0 -0.40523441393E+01 -0.66221228562E+02 -0.63111098672E+02  0.12174402831E+03  0.80230449638E+02 0.  0.
         13    1    4    4    0    0  0.18210410199E+01 -0.71180424922E+02 -0.77615407575E+02  0.10532863132E+03  0.00000000000E+00 0. -1.
        -14    1    4    4    0    0 -0.58733851592E+01  0.49591963592E+01  0.14504308903E+02  0.16415396995E+02  0.00000000000E+00 0.  1.
        -13    1    3    3    0    0 -0.73711983473E+02  0.10983510554E+02 -0.47184289475E+02  0.88206865860E+02  0.00000000000E+00 0.  1.
         13    1    3    3    0    0  0.18973207093E+02 -0.29049467966E+02 -0.42632716645E+02  0.54967287590E+02  0.00000000000E+00 0. -1.
          2    1    1    2  501    0  0.58791120519E+02  0.84287185974E+02 -0.20081997090E+03  0.22558675999E+03  0.00000000000E+00 0. -1.
<scales pt_clust_5="13000.00000" pt_clust_6="13000.00000" pt_clust_7="13000.00000" pt_clust_8="13000.00000" pt_clust_9="102.76544"></scales>
<clustering>
<clus scale="   80.230">  5  6 -1 -1</clus>
<clus scale="   95.441">  7  8 -1 -1</clus>
<clus scale="  102.765">  1  9  2 -1</clus>
<clus scale="  102.765">  1  5  2 -1</clus>
<clus scale="  102.154">  1  5  2 -1</clus>
</clustering>
</event>
<event>
 9    1  0.6296820E-005  0.1366003E+03  0.7546771E-02  0.1231271E+00
         21   -1    0    0  501  502  0.00000000000E+00  0.00000000000E+00  0.28347662003E+03  0.28347662003E+03  0.00000000000E+00 0.  1.
         -4   -1    0    0    0  501 -0.00000000000E+00 -0.00000000000E+00 -0.24491784707E+03  0.24491784707E+03  0.00000000000E+00 0.  1.
         23    2    1    2    0    0 -0.22224339527E+02  0.43362442679E+02 -0.33878815638E+02  0.10895589339E+03  0.91374995776E+02 0.  0.
        -24    2    1    2    0    0 -0.10739044023E+03  0.26589614148E+01  0.19397259788E+03  0.23589370386E+03  0.80502758126E+02 0.  0.
         11    1    4    4    0    0 -0.73209759414E+02 -0.32650479473E+02  0.87738465061E+02  0.11884343034E+03  0.00000000000E+00 0. -1.
        -12    1    4    4    0    0 -0.34180680817E+02  0.35309440887E+02  0.10623413282E+03  0.11705027352E+03  0.00000000000E+00 0.  1.
        -11    1    3    3    0    0 -0.37831269069E+02  0.28949657346E+02 -0.59146294032E+02  0.75944530268E+02  0.00000000000E+00 0. -1.
         11    1    3    3    0    0  0.15606929542E+02  0.14412785333E+02  0.25267478395E+02  0.33011363123E+02  0.00000000000E+00 0.  1.
         -3    1    1    2    0  502  0.12961477976E+03 -0.46021404094E+02 -0.12153500928E+03  0.18354486985E+03  0.00000000000E+00 0.  1.
<scales pt_clust_5="13000.00000" pt_clust_6="13000.00000" pt_clust_7="13000.00000" pt_clust_8="13000.00000" pt_clust_9="110.35836"></scales>
<clustering>
<clus scale="   80.503">  5  6 -1 -1</clus>
<clus scale="   91.375">  7  8 -1 -1</clus>
<clus scale="  103.555">  2  7  1 -1</clus>
<clus scale="  110.358">  1  9  2 -1</clus>
<clus scale="  110.358">  1  5  2 -1</clus>
</clustering>
</event>
<event>
 9    1  0.6296820E-005  0.1045472E+03  0.7546771E-02  0.1274919E+00
          1   -1    0    0  502    0 -0.00000000000E+00  0.00000000000E+00  0.41598026272E+03  0.41598026272E+03  0.00000000000E+00 0. -1.
         21   -1    0    0  501  502  0.00000000000E+00 -0.00000000000E+00 -0.68355106016E+02  0.68355106016E+02  0.00000000000E+00 0.  1.
         23    2    1    2    0    0 -0.53257477833E+02  0.17985968434E+02  0.32159577586E+03  0.33841868789E+03  0.89126378003E+02 0.  0.
        -24    2    1    2    0    0  0.32568310928E+02 -0.39663345105E+02 -0.13732364897E+02  0.96127658855E+02  0.80112877428E+02 0.  0.
         13    1    4    4    0    0 -0.26491749470E+02 -0.13363726629E+02  0.14890028249E+01  0.29708906221E+02  0.00000000000E+00 0. -1.
        -14    1    4    4    0    0  0.59060060398E+02 -0.26299618476E+02 -0.15221367722E+02  0.66418752634E+02  0.00000000000E+00 0.  1.
        -11    1    3    3    0    0 -0.20965640191E+02  0.47364398132E+02  0.24350888824E+03  0.24895686962E+03  0.00000000000E+00 0. -1.
         11    1    3    3    0    0 -0.32291837642E+02 -0.29378429698E+02  0.78086887618E+02  0.89461818267E+02  0.00000000000E+00 0.  1.
          2    1    1    2  501    0  0.20689166905E+02  0.21677376670E+02  0.39761745740E+02  0.49789021991E+02  0.00000000000E+00 0. -1.
<scales pt_clust_5="13000.00000" pt_clust_6="13000.00000" pt_clust_7="13000.00000" pt_clust_8="13000.00000" pt_clust_9="29.96583"></scales>
<clustering>
<clus scale="   29.966">  2  9  1 -1</clus>
<clus scale="   80.113">  5  6 -1 -1</clus>
<clus scale="   89.126">  7  8 -1 -1</clus>
<clus scale="   96.978">  2  5  1 -1</clus>
<clus scale="   29.966">  2  5  1 -1</clus>
</clustering>
</event>
<event>
 9    1  0.6296820E-005  0.1083267E+03  0.7546771E-02  0.1267549E+00
         21   -1    0    0  501  502  0.00000000000E+00  0.00000000000E+00  0.68633675576E+02  0.68633675576E+02  0.00000000000E+00 0.  1.
          1   -1    0    0  502    0 -0.00000000000E+00 -0.00000000000E+00 -0.25936781028E+03  0.25936781028E+03  0.00000000000E+00 0. -1.
         23    2    1    2    0    0 -0.64329779402E+02  0.13777289686E+02 -0.14750994314E+03  0.18535576726E+03  0.90936477297E+02 0.  0.
        -24    2    1    2    0    0  0.45050527820E+02 -0.22576805198E+02 -0.62190844131E+02  0.11420534370E+03  0.81461016722E+02 0.  0.
         11    1    4    4    0    0 -0.16399488786E+02  0.15910774640E+02 -0.10426998746E+02  0.25116096132E+02  0.00000000000E+00 0. -1.
        -12    1    4    4    0    0  0.61450016605E+02 -0.38487579838E+02 -0.51763845386E+02  0.89089247565E+02  0.00000000000E+00 0.  1.
        -13    1    3    3    0    0 -0.60271024064E+02 -0.21136158318E+02 -0.13259034637E+03  0.14717178221E+03  0.00000000000E+00 0. -1.
         13    1    3    3    0    0 -0.40587553376E+01  0.34913448004E+02 -0.14919596777E+02  0.38183985052E+02  0.00000000000E+00 0.  1.
          2    1    1    2  501    0  0.19279251582E+02  0.87995155124E+01  0.18966652567E+02  0.28440374899E+02  0.00000000000E+00 0. -1.
<scales pt_clust_5="13000.00000" pt_clust_6="13000.00000" pt_clust_7="13000.00000" pt_clust_8="13000.00000" pt_clust_9="21.19248"></scales>
<clustering>
<clus scale="   21.192">  1  9  2 -1</clus>
<clus scale="   81.461">  5  6 -1 -1</clus>
<clus scale="   90.936">  7  8 -1 -1</clus>
<clus scale="  100.504">  1  5  2 -1</clus>
<clus scale="   21.192">  1  5  2 -1</clus>
</clustering>
</event>
<event>
 9    1  0.6296820E-005  0.1106850E+03  0.7546771E-02  0.1263462E+00
         21   -1    0    0  501  502  0.00000000000E+00  0.00000000000E+00  0.54503755106E+02  0.54503755106E+02  0.00000000000E+00 0.  1.
          1   -1    0    0  502    0 -0.00000000000E+00 -0.00000000000E+00 -0.40504682649E+03  0.40504682649E+03  0.00000000000E+00 0. -1.
         23    2    1    2    0    0 -0.37853130158E+02 -0.49163067876E+02 -0.27005390968E+03  0.29185143562E+03  0.91642128052E+02 0.  0.
        -24    2    1    2    0    0  0.21478317248E+02  0.61059643454E+02 -0.22220704223E+02  0.10601546786E+03  0.80968645535E+02 0.  0.
         11    1    4    4    0    0  0.35212588748E+02  0.42872292528E+02 -0.46737329483E+02  0.72541972955E+02  0.00000000000E+00 0. -1.
        -12    1    4    4    0    0 -0.13734271499E+02  0.18187350926E+02  0.24516625260E+02  0.33473494910E+02  0.00000000000E+00 0.  1.
        -13    1    3    3    0    0  0.18447292892E+02 -0.29966049393E+02 -0.35938529545E+02  0.50297560946E+02  0.00000000000E+00 0.  1.
         13    1    3    3    0    0 -0.56300423049E+02 -0.19197018484E+02 -0.23411538013E+03  0.24155387467E+03  0.00000000000E+00 0. -1.
          2    1    1    2  501    0  0.16374812909E+02 -0.11896575577E+02 -0.58268457487E+02  0.61683678118E+02  0.00000000000E+00 0. -1.
<scales pt_clust_5="13000.00000" pt_clust_6="13000.00000" pt_clust_7="13000.00000" pt_clust_8="13000.00000" pt_clust_9="20.24014"></scales>
<clustering>
<clus scale="   20.240">  1  9  2 -1</clus>
<clus scale="   80.969">  5  6 -1 -1</clus>
<clus scale="   91.642">  7  8 -1 -1</clus>
<clus scale="  102.024">  1  5  2 -1</clus>
<clus scale="   20.240">  1  5  2 -1</clus>
</clustering>
</event>
<event>
 9    1  0.6296820E-005  0.1106418E+03  0.7546771E-02  0.1260851E+00
          1   -1    0    0  502    0 -0.00000000000E+00  0.00000000000E+00  0.57380365948E+03  0.57380365948E+03  0.00000000000E+00 0. -1.
         21   -1    0    0  501  502  0.00000000000E+00 -0.00000000000E+00 -0.31152506467E+02  0.31152506467E+02  0.00000000000E+00 0.  1.
        -24    2    1    2    0    0  0.54457767001E+02  0.38449391599E+02  0.37701565609E+03  0.39232350554E+03  0.85632493594E+02 0.  0.
         23    2    1    2    0    0 -0.35947911690E+02 -0.52367703726E+02  0.13029760537E+03  0.17038220792E+03  0.89543297136E+02 0.  0.
         11    1    3    3    0    0 -0.15184207036E+00 -0.21952348414E+02  0.40189486118E+02  0.45794360475E+02  0.00000000000E+00 0. -1.
        -12    1    3    3    0    0  0.54609609072E+02  0.60401740013E+02  0.33682616998E+03  0.34652914507E+03  0.00000000000E+00 0.  1.
        -13    1    4    4    0    0  0.72862891494E+01 -0.62792870315E+02  0.59730011054E+02  0.86969585445E+02  0.00000000000E+00 0. -1.
         13    1    4    4    0    0 -0.43234200839E+02  0.10425166589E+02  0.70567594314E+02  0.83412622474E+02  0.00000000000E+00 0.  1.
          2    1    1    2  501    0 -0.18509855312E+02  0.13918312127E+02  0.35337891548E+02  0.42250452485E+02  0.00000000000E+00 0. -1.
<scales pt_clust_5="13000.00000" pt_clust_6="13000.00000" pt_clust_7="13000.00000" pt_clust_8="13000.00000" pt_clust_9="23.15889"></scales>
<clustering>
<clus scale="   23.159">  2  9  1 -1</clus>
<clus scale="   85.632">  5  6 -1 -1</clus>
<clus scale="   89.543">  7  8 -1 -1</clus>
<clus scale="  107.501">  1  5  2 -1</clus>
<clus scale="   23.159">  2  5  1 -1</clus>
</clustering>
</event>
<event>
 9    1  0.6296820E-005  0.1910354E+03  0.7546771E-02  0.1183859E+00
         21   -1    0    0  501  502  0.00000000000E+00  0.00000000000E+00  0.79225574560E+03  0.79225574560E+03  0.00000000000E+00 0.  1.
         -2   -1    0    0    0  501 -0.00000000000E+00 -0.00000000000E+00 -0.16107041767E+03  0.16107041767E+03  0.00000000000E+00 0.  1.
        -24    2    1    2    0    0 -0.38949622326E+02 -0.54971542467E+02  0.57110048619E+03  0.58061464198E+03  0.80116500145E+02 0.  0.
         23    2    1    2    0    0  0.17867049244E+03 -0.30370763240E+02  0.55197325062E+02  0.20891555520E+03  0.88053599497E+02 0.  0.
         13    1    3    3    0    0  0.12887835241E+02 -0.45936030177E+02  0.18998865289E+03  0.19588747635E+03  0.00000000000E+00 0. -1.
        -14    1    3    3    0    0 -0.51837457567E+02 -0.90355122899E+01  0.38111183331E+03  0.38472716564E+03  0.00000000000E+00 0.  1.
        -11    1    4    4    0    0  0.16956402226E+03 -0.73366257969E+01  0.27804674691E+02  0.17198512627E+03  0.00000000000E+00 0.  1.
         11    1    4    4    0    0  0.91064701756E+01 -0.23034137444E+02  0.27392650371E+02  0.36930428933E+02  0.00000000000E+00 0. -1.
         -1    1    1    2    0  502 -0.13972087011E+03  0.85342305707E+02  0.48875166738E+01  0.16379596609E+03  0.00000000000E+00 0.  1.
<scales pt_clust_5="13000.00000" pt_clust_6="13000.00000" pt_clust_7="13000.00000" pt_clust_8="13000.00000" pt_clust_9="169.53208"></scales>
<clustering>
<clus scale="   80.117">  5  6 -1 -1</clus>
<clus scale="   88.054">  7  8 -1 -1</clus>
<clus scale="  104.679">  2  5  1 -1</clus>
<clus scale="  169.532">  1  9  2 -1</clus>
<clus scale="  169.532">  1  5  2 -1</clus>
</clustering>
</event>
<event>
 9    1  0.6296820E-005  0.9424673E+02  0.7546771E-02  0.1299520E+00
         21   -1    0    0  501  502  0.00000000000E+00  0.00000000000E+00  0.36836596768E+02  0.36836596768E+02  0.00000000000E+00 0. -1.
          1   -1    0    0  502    0 -0.00000000000E+00 -0.00000000000E+00 -0.36372692654E+03  0.36372692654E+03  0.00000000000E+00 0. -1.
         23    2    1    2    0    0 -0.25034411701E+02  0.16143076890E+02 -0.18724524595E+03  0.21044933202E+03  0.91328081740E+02 0.  0.
        -24    2    1    2    0    0  0.19443324949E+02  0.20087176277E+02 -0.64512106813E+02  0.10651481492E+03  0.80012851069E+02 0.  0.
         13    1    4    4    0    0 -0.28394903614E+02  0.23411581214E+02 -0.28223710071E+02  0.46378340811E+02  0.00000000000E+00 0. -1.
        -14    1    4    4    0    0  0.47838228563E+02 -0.33244049367E+01 -0.36288396742E+02  0.60136474109E+02  0.00000000000E+00 0.  1.
        -11    1    3    3    0    0 -0.39434398156E+02 -0.66862760175E+01 -0.17718604702E+03  0.18164435941E+03  0.00000000000E+00 0. -1.
         11    1    3    3    0    0  0.14399986455E+02  0.22829352908E+02 -0.10059198933E+02  0.28804972613E+02  0.00000000000E+00 0.  1.
          2    1    1    2  501    0  0.55910867518E+01 -0.36230253167E+02 -0.75132977001E+02  0.83599376365E+02  0.00000000000E+00 0. -1.
<scales pt_clust_5="13000.00000" pt_clust_6="13000.00000" pt_clust_7="13000.00000" pt_clust_8="13000.00000" pt_clust_9="36.65914"></scales>
<clustering>
<clus scale="   36.659">  1  9  2 -1</clus>
<clus scale="   80.013">  5  6 -1 -1</clus>
<clus scale="   83.329">  1  5  2 -1</clus>
<clus scale="   91.328">  7  8 -1 -1</clus>
<clus scale="   36.659">  1  5  2 -1</clus>
</clustering>
</event>
<event>
 9    1  0.6296820E-005  0.1165528E+03  0.7546771E-02  0.1249185E+00
         -2   -1    0    0    0  501 -0.00000000000E+00  0.00000000000E+00  0.28525218065E+03  0.28525218065E+03  0.00000000000E+00 0.  1.
         21   -1    0    0  501  502  0.00000000000E+00 -0.00000000000E+00 -0.13736666631E+03  0.13736666631E+03  0.00000000000E+00 0. -1.
         23    2    1    2    0    0  0.13670480478E+02  0.85812019618E+02  0.22558110766E+03  0.25548990098E+03  0.82690196642E+02 0.  0.
        -24    2    1    2    0    0 -0.25728099996E+02 -0.45880680663E+02 -0.79212474043E+02  0.12538928922E+03  0.81736685884E+02 0.  0.
         11    1    4    4    0    0 -0.33513370010E+02 -0.30317359635E+02 -0.92860856716E+02  0.10327355409E+03  0.00000000000E+00 0. -1.
        -12    1    4    4    0    0  0.77852700145E+01 -0.15563321027E+02  0.13648382673E+02  0.22115735127E+02  0.00000000000E+00 0.  1.
        -13    1    3    3    0    0  0.12510065575E+02  0.49639677418E+02  0.20989204621E+03  0.21604460275E+03  0.00000000000E+00 0.  1.
         13    1    3    3    0    0  0.11604149032E+01  0.36172342200E+02  0.15689061448E+02  0.39445298226E+02  0.00000000000E+00 0. -1.
         -1    1    1    2    0  502  0.12057619518E+02 -0.39931338955E+02  0.15168807241E+01  0.41739656758E+02  0.00000000000E+00 0.  1.
<scales pt_clust_5="13000.00000" pt_clust_6="13000.00000" pt_clust_7="13000.00000" pt_clust_8="13000.00000" pt_clust_9="41.71208"></scales>
<clustering>
<clus scale="   41.712">  2  9  1 -1</clus>
<clus scale="   81.737">  5  6 -1 -1</clus>
<clus scale="   82.690">  7  8 -1 -1</clus>
<clus scale="  115.878">  2  5  1 -1</clus>
<clus scale="   41.712">  2  5  1 -1</clus>
</clustering>
</event>
<event>
 9    1  0.6296820E-005  0.4596804E+03  0.7546771E-02  0.1024874E+00
         21   -1    0    0  501  502  0.00000000000E+00  0.00000000000E+00  0.31993038717E+03  0.31993038717E+03  0.00000000000E+00 0. -1.
          3   -1    0    0  502    0 -0.00000000000E+00 -0.00000000000E+00 -0.14592385260E+04  0.14592385260E+04  0.00000000000E+00 0. -1.
        -24    2    1    2    0    0  0.31996870421E+02  0.22106451155E+03 -0.77165464162E+03  0.80750370989E+03  0.81963635640E+02 0.  0.
         23    2    1    2    0    0  0.72120946104E+02  0.16681670766E+03 -0.50328093548E+03  0.54776997808E+03  0.11717936700E+03 0.  0.
         13    1    3    3    0    0 -0.17128243807E+02  0.99557811354E+02 -0.42657373742E+03  0.43837231663E+03  0.00000000000E+00 0. -1.
        -14    1    3    3    0    0  0.49125114228E+02  0.12150670020E+03 -0.34508090421E+03  0.36913139326E+03  0.00000000000E+00 0.  1.
        -13    1    4    4    0    0  0.33682202662E+02 -0.26807481129E+01 -0.15367261552E+03  0.15734341406E+03  0.00000000000E+00 0.  1.
         13    1    4    4    0    0  0.38438743442E+02  0.16949745577E+03 -0.34960831996E+03  0.39042656402E+03  0.00000000000E+00 0. -1.
          4    1    1    2  501    0 -0.10411781653E+03 -0.38788121922E+03  0.13562743827E+03  0.42389522520E+03  0.00000000000E+00 0. -1.
<scales pt_clust_5="13000.00000" pt_clust_6="13000.00000" pt_clust_7="13000.00000" pt_clust_8="13000.00000" pt_clust_9="401.61220"></scales>
<clustering>
<clus scale="   81.964">  5  6 -1 -1</clus>
<clus scale="  117.179">  7  8 -1 -1</clus>
<clus scale="  133.952">  5  7 -1 -1</clus>
<clus scale="  401.612">  1  9  2 -1</clus>
<clus scale="  401.612">  1  5  2 -1</clus>
</clustering>
</event>
<event>
 9    1  0.6296820E-005  0.9389934E+02  0.7546771E-02  0.1300787E+00
         -2   -1    0    0    0  501 -0.00000000000E+00  0.00000000000E+00  0.18807850427E+03  0.18807850427E+03  0.00000000000E+00 0.  1.
         21   -1    0    0  501  502  0.00000000000E+00 -0.00000000000E+00 -0.66526193683E+02  0.66526193683E+02  0.00000000000E+00 0.  1.
        -24    2    1    2    0    0  0.46694396546E+01  0.51525435490E+01  0.36154840982E+02  0.88212389638E+02  0.80161716470E+02 0.  0.
         23    2    1    2    0    0 -0.37125018510E+02  0.10329707935E+02  0.37678129755E+02  0.10664115682E+03  0.92020242338E+02 0.  0.
         13    1    3    3    0    0  0.10127879115E+02 -0.25574025332E+02 -0.12655569161E+02  0.30278179236E+02  0.00000000000E+00 0. -1.
        -14    1    3    3    0    0 -0.54584394601E+01  0.30726568881E+02  0.48810410143E+02  0.57934210402E+02  0.00000000000E+00 0.  1.
        -11    1    4    4    0    0 -0.60189047860E+02  0.15720294748E+01 -0.16308433332E+01  0.60231656203E+02  0.00000000000E+00 0.  1.
         11    1    4    4    0    0  0.23064029351E+02  0.87576784605E+01  0.39308973089E+02  0.46409500613E+02  0.00000000000E+00 0. -1.
         -1    1    1    2    0  502  0.32455578855E+02 -0.15482251484E+02  0.47719339852E+02  0.59751151501E+02  0.00000000000E+00 0.  1.
<scales pt_clust_5="13000.00000" pt_clust_6="13000.00000" pt_clust_7="13000.00000" pt_clust_8="13000.00000" pt_clust_9="35.95923"></scales>
<clustering>
<clus scale="   35.959">  2  9  1 -1</clus>
<clus scale="   80.162">  5  6 -1 -1</clus>
<clus scale="   82.312">  1  5  2 -1</clus>
<clus scale="   92.020">  7  8 -1 -1</clus>
<clus scale="   35.959">  2  5  1 -1</clus>
</clustering>
</event>
<event>
 9    1  0.6296820E-005  0.3460360E+03  0.7546771E-02  0.1064851E+00
          1   -1    0    0  502    0 -0.00000000000E+00  0.00000000000E+00  0.58176205162E+03  0.58176205162E+03  0.00000000000E+00 0. -1.
         21   -1    0    0  501  502  0.00000000000E+00 -0.00000000000E+00 -0.49088723554E+03  0.49088723554E+03  0.00000000000E+00 0. -1.
         23    2    1    2    0    0  0.11573292205E+03 -0.31231680048E+03  0.17119189272E+03  0.38814968416E+03  0.10206674324E+03 0.  0.
        -24    2    1    2    0    0  0.32804380988E+02  0.34759598270E+03 -0.26440985768E+03  0.44533835380E+03  0.80712960081E+02 0.  0.
         13    1    4    4    0    0  0.15658604041E+01  0.16492999927E+03 -0.77875687248E+02  0.18239785975E+03  0.00000000000E+00 0. -1.
        -14    1    4    4    0    0  0.31238520584E+02  0.18266598343E+03 -0.18653417043E+03  0.26294049404E+03  0.00000000000E+00 0.  1.
        -13    1    3    3    0    0  0.13431805174E+03 -0.27646619242E+03  0.14371466108E+03  0.33930634887E+03  0.00000000000E+00 0. -1.
         13    1    3    3    0    0 -0.18585129691E+02 -0.35850608063E+02  0.27477231641E+02  0.48843335295E+02  0.00000000000E+00 0.  1.
          2    1    1    2  501    0 -0.14853730304E+03 -0.35279182222E+02  0.18409278103E+03  0.23916124920E+03  0.00000000000E+00 0. -1.
<scales pt_clust_5="13000.00000" pt_clust_6="13000.00000" pt_clust_7="13000.00000" pt_clust_8="13000.00000" pt_clust_9="152.66949"></scales>
<clustering>
<clus scale="   80.713">  5  6 -1 -1</clus>
<clus scale="  102.067">  7  8 -1 -1</clus>
<clus scale="  152.669">  2  9  1 -1</clus>
<clus scale="  340.350">  2  5  1 -1</clus>
<clus scale="  152.669">  2  5  1 -1</clus>
</clustering>
</event>
<event>
 9    1  0.6296820E-005  0.1003890E+03  0.7546771E-02  0.1285771E+00
         21   -1    0    0  501  502  0.00000000000E+00  0.00000000000E+00  0.40228987759E+03  0.40228987759E+03  0.00000000000E+00 0. -1.
          1   -1    0    0  502    0 -0.00000000000E+00 -0.00000000000E+00 -0.36370092667E+02  0.36370092667E+02  0.00000000000E+00 0. -1.
        -24    2    1    2    0    0  0.39287653260E+01 -0.31065157859E+02  0.96137759621E+02  0.12956211817E+03  0.81014778956E+02 0.  0.
         23    2    1    2    0    0  0.12763621202E+02  0.44420240000E+02  0.12466995995E+03  0.16241961411E+03  0.93281640128E+02 0.  0.
         11    1    3    3    0    0 -0.17828838108E+02 -0.21186559364E+02 -0.27519164104E+01  0.27826440841E+02  0.00000000000E+00 0. -1.
        -12    1    3    3    0    0  0.21757603434E+02 -0.98785984950E+01  0.98889676032E+02  0.10173567733E+03  0.00000000000E+00 0.  1.
        -13    1    4    4    0    0 -0.34727463210E+02  0.31760307691E+02  0.92191628584E+02  0.10350850316E+03  0.00000000000E+00 0.  1.
         13    1    4    4    0    0  0.47491084411E+02  0.12659932309E+02  0.32478331365E+02  0.58911110946E+02  0.00000000000E+00 0. -1.
          2    1    1    2  501    0 -0.16692386528E+02 -0.13355082141E+02  0.14511206535E+03  0.14667823798E+03  0.00000000000E+00 0. -1.
<scales pt_clust_5="13000.00000" pt_clust_6="13000.00000" pt_clust_7="13000.00000" pt_clust_8="13000.00000" pt_clust_9="21.37742"></scales>
<clustering>
<clus scale="   21.377">  1  9  2 -1</clus>
<clus scale="   81.015">  5  6 -1 -1</clus>
<clus scale="   89.106">  2  5  1 -1</clus>
<clus scale="   93.282">  7  8 -1 -1</clus>
<clus scale="   21.377">  1  5  2 -1</clus>
</clustering>
</event>
<event>
 9    1  0.6296820E-005  0.9349464E+02  0.7546771E-02  0.1301147E+00
         21   -1    0    0  501  502  0.00000000000E+00  0.00000000000E+00  0.11539629194E+03  0.11539629194E+03  0.00000000000E+00 0. -1.
          1   -1    0    0  502    0 -0.00000000000E+00 -0.00000000000E+00 -0.23764692854E+03  0.23764692854E+03  0.00000000000E+00 0. -1.
         23    2    1    2    0    0  0.38224171315E+01 -0.17095711027E+02 -0.17794115373E+03  0.20059742830E+03  0.90936240529E+02 0.  0.
        -24    2    1    2    0    0 -0.28598783562E+02  0.31030456011E+02  0.53102278201E+00  0.90392466182E+02  0.79935826359E+02 0.  0.
         13    1    4    4    0    0 -0.56040827377E+02  0.14582322390E+02  0.48438997143E+01  0.58109223225E+02  0.00000000000E+00 0. -1.
        -14    1    4    4    0    0  0.27442043815E+02  0.16448133621E+02 -0.43128769322E+01  0.32283242957E+02  0.00000000000E+00 0.  1.
        -13    1    3    3    0    0  0.40009658611E+02  0.16400814763E+02 -0.79635635020E+02  0.90617845219E+02  0.00000000000E+00 0.  1.
         13    1    3    3    0    0 -0.36187241479E+02 -0.33496525790E+02 -0.98305518706E+02  0.10997958308E+03  0.00000000000E+00 0. -1.
          2    1    1    2  501    0  0.24776366431E+02 -0.13934744984E+02  0.55159494343E+02  0.62053325998E+02  0.00000000000E+00 0. -1.
<scales pt_clust_5="13000.00000" pt_clust_6="13000.00000" pt_clust_7="13000.00000" pt_clust_8="13000.00000" pt_clust_9="28.42614"></scales>
<clustering>
<clus scale="   28.426">  1  9  2 -1</clus>
<clus scale="   79.936">  5  6 -1 -1</clus>
<clus scale="   82.835">  1  5  2 -1</clus>
<clus scale="   90.936">  7  8 -1 -1</clus>
<clus scale="   28.426">  1  5  2 -1</clus>
</clustering>
</event>
<event>
 9    1  0.6296820E-005  0.1270857E+03  0.7546771E-02  0.1239679E+00
          1   -1    0    0  502    0 -0.00000000000E+00  0.00000000000E+00  0.57751260995E+03  0.57751260995E+03  0.00000000000E+00 0. -1.
         21   -1    0    0  501  502  0.00000000000E+00 -0.00000000000E+00 -0.65255479367E+02  0.65255479367E+02  0.00000000000E+00 0. -1.
         23    2    1    2    0    0  0.25784464953E+02  0.29052580142E+02  0.24941327940E+03  0.27190003390E+03  0.10106311617E+03 0.  0.
        -24    2    1    2    0    0  0.68898459112E+02  0.55603965202E+02  0.62082560857E+02  0.13330399569E+03  0.77954552721E+02 0.  0.
         13    1    4    4    0    0  0.77338458334E+02  0.24609190669E+02  0.26523123567E+02  0.85383402875E+02  0.00000000000E+00 0. -1.
        -14    1    4    4    0    0 -0.84399992218E+01  0.30994774533E+02  0.35559437290E+02  0.47920592813E+02  0.00000000000E+00 0.  1.
        -13    1    3    3    0    0  0.32531140827E+02 -0.32351079404E+02  0.92143419392E+02  0.10293336291E+03  0.00000000000E+00 0.  1.
         13    1    3    3    0    0 -0.67466758743E+01  0.61403659546E+02  0.15726986000E+03  0.16896667099E+03  0.00000000000E+00 0. -1.
          2    1    1    2  501    0 -0.94682924065E+02 -0.84656545344E+02  0.20076129033E+03  0.23756405973E+03  0.00000000000E+00 0. -1.
<scales pt_clust_5="13000.00000" pt_clust_6="13000.00000" pt_clust_7="13000.00000" pt_clust_8="13000.00000" pt_clust_9="100.36864"></scales>
<clustering>
<clus scale="   77.955">  5  6 -1 -1</clus>
<clus scale="  101.063">  7  8 -1 -1</clus>
<clus scale="  108.271">  1  7  2 -1</clus>
<clus scale="  100.369">  2  9  1 -1</clus>
<clus scale="  100.369">  2  5  1 -1</clus>
</clustering>
</event>
<event>
 9    1  0.6296820E-005  0.1094113E+03  0.7546771E-02  0.1265732E+00
          1   -1    0    0  502    0 -0.00000000000E+00  0.00000000000E+00  0.29855263145E+03  0.29855263145E+03  0.00000000000E+00 0. -1.
         21   -1    0    0  501  502  0.00000000000E+00 -0.00000000000E+00 -0.80300189381E+02  0.80300189381E+02  0.00000000000E+00 0.  1.
         23    2    1    2    0    0 -0.95739178115E+01  0.59174005895E+02  0.20723855690E+03  0.23386753171E+03  0.90293853865E+02 0.  0.
        -24    2    1    2    0    0 -0.17409958383E+02 -0.72390246729E+02 -0.77994662100E+01  0.10953474912E+03  0.79959834413E+02 0.  0.
         11    1    4    4    0    0 -0.27539505004E+02 -0.22627799167E+02  0.29709371838E+02  0.46401383665E+02  0.00000000000E+00 0. -1.
        -12    1    4    4    0    0  0.10129546621E+02 -0.49762447562E+02 -0.37508838048E+02  0.63133365456E+02  0.00000000000E+00 0.  1.
        -11    1    3    3    0    0  0.19322322203E+02  0.66339540824E+02  0.18255686749E+03  0.19519553447E+03  0.00000000000E+00 0. -1.
         11    1    3    3    0    0 -0.28896240015E+02 -0.71655349287E+01  0.24681689411E+02  0.38671997233E+02  0.00000000000E+00 0.  1.
          2    1    1    2  501    0  0.26983876194E+02  0.13216240834E+02  0.18813351380E+02  0.35450540001E+02  0.00000000000E+00 0. -1.
<scales pt_clust_5="13000.00000" pt_clust_6="13000.00000" pt_clust_7="13000.00000" pt_clust_8="13000.00000" pt_clust_9="30.04661"></scales>
<clustering>
<clus scale="   30.047">  2  9  1 -1</clus>
<clus scale="   79.960">  5  6 -1 -1</clus>
<clus scale="   90.294">  7  8 -1 -1</clus>
<clus scale="  101.052">  2  5  1 -1</clus>
<clus scale="   30.047">  2  5  1 -1</clus>
</clustering>
</event>
<event>
 9    1  0.6296820E-005  0.9225285E+02  0.7546771E-02  0.1303402E+00
          1   -1    0    0  502    0 -0.00000000000E+00  0.00000000000E+00  0.23482222862E+03  0.23482222862E+03  0.00000000000E+00 0. -1.
         21   -1    0    0  501  502  0.00000000000E+00 -0.00000000000E+00 -0.73746799916E+02  0.73746799916E+02  0.00000000000E+00 0.  1.
         23    2    1    2    0    0 -0.12507828073E+01  0.14947570832E+02  0.11558610764E+03  0.14659056900E+03  0.88902487649E+02 0.  0.
        -24    2    1    2    0    0 -0.11804320841E+02 -0.55686335077E+02 -0.28954017029E+01  0.97393909981E+02  0.78973922567E+02 0.  0.
         11    1    4    4    0    0 -0.21173418176E+02  0.86720255947E+01  0.17968306304E+02  0.29092571158E+02  0.00000000000E+00 0. -1.
        -12    1    4    4    0    0  0.93690973350E+01 -0.64358360672E+02 -0.20863708007E+02  0.68301338823E+02  0.00000000000E+00 0.  1.
        -11    1    3    3    0    0 -0.24224318748E+02 -0.17612935670E+02  0.67682617683E+01  0.30705740328E+02  0.00000000000E+00 0.  1.
         11    1    3    3    0    0  0.22973535941E+02  0.32560506502E+02  0.10881784587E+03  0.11588482868E+03  0.00000000000E+00 0. -1.
          2    1    1    2  501    0  0.13055103648E+02  0.40738764244E+02  0.48384722772E+02  0.64584549554E+02  0.00000000000E+00 0. -1.
<scales pt_clust_5="13000.00000" pt_clust_6="13000.00000" pt_clust_7="13000.00000" pt_clust_8="13000.00000" pt_clust_9="42.77949"></scales>
<clustering>
<clus scale="   42.779">  2  9  1 -1</clus>
<clus scale="   78.974">  5  6 -1 -1</clus>
<clus scale="   82.727">  2  5  1 -1</clus>
<clus scale="   88.902">  7  8 -1 -1</clus>
<clus scale="   42.779">  2  5  1 -1</clus>
</clustering>
</event>
<event>
 9    1  0.6296820E-005  0.1075109E+03  0.7546771E-02  0.1270344E+00
         21   -1    0    0  501  502  0.00000000000E+00  0.00000000000E+00  0.34045524825E+03  0.34045524825E+03  0.00000000000E+00 0.  1.
         -4   -1    0    0    0  501 -0.00000000000E+00 -0.00000000000E+00 -0.73634367360E+02  0.73634367360E+02  0.00000000000E+00 0.  1.
        -24    2    1    2    0    0 -0.39924719488E+02  0.38537904745E+02  0.84165037456E+00  0.96572525621E+02  0.79034112895E+02 0.  0.
         23    2    1    2    0    0  0.18283175283E+02 -0.64732250436E+02  0.11020904753E+03  0.15808418846E+03  0.91214240880E+02 0.  0.
         13    1    3    3    0    0 -0.54259091638E+02  0.49612379166E+02  0.13128341139E+02  0.74684607068E+02  0.00000000000E+00 0. -1.
        -14    1    3    3    0    0  0.14334372150E+02 -0.11074474421E+02 -0.12286690765E+02  0.21887918553E+02  0.00000000000E+00 0.  1.
        -11    1    4    4    0    0  0.54720296960E+02 -0.45618724320E+02  0.79442056244E+02  0.10670716568E+03  0.00000000000E+00 0. -1.
         11    1    4    4    0    0 -0.36437121677E+02 -0.19113526117E+02  0.30766991281E+02  0.51377022775E+02  0.00000000000E+00 0.  1.
         -3    1    1    2    0  502  0.21641544205E+02  0.26194345692E+02  0.15577018299E+03  0.15943290153E+03  0.00000000000E+00 0.  1.
<scales pt_clust_5="13000.00000" pt_clust_6="13000.00000" pt_clust_7="13000.00000" pt_clust_8="13000.00000" pt_clust_9="33.97794"></scales>
<clustering>
<clus scale="   33.978">  1  9  2 -1</clus>
<clus scale="   79.034">  5  6 -1 -1</clus>
<clus scale="   91.214">  7  8 -1 -1</clus>
<clus scale="   97.391">  2  5  1 -1</clus>
<clus scale="   33.978">  1  5  2 -1</clus>
</clustering>
</event>
<event>
 9    1  0.6296820E-005  0.9190317E+02  0.7546771E-02  0.1299787E+00
         21   -1    0    0  501  502  0.00000000000E+00  0.00000000000E+00  0.17360610430E+03  0.17360610430E+03  0.00000000000E+00 0. -1.
          3   -1    0    0  502    0 -0.00000000000E+00 -0.00000000000E+00 -0.45017961856E+03  0.45017961856E+03  0.00000000000E+00 0. -1.
        -24    2    1    2    0    0 -0.91827613568E+00  0.42320855653E+01 -0.40688304382E+03  0.41657023211E+03  0.89208705597E+02 0.  0.
         23    2    1    2    0    0  0.13093498461E+02 -0.29205008190E+02  0.27814109748E+02  0.10102135727E+03  0.91691426633E+02 0.  0.
         13    1    3    3    0    0  0.35211354887E+02  0.12796723135E+02 -0.89533789569E+02  0.97056144116E+02  0.00000000000E+00 0. -1.
        -14    1    3    3    0    0 -0.36129631023E+02 -0.85646375700E+01 -0.31734925425E+03  0.31951408800E+03  0.00000000000E+00 0.  1.
        -13    1    4    4    0    0  0.44349872714E+02 -0.33219120151E+02  0.38803483867E+02  0.67647110164E+02  0.00000000000E+00 0.  1.
         13    1    4    4    0    0 -0.31256374254E+02  0.40141119606E+01 -0.10989374118E+02  0.33374247105E+02  0.00000000000E+00 0. -1.
          4    1    1    2  501    0 -0.12175222325E+02  0.24972922625E+02  0.10249541981E+03  0.10619413348E+03  0.00000000000E+00 0. -1.
<scales pt_clust_5="13000.00000" pt_clust_6="13000.00000" pt_clust_7="13000.00000" pt_clust_8="13000.00000" pt_clust_9="27.78278"></scales>
<clustering>
<clus scale="   27.783">  1  9  2 -1</clus>
<clus scale="   89.209">  5  6 -1 -1</clus>
<clus scale="   89.426">  2  5  1 -1</clus>
<clus scale="   91.691">  7  8 -1 -1</clus>
<clus scale="   27.783">  1  5  2 -1</clus>
</clustering>
</event>
<event>
 9    1  0.6296820E-005  0.9455162E+02  0.7546771E-02  0.1297837E+00
          3   -1    0    0  502    0 -0.00000000000E+00  0.00000000000E+00  0.69128970452E+02  0.69128970452E+02  0.00000000000E+00 0. -1.
         21   -1    0    0  501  502  0.00000000000E+00 -0.00000000000E+00 -0.16553264456E+03  0.16553264456E+03  0.00000000000E+00 0. -1.
        -24    2    1    2    0    0 -0.88479590662E+01  0.33747866311E+02 -0.20834186986E+02  0.91275224259E+02  0.81730645146E+02 0.  0.
         23    2    1    2    0    0  0.40989654905E+01 -0.90162490614E+01 -0.41346313720E+02  0.10089602209E+03  0.91500794256E+02 0.  0.
         13    1    3    3    0    0  0.35143695619E+01  0.50325371029E+02 -0.38988093109E+02  0.63757863569E+02  0.00000000000E+00 0. -1.
        -14    1    3    3    0    0 -0.12362328628E+02 -0.16577504718E+02  0.18153906123E+02  0.27517360689E+02  0.00000000000E+00 0.  1.
        -11    1    4    4    0    0 -0.23796749619E+02 -0.23213874052E+02  0.14975067025E+02  0.36461237957E+02  0.00000000000E+00 0. -1.
         11    1    4    4    0    0  0.27895715109E+02  0.14197624991E+02 -0.56321380745E+02  0.64434784130E+02  0.00000000000E+00 0.  1.
          4    1    1    2  501    0  0.47489935757E+01 -0.24731617249E+02 -0.34223173400E+02  0.42490368665E+02  0.00000000000E+00 0. -1.
<scales pt_clust_5="13000.00000" pt_clust_6="13000.00000" pt_clust_7="13000.00000" pt_clust_8="13000.00000" pt_clust_9="25.18344"></scales>
<clustering>
<clus scale="   25.183">  2  9  1 -1</clus>
<clus scale="   81.731">  5  6 -1 -1</clus>
<clus scale="   85.132">  1  5  2 -1</clus>
<clus scale="   91.501">  7  8 -1 -1</clus>
<clus scale="   25.183">  2  5  1 -1</clus>
</clustering>
</event>
<event>
 9    1  0.6296820E-005  0.1902901E+03  0.7546771E-02  0.1183465E+00
         21   -1    0    0  501  502  0.00000000000E+00  0.00000000000E+00  0.15028038270E+03  0.15028038270E+03  0.00000000000E+00 0. -1.
          1   -1    0    0  502    0 -0.00000000000E+00 -0.00000000000E+00 -0.80819805206E+03  0.80819805206E+03  0.00000000000E+00 0. -1.
        -24    2    1    2    0    0 -0.25729022689E+02 -0.63903608431E+02  0.76028679148E+02  0.13113801792E+03  0.81677205577E+02 0.  0.
         23    2    1    2    0    0 -0.48873860939E+02  0.19670847708E+03 -0.51117379126E+03  0.55746945574E+03  0.91600600284E+02 0.  0.
         13    1    3    3    0    0 -0.55454230112E+02 -0.45402498389E+02  0.54479558768E+02  0.90025445408E+02  0.00000000000E+00 0. -1.
        -14    1    3    3    0    0  0.29725207423E+02 -0.18501110042E+02  0.21549120381E+02  0.41112572509E+02  0.00000000000E+00 0.  1.
        -13    1    4    4    0    0 -0.14252478074E+02  0.17499783986E+03 -0.45731829239E+03  0.48986467278E+03  0.00000000000E+00 0. -1.
         13    1    4    4    0    0 -0.34621382865E+02  0.21710637217E+02 -0.53855498877E+02  0.67604782961E+02  0.00000000000E+00 0.  1.
          2    1    1    2  501    0  0.74602883628E+02 -0.13280486865E+03 -0.22277255725E+03  0.26987096110E+03  0.00000000000E+00 0. -1.
<scales pt_clust_5="13000.00000" pt_clust_6="13000.00000" pt_clust_7="13000.00000" pt_clust_8="13000.00000" pt_clust_9="166.79220"></scales>
<clustering>
<clus scale="   81.677">  5  6 -1 -1</clus>
<clus scale="   91.601">  7  8 -1 -1</clus>
<clus scale="  106.850">  2  5  1 -1</clus>
<clus scale="  166.792">  1  9  2 -1</clus>
<clus scale="  166.792">  1  5  2 -1</clus>
</clustering>
</event>
<event>
 9    1  0.6296820E-005  0.1207233E+03  0.7546771E-02  0.1244852E+00
          3   -1    0    0  502    0 -0.00000000000E+00  0.00000000000E+00  0.22892638802E+03  0.22892638802E+03  0.00000000000E+00 0. -1.
         21   -1    0    0  501  502  0.00000000000E+00 -0.00000000000E+00 -0.37995718460E+03  0.37995718460E+03  0.00000000000E+00 0. -1.
         23    2    1    2    0    0  0.77429414055E+02 -0.40985517965E+02  0.17020468802E+03  0.21139488980E+03  0.89682979249E+02 0.  0.
        -24    2    1    2    0    0 -0.37794989589E+02  0.49746461164E+02 -0.33541749977E+02  0.10694552481E+03  0.80057008740E+02 0.  0.
         13    1    4    4    0    0  0.18522069676E+02  0.11050569139E+02 -0.32010228481E+02  0.38598405029E+02  0.00000000000E+00 0. -1.
        -14    1    4    4    0    0 -0.56317059265E+02  0.38695892025E+02 -0.15315214958E+01  0.68347119778E+02  0.00000000000E+00 0.  1.
        -11    1    3    3    0    0  0.25170415577E+02  0.28394502357E+02  0.42797295877E+02  0.57196207207E+02  0.00000000000E+00 0.  1.
         11    1    3    3    0    0  0.52258998479E+02 -0.69380020322E+02  0.12740739214E+03  0.15419868259E+03  0.00000000000E+00 0. -1.
          4    1    1    2  501    0 -0.39634424466E+02 -0.87609431988E+01 -0.28769373462E+03  0.29054315802E+03  0.00000000000E+00 0. -1.
<scales pt_clust_5="13000.00000" pt_clust_6="13000.00000" pt_clust_7="13000.00000" pt_clust_8="13000.00000" pt_clust_9="40.59115"></scales>
<clustering>
<clus scale="   40.591">  2  9  1 -1</clus>
<clus scale="   80.057">  5  6 -1 -1</clus>
<clus scale="   89.683">  7  8 -1 -1</clus>
<clus scale="  113.755">  2  5  1 -1</clus>
<clus scale="   40.591">  2  5  1 -1</clus>
</clustering>
</event>
<event>
 9    1  0.6296820E-005  0.9153575E+02  0.7546771E-02  0.1304681E+00
          1   -1    0    0  502    0 -0.00000000000E+00  0.00000000000E+00  0.25748005717E+03  0.25748005717E+03  0.00000000000E+00 0. -1.
         21   -1    0    0  501  502  0.00000000000E+00 -0.00000000000E+00 -0.10340288425E+03  0.10340288425E+03  0.00000000000E+00 0.  1.
         23    2    1    2    0    0 -0.13671083221E+02  0.16833844721E+02  0.13981578891E+03  0.16717341406E+03  0.89040545217E+02 0.  0.
        -24    2    1    2    0    0  0.53067226446E+02  0.47336968425E+02 -0.23376901454E+02  0.10952764159E+03  0.79955648012E+02 0.  0.
         11    1    4    4    0    0  0.33521905877E+02  0.19042028075E+02  0.28039308408E+02  0.47670953660E+02  0.00000000000E+00 0. -1.
        -12    1    4    4    0    0  0.19545320569E+02  0.28294940350E+02 -0.51416209862E+02  0.61856687933E+02  0.00000000000E+00 0.  1.
        -13    1    3    3    0    0 -0.43519215778E+02  0.34557804840E+02  0.99543886306E+02  0.11400504076E+03  0.00000000000E+00 0. -1.
         13    1    3    3    0    0  0.29848132557E+02 -0.17723960119E+02  0.40271902609E+02  0.53168373298E+02  0.00000000000E+00 0.  1.
          2    1    1    2  501    0 -0.39396143225E+02 -0.64170813146E+02  0.37638285454E+02  0.84181885775E+02  0.00000000000E+00 0. -1.
<scales pt_clust_5="13000.00000" pt_clust_6="13000.00000" pt_clust_7="13000.00000" pt_clust_8="13000.00000" pt_clust_9="75.29910"></scales>
<clustering>
<clus scale="   75.299">  2  9  1 -1</clus>
<clus scale="   79.956">  5  6 -1 -1</clus>
<clus scale="   82.725">  2  5  1 -1</clus>
<clus scale="   89.041">  7  8 -1 -1</clus>
<clus scale="   75.299">  2  5  1 -1</clus>
</clustering>
</event>
<event>
 9    1  0.6296820E-005  0.1019321E+03  0.7546771E-02  0.1280882E+00
          1   -1    0    0  502    0 -0.00000000000E+00  0.00000000000E+00  0.16518130378E+03  0.16518130378E+03  0.00000000000E+00 0. -1.
         21   -1    0    0  501  502  0.00000000000E+00 -0.00000000000E+00 -0.99547943035E+02  0.99547943035E+02  0.00000000000E+00 0. -1.
         23    2    1    2    0    0 -0.33692296320E+02  0.40013195497E+00  0.50217738644E+02  0.10887060029E+03  0.90529859139E+02 0.  0.
        -24    2    1    2    0    0  0.73257374440E+02  0.38450489741E+01 -0.84816031804E+01  0.10944211559E+03  0.80772592886E+02 0.  0.
         11    1    4    4    0    0  0.90341301855E+02 -0.15219382369E+01 -0.19319110008E+01  0.90374771906E+02  0.00000000000E+00 0. -1.
        -12    1    4    4    0    0 -0.17083927415E+02  0.53669872110E+01 -0.65496921795E+01  0.19067343687E+02  0.00000000000E+00 0.  1.
        -11    1    3    3    0    0 -0.17979866618E+02 -0.43484489892E+02  0.11916574258E+02  0.48540510987E+02  0.00000000000E+00 0.  1.
         11    1    3    3    0    0 -0.15712429702E+02  0.43884621847E+02  0.38301164385E+02  0.60330089301E+02  0.00000000000E+00 0. -1.
          2    1    1    2  501    0 -0.39565078120E+02 -0.42451809291E+01  0.23897225281E+02  0.46416530934E+02  0.00000000000E+00 0. -1.
<scales pt_clust_5="13000.00000" pt_clust_6="13000.00000" pt_clust_7="13000.00000" pt_clust_8="13000.00000" pt_clust_9="39.79219"></scales>
<clustering>
<clus scale="   39.792">  2  9  1 -1</clus>
<clus scale="   80.773">  5  6 -1 -1</clus>
<clus scale="   90.530">  7  8 -1 -1</clus>
<clus scale="   93.374">  2  5  1 -1</clus>
<clus scale="   39.792">  2  5  1 -1</clus>
</clustering>
</event>
<event>
 9    1  0.6479550E-005  0.8506268E+02  0.7546771E-02  0.1316961E+00
         21   -1    0    0  501  502  0.00000000000E+00  0.00000000000E+00  0.46948971964E+03  0.46948971964E+03  0.00000000000E+00 0. -1.
          1   -1    0    0  502    0 -0.00000000000E+00 -0.00000000000E+00 -0.23377108312E+03  0.23377108312E+03  0.00000000000E+00 0. -1.
         23    2    1    2    0    0  0.32157229042E+01  0.20554511195E+02 -0.21875851338E+03  0.23474105161E+03  0.82554499158E+02 0.  0.
        -24    2    1    2    0    0 -0.20635087484E+02 -0.19715261515E+01  0.39929350602E+03  0.40774149724E+03  0.79925783508E+02 0.  0.
         11    1    4    4    0    0 -0.40931243615E+02  0.39201279173E+01  0.10612687406E+03  0.11381409185E+03  0.00000000000E+00 0. -1.
        -12    1    4    4    0    0  0.20296156130E+02 -0.58916540687E+01  0.29316663196E+03  0.29392740538E+03  0.00000000000E+00 0.  1.
        -13    1    3    3    0    0  0.19158748836E+02 -0.12164453136E+02 -0.13767236344E+02  0.26543706855E+02  0.00000000000E+00 0.  1.
         13    1    3    3    0    0 -0.15943025932E+02  0.32718964331E+02 -0.20499127704E+03  0.20819734476E+03  0.00000000000E+00 0. -1.
          2    1    1    2  501    0  0.17419364580E+02 -0.18582985044E+02  0.55183643881E+02  0.60778253903E+02  0.00000000000E+00 0. -1.
<scales pt_clust_5="13000.00000" pt_clust_6="13000.00000" pt_clust_7="13000.00000" pt_clust_8="13000.00000" pt_clust_9="25.47080"></scales>
<clustering>
<clus scale="   25.471">  1  9  2 -1</clus>
<clus scale="   79.926">  5  6 -1 -1</clus>
<clus scale="   82.514">  1  5  2 -1</clus>
<clus scale="   82.554">  7  8 -1 -1</clus>
<clus scale="   25.471">  1  5  2 -1</clus>
</clustering>
</event>
<event>
 9    1  0.6296820E-005  0.9053891E+02  0.7546771E-02  0.1307766E+00
         21   -1    0    0  501  502  0.00000000000E+00  0.00000000000E+00  0.22855049620E+03  0.22855049620E+03  0.00000000000E+00 0.  1.
         -2   -1    0    0    0  501 -0.00000000000E+00 -0.00000000000E+00 -0.51277144979E+02  0.51277144979E+02  0.00000000000E+00 0.  1.
        -24    2    1    2    0    0 -0.14653979513E+02  0.30349417469E+00  0.36138871961E+02  0.89510252950E+02  0.80568207702E+02 0.  0.
         23    2    1    2    0    0 -0.15842806970E+02  0.12423063324E+02  0.11808232189E+03  0.15002568672E+03  0.90326878041E+02 0.  0.
         13    1    3    3    0    0  0.30231429901E+02 -0.13011017397E+02  0.50196697577E+01  0.33292987431E+02  0.00000000000E+00 0. -1.
        -14    1    3    3    0    0 -0.44885409414E+02  0.13314511572E+02  0.31119202204E+02  0.56217265519E+02  0.00000000000E+00 0.  1.
        -11    1    4    4    0    0 -0.32097232762E+02 -0.27182425826E+02  0.88504461985E+02  0.97990593508E+02  0.00000000000E+00 0.  1.
         11    1    4    4    0    0  0.16254425792E+02  0.39605489150E+02  0.29577859905E+02  0.52035093208E+02  0.00000000000E+00 0. -1.
         -1    1    1    2    0  502  0.30496786483E+02 -0.12726557498E+02  0.23052157373E+02  0.40291701517E+02  0.00000000000E+00 0.  1.
<scales pt_clust_5="13000.00000" pt_clust_6="13000.00000" pt_clust_7="13000.00000" pt_clust_8="13000.00000" pt_clust_9="33.04573"></scales>
<clustering>
<clus scale="   33.046">  1  9  2 -1</clus>
<clus scale="   80.568">  5  6 -1 -1</clus>
<clus scale="   80.806">  2  5  1 -1</clus>
<clus scale="   90.327">  7  8 -1 -1</clus>
<clus scale="   33.046">  1  5  2 -1</clus>
</clustering>
</event>
<event>
 9    1  0.6296820E-005  0.2059302E+03  0.7546771E-02  0.1159006E+00
         21   -1    0    0  501  502  0.00000000000E+00  0.00000000000E+00  0.30731017332E+03  0.30731017332E+03  0.00000000000E+00 0. -1.
          1   -1    0    0  502    0 -0.00000000000E+00 -0.00000000000E+00 -0.34618739340E+03  0.34618739340E+03  0.00000000000E+00 0. -1.
        -24    2    1    2    0    0  0.53860987746E+02  0.10895934953E+03  0.80592478161E+02  0.16794548964E+03  0.83291020549E+02 0.  0.
         23    2    1    2    0    0 -0.45112800992E+02 -0.26915049157E+03 -0.14647623493E+03  0.32286499775E+03  0.91155731825E+02 0.  0.
         13    1    3    3    0    0  0.55242160389E+02  0.43224518036E+02  0.73848562476E+02  0.10185119255E+03  0.00000000000E+00 0. -1.
        -14    1    3    3    0    0 -0.13811726434E+01  0.65734831494E+02  0.67439156848E+01  0.66094297093E+02  0.00000000000E+00 0.  1.
        -11    1    4    4    0    0  0.15206018928E+02 -0.33934340010E+02  0.36719236476E+01  0.37366368125E+02  0.00000000000E+00 0.  1.
         11    1    4    4    0    0 -0.60318819920E+02 -0.23521615156E+03 -0.15014815858E+03  0.28549862962E+03  0.00000000000E+00 0. -1.
          2    1    1    2  501    0 -0.87481867539E+01  0.16019114204E+03  0.27006536692E+02  0.16268707934E+03  0.00000000000E+00 0. -1.
<scales pt_clust_5="13000.00000" pt_clust_6="13000.00000" pt_clust_7="13000.00000" pt_clust_8="13000.00000" pt_clust_9="184.65611"></scales>
<clustering>
<clus scale="   83.291">  5  6 -1 -1</clus>
<clus scale="   91.156">  7  8 -1 -1</clus>
<clus scale="  147.345">  2  5  1 -1</clus>
<clus scale="  184.656">  1  9  2 -1</clus>
<clus scale="  184.656">  1  5  2 -1</clus>
</clustering>
</event>
<event>
 9    1  0.6296820E-005  0.1283891E+03  0.7546771E-02  0.1242333E+00
         -4   -1    0    0    0  501 -0.00000000000E+00  0.00000000000E+00  0.98418860302E+02  0.98418860302E+02  0.00000000000E+00 0.  1.
         21   -1    0    0  501  502  0.00000000000E+00 -0.00000000000E+00 -0.41973370367E+03  0.41973370367E+03  0.00000000000E+00 0.  1.
        -24    2    1    2    0    0 -0.57657595406E+02  0.15977334208E+02  0.18701841434E+02  0.10124851393E+03  0.79509931357E+02 0.  0.
         23    2    1    2    0    0 -0.44077133909E+02 -0.35403992991E+02 -0.71035893295E+02  0.12867147655E+03  0.91181216750E+02 0.  0.
         11    1    3    3    0    0 -0.68153933504E+01 -0.27373261589E+02 -0.79601881493E+01  0.29310572017E+02  0.00000000000E+00 0. -1.
        -12    1    3    3    0    0 -0.50842202055E+02  0.43350595797E+02  0.26662029583E+02  0.71937941917E+02  0.00000000000E+00 0.  1.
        -13    1    4    4    0    0  0.61737537780E+01 -0.45198798421E+02 -0.61671838756E+01  0.46033474465E+02  0.00000000000E+00 0. -1.
         13    1    4    4    0    0 -0.50250887688E+02  0.97948054302E+01 -0.64868709419E+02  0.82638002084E+02  0.00000000000E+00 0.  1.
         -3    1    1    2    0  502  0.10173472932E+03  0.19426658783E+02 -0.26898079151E+03  0.28823257349E+03  0.00000000000E+00 0.  1.
<scales pt_clust_5="13000.00000" pt_clust_6="13000.00000" pt_clust_7="13000.00000" pt_clust_8="13000.00000" pt_clust_9="90.38669"></scales>
<clustering>
<clus scale="   79.510">  5  6 -1 -1</clus>
<clus scale="   91.181">  7  8 -1 -1</clus>
<clus scale="   99.506">  1  5  2 -1</clus>
<clus scale="   90.387">  2  9  1 -1</clus>
<clus scale="   90.387">  2  5  1 -1</clus>
</clustering>
</event>
<event>
 9    1  0.6296820E-005  0.1176166E+03  0.7546771E-02  0.1249582E+00
         -2   -1    0    0    0  501 -0.00000000000E+00  0.00000000000E+00  0.37735879046E+03  0.37735879046E+03  0.00000000000E+00 0.  1.
         21   -1    0    0  501  502  0.00000000000E+00 -0.00000000000E+00 -0.12512025882E+03  0.12512025882E+03  0.00000000000E+00 0.  1.
        -24    2    1    2    0    0  0.61723576922E+02 -0.41056859387E+01  0.20253389697E+03  0.22738902377E+03  0.82819877472E+02 0.  0.
         23    2    1    2    0    0 -0.11072636757E+03  0.15679196076E+01  0.12184232712E+03  0.18784576827E+03  0.90430598415E+02 0.  0.
         11    1    3    3    0    0  0.81801666606E+02  0.26931908780E+01  0.15316128070E+03  0.17365812346E+03  0.00000000000E+00 0. -1.
        -12    1    3    3    0    0 -0.20078089683E+02 -0.67988768166E+01  0.49372616271E+02  0.53730900316E+02  0.00000000000E+00 0.  1.
        -13    1    4    4    0    0 -0.61249941834E+02 -0.33375188012E+02  0.10302751495E+03  0.12441916004E+03  0.00000000000E+00 0.  1.
         13    1    4    4    0    0 -0.49476425737E+02  0.34943107619E+02  0.18814812178E+02  0.63426608226E+02  0.00000000000E+00 0. -1.
         -1    1    1    2    0  502  0.49002790648E+02  0.25377663310E+01 -0.72137692455E+02  0.87244257244E+02  0.00000000000E+00 0.  1.
<scales pt_clust_5="13000.00000" pt_clust_6="13000.00000" pt_clust_7="13000.00000" pt_clust_8="13000.00000" pt_clust_9="49.06846"></scales>
<clustering>
<clus scale="   49.068">  2  9  1 -1</clus>
<clus scale="   82.820">  5  6 -1 -1</clus>
<clus scale="   90.431">  7  8 -1 -1</clus>
<clus scale="  111.871">  1  5  2 -1</clus>
<clus scale="   49.068">  2  5  1 -1</clus>
</clustering>
</event>
<event>
 9    1  0.6296820E-005  0.1023891E+03  0.7546771E-02  0.1280946E+00
         -2   -1    0    0    0  501 -0.00000000000E+00  0.00000000000E+00  0.34035030425E+03  0.34035030425E+03  0.00000000000E+00 0.  1.
         21   -1    0    0  501  502  0.00000000000E+00 -0.00000000000E+00 -0.48634598819E+02  0.48634598819E+02  0.00000000000E+00 0.  1.
         23    2    1    2    0    0 -0.38473022680E+02 -0.33733864430E+02  0.16843718451E+03  0.19814477085E+03  0.90951184730E+02 0.  0.
        -24    2    1    2    0    0  0.15025047005E+02  0.38666307362E+02  0.29514701705E+02  0.94063118682E+02  0.79094357049E+02 0.  0.
         11    1    4    4    0    0  0.20296917674E+02  0.61982740981E+02  0.24261834688E+02  0.69587798276E+02  0.00000000000E+00 0. -1.
        -12    1    4    4    0    0 -0.52718706694E+01 -0.23316433619E+02  0.52528670174E+01  0.24475320406E+02  0.00000000000E+00 0.  1.
        -11    1    3    3    0    0  0.25312944863E+02  0.67985947033E+01  0.26103104895E+02  0.36991055037E+02  0.00000000000E+00 0. -1.
         11    1    3    3    0    0 -0.63785967543E+02 -0.40532459133E+02  0.14233407962E+03  0.16115371581E+03  0.00000000000E+00 0.  1.
         -1    1    1    2    0  502  0.23447975675E+02 -0.49324429323E+01  0.93763819217E+02  0.96777013545E+02  0.00000000000E+00 0.  1.
<scales pt_clust_5="13000.00000" pt_clust_6="13000.00000" pt_clust_7="13000.00000" pt_clust_8="13000.00000" pt_clust_9="23.96116"></scales>
<clustering>
<clus scale="   23.961">  2  9  1 -1</clus>
<clus scale="   79.094">  5  6 -1 -1</clus>
<clus scale="   90.951">  7  8 -1 -1</clus>
<clus scale="   92.018">  2  5  1 -1</clus>
<clus scale="   23.961">  2  5  1 -1</clus>
</clustering>
</event>
<event>
 9    1  0.6296820E-005  0.1073547E+03  0.7546771E-02  0.1268524E+00
         21   -1    0    0  501  502  0.00000000000E+00  0.00000000000E+00  0.48226095142E+02  0.48226095142E+02  0.00000000000E+00 0. -1.
          1   -1    0    0  502    0 -0.00000000000E+00 -0.00000000000E+00 -0.47568796873E+03  0.47568796873E+03  0.00000000000E+00 0. -1.
        -24    2    1    2    0    0  0.72532031369E+02 -0.66973553213E+01 -0.13617493254E+03  0.17419912791E+03  0.80597603986E+02 0.  0.
         23    2    1    2    0    0 -0.30266140657E+02  0.58681702507E+02 -0.10649217924E+03  0.15314972577E+03  0.88060619932E+02 0.  0.
         11    1    3    3    0    0  0.85858256155E+02 -0.21247721712E+02 -0.11715437647E+03  0.14679323470E+03  0.00000000000E+00 0. -1.
        -12    1    3    3    0    0 -0.13326224786E+02  0.14550366391E+02 -0.19020556068E+02  0.27405893204E+02  0.00000000000E+00 0.  1.
        -11    1    4    4    0    0 -0.17195297666E+02 -0.21188144452E+02 -0.39920130707E+02  0.48355274405E+02  0.00000000000E+00 0.  1.
         11    1    4    4    0    0 -0.13070842990E+02  0.79869846959E+02 -0.66572048536E+02  0.10479445136E+03  0.00000000000E+00 0. -1.
          2    1    1    2  501    0 -0.42265890712E+02 -0.51984347186E+02 -0.18479476180E+03  0.19656521020E+03  0.00000000000E+00 0. -1.
<scales pt_clust_5="13000.00000" pt_clust_6="13000.00000" pt_clust_7="13000.00000" pt_clust_8="13000.00000" pt_clust_9="66.99838"></scales>
<clustering>
<clus scale="   66.998">  1  9  2 -1</clus>
<clus scale="   80.598">  5  6 -1 -1</clus>
<clus scale="   88.061">  7  8 -1 -1</clus>
<clus scale="  101.323">  2  5  1 -1</clus>
<clus scale="   66.998">  1  5  2 -1</clus>
</clustering>
</event>
<event>
 9    1  0.6296820E-005  0.9568405E+02  0.7546771E-02  0.1296019E+00
          1   -1    0    0  502    0 -0.00000000000E+00  0.00000000000E+00  0.71927795350E+03  0.71927795350E+03  0.00000000000E+00 0. -1.
         21   -1    0    0  501  502  0.00000000000E+00 -0.00000000000E+00 -0.25009984697E+02  0.25009984697E+02  0.00000000000E+00 0. -1.
         23    2    1    2    0    0 -0.16009951058E+02  0.28268476293E+02  0.47704698574E+03  0.48666991220E+03  0.90655124201E+02 0.  0.
        -24    2    1    2    0    0 -0.23540622743E+02 -0.35016102742E+02  0.18683462945E+03  0.20728802663E+03  0.79251869718E+02 0.  0.
         13    1    4    4    0    0 -0.37407835217E+02 -0.54342360346E+02  0.13942529363E+03  0.15424607213E+03  0.00000000000E+00 0. -1.
        -14    1    4    4    0    0  0.13867212474E+02  0.19326257604E+02  0.47409335815E+02  0.53041954500E+02  0.00000000000E+00 0.  1.
        -11    1    3    3    0    0 -0.16586751942E+02 -0.31333650518E+02  0.14175704006E+03  0.14612315491E+03  0.00000000000E+00 0. -1.
         11    1    3    3    0    0  0.57680088367E+00  0.59602126811E+02  0.33528994568E+03  0.34054675728E+03  0.00000000000E+00 0.  1.
          2    1    1    2  501    0  0.39550573801E+02  0.67476264491E+01  0.30386353609E+02  0.50329999367E+02  0.00000000000E+00 0. -1.
<scales pt_clust_5="13000.00000" pt_clust_6="13000.00000" pt_clust_7="13000.00000" pt_clust_8="13000.00000" pt_clust_9="40.12204"></scales>
<clustering>
<clus scale="   40.122">  2  9  1 -1</clus>
<clus scale="   79.252">  5  6 -1 -1</clus>
<clus scale="   84.958">  2  5  1 -1</clus>
<clus scale="   90.655">  7  8 -1 -1</clus>
<clus scale="   40.122">  2  5  1 -1</clus>
</clustering>
</event>
<event>
 9    1  0.6296820E-005  0.3328175E+03  0.7546771E-02  0.1094378E+00
         21   -1    0    0  501  502  0.00000000000E+00  0.00000000000E+00  0.10822730171E+03  0.10822730171E+03  0.00000000000E+00 0. -1.
          1   -1    0    0  502    0 -0.00000000000E+00 -0.00000000000E+00 -0.16423689830E+04  0.16423689830E+04  0.00000000000E+00 0. -1.
         23    2    1    2    0    0  0.14679764202E+03 -0.19696349722E+02 -0.33414940746E+03  0.37607200906E+03  0.88525903532E+02 0.  0.
        -24    2    1    2    0    0 -0.26750536419E+03  0.26376839461E+03 -0.57361142784E+03  0.69152026284E+03  0.89651089861E+02 0.  0.
         11    1    4    4    0    0 -0.23802745638E+03  0.23142950949E+03 -0.54828201211E+03  0.64096010223E+03  0.00000000000E+00 0. -1.
        -12    1    4    4    0    0 -0.29477907813E+02  0.32338885122E+02 -0.25329415727E+02  0.50560160611E+02  0.00000000000E+00 0.  1.
        -13    1    3    3    0    0  0.26629874847E+02 -0.41985567830E+02 -0.11153770465E+03  0.12211714744E+03  0.00000000000E+00 0.  1.
         13    1    3    3    0    0  0.12016776717E+03  0.22289218109E+02 -0.22261170281E+03  0.25395486162E+03  0.00000000000E+00 0. -1.
          2    1    1    2  501    0  0.12070772217E+03 -0.24407204489E+03 -0.62638084595E+03  0.68300401277E+03  0.00000000000E+00 0. -1.
<scales pt_clust_5="13000.00000" pt_clust_6="13000.00000" pt_clust_7="13000.00000" pt_clust_8="13000.00000" pt_clust_9="320.51569"></scales>
<clustering>
<clus scale="   88.526">  7  8 -1 -1</clus>
<clus scale="   89.651">  5  6 -1 -1</clus>
<clus scale="  172.552">  2  7  1 -1</clus>
<clus scale="  320.516">  1  9  2 -1</clus>
<clus scale="  320.516">  1  5  2 -1</clus>
</clustering>
</event>
<event>
 9    1  0.6296820E-005  0.9461303E+02  0.7546771E-02  0.1305385E+00
          1   -1    0    0  502    0 -0.00000000000E+00  0.00000000000E+00  0.34856666636E+03  0.34856666636E+03  0.00000000000E+00 0. -1.
         21   -1    0    0  501  502  0.00000000000E+00 -0.00000000000E+00 -0.30791109128E+02  0.30791109128E+02  0.00000000000E+00 0. -1.
        -24    2    1    2    0    0  0.19943754871E+02  0.12093999570E+02  0.15369767465E+03  0.17025646004E+03  0.69428155735E+02 0.  0.
         23    2    1    2    0    0 -0.35924053452E+02  0.64685433238E+01  0.98326282519E+02  0.13893571952E+03  0.91119134404E+02 0.  0.
         11    1    3    3    0    0 -0.83806468339E+01  0.34808447673E+02  0.91229530868E+02  0.98003523269E+02  0.00000000000E+00 0. -1.
        -12    1    3    3    0    0  0.28324401705E+02 -0.22714448103E+02  0.62468143785E+02  0.72252936774E+02  0.00000000000E+00 0.  1.
        -11    1    4    4    0    0  0.29609527916E+02  0.10363414947E+02  0.42078963351E+02  0.52485842562E+02  0.00000000000E+00 0.  1.
         11    1    4    4    0    0 -0.65533581368E+02 -0.38948716233E+01  0.56247319168E+02  0.86449876955E+02  0.00000000000E+00 0. -1.
          2    1    1    2  501    0  0.15980298581E+02 -0.18562542894E+02  0.65751600058E+02  0.70165595926E+02  0.00000000000E+00 0. -1.
<scales pt_clust_5="13000.00000" pt_clust_6="13000.00000" pt_clust_7="13000.00000" pt_clust_8="13000.00000" pt_clust_9="24.49364"></scales>
<clustering>
<clus scale="   24.494">  2  9  1 -1</clus>
<clus scale="   69.428">  5  6 -1 -1</clus>
<clus scale="   73.954">  1  5  2 -1</clus>
<clus scale="   91.119">  7  8 -1 -1</clus>
<clus scale="   24.494">  2  5  1 -1</clus>
</clustering>
</event>
<event>
 9    1  0.8268208E-005  0.2180204E+03  0.7546771E-02  0.1136582E+00
          1   -1    0    0  502    0 -0.00000000000E+00  0.00000000000E+00  0.92803335756E+03  0.92803335756E+03  0.00000000000E+00 0. -1.
         21   -1    0    0  501  502  0.00000000000E+00 -0.00000000000E+00 -0.15889512488E+03  0.15889512488E+03  0.00000000000E+00 0. -1.
        -24    2    1    2    0    0 -0.16444013733E+03  0.11059439501E+03  0.69245668980E+03  0.72421245624E+03  0.75602483717E+02 0.  0.
         23    2    1    2    0    0  0.19034827621E+03 -0.62864638499E+02 -0.48923867514E+02  0.22587275659E+03  0.91872348006E+02 0.  0.
         13    1    3    3    0    0 -0.15857764239E+03  0.78615935890E+02  0.53784573760E+03  0.56622024999E+03  0.00000000000E+00 0. -1.
        -14    1    3    3    0    0 -0.58624949406E+01  0.31978459119E+02  0.15461095220E+03  0.15799220625E+03  0.00000000000E+00 0.  1.
        -11    1    4    4    0    0  0.14707513798E+01 -0.24228745150E+02 -0.18892540801E+02  0.30759117332E+02  0.00000000000E+00 0.  1.
         11    1    4    4    0    0  0.18887752483E+03 -0.38635893350E+02 -0.30031326714E+02  0.19511363926E+03  0.00000000000E+00 0. -1.
          2    1    1    2  501    0 -0.25908138877E+02 -0.47729756509E+02  0.12560541039E+03  0.13684326960E+03  0.00000000000E+00 0. -1.
<scales pt_clust_5="13000.00000" pt_clust_6="13000.00000" pt_clust_7="13000.00000" pt_clust_8="13000.00000" pt_clust_9="54.30805"></scales>
<clustering>
<clus scale="   54.308">  2  9  1 -1</clus>
<clus scale="   75.602">  5  6 -1 -1</clus>
<clus scale="   91.872">  7  8 -1 -1</clus>
<clus scale="  211.679">  1  5  2 -1</clus>
<clus scale="   54.308">  2  5  1 -1</clus>
</clustering>
</event>
<event>
 9    1  0.6296820E-005  0.1178328E+03  0.7546771E-02  0.1250534E+00
         21   -1    0    0  501  502  0.00000000000E+00  0.00000000000E+00  0.14678250831E+03  0.14678250831E+03  0.00000000000E+00 0. -1.
         -2   -1    0    0    0  501 -0.00000000000E+00 -0.00000000000E+00 -0.48985061450E+03  0.48985061450E+03  0.00000000000E+00 0.  1.
        -24    2    1    2    0    0 -0.71681198274E+02 -0.25336902237E+02 -0.44421234303E+03  0.45772810729E+03  0.80064109928E+02 0.  0.
         23    2    1    2    0    0  0.41402135931E+02  0.60966334593E+01  0.10161794157E+03  0.14302697272E+03  0.91537987069E+02 0.  0.
         13    1    3    3    0    0 -0.61991327217E+02  0.16271943160E+02 -0.20684962979E+03  0.21655131061E+03  0.00000000000E+00 0. -1.
        -14    1    3    3    0    0 -0.96898710573E+01 -0.41608845398E+02 -0.23736271324E+03  0.24117679667E+03  0.00000000000E+00 0.  1.
        -13    1    4    4    0    0 -0.21091362561E+02  0.23272756876E+02  0.14892600966E+02  0.34759982032E+02  0.00000000000E+00 0.  1.
         13    1    4    4    0    0  0.62493498492E+02 -0.17176123417E+02  0.86725340606E+02  0.10826699069E+03  0.00000000000E+00 0. -1.
         -1    1    1    2    0  502  0.30279062343E+02  0.19240268778E+02 -0.47370472957E+00  0.35878042801E+02  0.00000000000E+00 0.  1.
<scales pt_clust_5="13000.00000" pt_clust_6="13000.00000" pt_clust_7="13000.00000" pt_clust_8="13000.00000" pt_clust_9="35.87492"></scales>
<clustering>
<clus scale="   35.875">  1  9  2 -1</clus>
<clus scale="   80.064">  5  6 -1 -1</clus>
<clus scale="   91.538">  7  8 -1 -1</clus>
<clus scale="  109.159">  2  5  1 -1</clus>
<clus scale="   35.875">  1  5  2 -1</clus>
</clustering>
</event>
<event>
 9    1  0.6296820E-005  0.1182300E+03  0.7546771E-02  0.1254775E+00
         21   -1    0    0  501  502  0.00000000000E+00  0.00000000000E+00  0.24148668183E+03  0.24148668183E+03  0.00000000000E+00 0.  1.
         -4   -1    0    0    0  501 -0.00000000000E+00 -0.00000000000E+00 -0.77795268529E+02  0.77795268529E+02  0.00000000000E+00 0.  1.
         23    2    1    2    0    0  0.53460612828E+02  0.42008700759E+02  0.52150528349E+01  0.12147754741E+03  0.10053272943E+03 0.  0.
        -24    2    1    2    0    0 -0.47518022440E+02 -0.21185290721E+02  0.10692626206E+03  0.14189070666E+03  0.77414263026E+02 0.  0.
         13    1    4    4    0    0 -0.61010706355E+02 -0.18193793790E+02  0.43819193183E+02  0.77288046383E+02  0.00000000000E+00 0. -1.
        -14    1    4    4    0    0  0.13492683915E+02 -0.29914969306E+01  0.63107068877E+02  0.64602660281E+02  0.00000000000E+00 0.  1.
        -13    1    3    3    0    0  0.50840048337E+02 -0.21810547949E+02  0.13837075120E+02  0.57025215166E+02  0.00000000000E+00 0. -1.
         13    1    3    3    0    0  0.26205644909E+01  0.63819248709E+02 -0.86220222853E+01  0.64452332249E+02  0.00000000000E+00 0.  1.
         -3    1    1    2    0  502 -0.59425903883E+01 -0.20823410038E+02  0.51550098409E+02  0.55913696284E+02  0.00000000000E+00 0.  1.
<scales pt_clust_5="13000.00000" pt_clust_6="13000.00000" pt_clust_7="13000.00000" pt_clust_8="13000.00000" pt_clust_9="21.65476"></scales>
<clustering>
<clus scale="   21.655">  1  9  2 -1</clus>
<clus scale="   77.414">  5  6 -1 -1</clus>
<clus scale="   99.320">  1  5  2 -1</clus>
<clus scale="  100.533">  7  8 -1 -1</clus>
<clus scale="   21.655">  1  5  2 -1</clus>
</clustering>
</event>
<event>
 9    1  0.6296820E-005  0.2121844E+03  0.7546771E-02  0.1140044E+00
         -2   -1    0    0    0  501 -0.00000000000E+00  0.00000000000E+00  0.30711254931E+03  0.30711254931E+03  0.00000000000E+00 0.  1.
         21   -1    0    0  501  502  0.00000000000E+00 -0.00000000000E+00 -0.42143928242E+03  0.42143928242E+03  0.00000000000E+00 0.  1.
         23    2    1    2    0    0 -0.91221129287E+02 -0.19706963262E+03  0.63532865493E+02  0.24419124720E+03  0.91843375825E+02 0.  0.
        -24    2    1    2    0    0  0.14899487791E+03  0.44516527479E+02 -0.24857787849E+03  0.30656482803E+03  0.89497694081E+02 0.  0.
         13    1    4    4    0    0  0.31942956021E+02 -0.18710195759E+02 -0.10252748895E+03  0.10900600834E+03  0.00000000000E+00 0. -1.
        -14    1    4    4    0    0  0.11705192189E+03  0.63226723238E+02 -0.14605038954E+03  0.19755881968E+03  0.00000000000E+00 0.  1.
        -11    1    3    3    0    0 -0.56757109305E+02 -0.28603863959E+02  0.11999059410E+02  0.64680197254E+02  0.00000000000E+00 0. -1.
         11    1    3    3    0    0 -0.34464019982E+02 -0.16846576866E+03  0.51533806084E+02  0.17951104995E+03  0.00000000000E+00 0.  1.
         -1    1    1    2    0  502 -0.57773748628E+02  0.15255310514E+03  0.70718279879E+02  0.17779575650E+03  0.00000000000E+00 0.  1.
<scales pt_clust_5="13000.00000" pt_clust_6="13000.00000" pt_clust_7="13000.00000" pt_clust_8="13000.00000" pt_clust_9="163.12658"></scales>
<clustering>
<clus scale="   89.498">  5  6 -1 -1</clus>
<clus scale="   91.843">  7  8 -1 -1</clus>
<clus scale="  163.127">  2  9  1 -1</clus>
<clus scale="  211.180">  2  5  1 -1</clus>
<clus scale="  163.127">  2  5  1 -1</clus>
</clustering>
</event>
<event>
 9    1  0.6296820E-005  0.1055262E+03  0.7546771E-02  0.1271187E+00
          1   -1    0    0  502    0 -0.00000000000E+00  0.00000000000E+00  0.14239220715E+03  0.14239220715E+03  0.00000000000E+00 0. -1.
         21   -1    0    0  501  502  0.00000000000E+00 -0.00000000000E+00 -0.10231103186E+03  0.10231103186E+03  0.00000000000E+00 0.  1.
        -24    2    1    2    0    0  0.38957898848E+02  0.26229126391E+02  0.28434486531E+02  0.10918190751E+03  0.94374169929E+02 0.  0.
         23    2    1    2    0    0 -0.52702728964E+02  0.15478642847E+01  0.79874359078E+01  0.10431441404E+03  0.89653356430E+02 0.  0.
         11    1    3    3    0    0 -0.24354093311E+02 -0.10409921542E+02  0.24254282057E+02  0.35913208233E+02  0.00000000000E+00 0. -1.
        -12    1    3    3    0    0  0.63311992160E+02  0.36639047933E+02  0.41802044743E+01  0.73268699279E+02  0.00000000000E+00 0.  1.
        -13    1    4    4    0    0  0.23972274136E+02 -0.60480606403E+01  0.11320633105E+02  0.27192015348E+02  0.00000000000E+00 0. -1.
         13    1    4    4    0    0 -0.76675003100E+02  0.75959249251E+01 -0.33331971976E+01  0.77122398688E+02  0.00000000000E+00 0.  1.
          2    1    1    2  501    0  0.13744830115E+02 -0.27776990676E+02  0.36592528483E+01  0.31206917459E+02  0.00000000000E+00 0. -1.
<scales pt_clust_5="13000.00000" pt_clust_6="13000.00000" pt_clust_7="13000.00000" pt_clust_8="13000.00000" pt_clust_9="30.99164"></scales>
<clustering>
<clus scale="   30.992">  2  9  1 -1</clus>
<clus scale="   89.653">  7  8 -1 -1</clus>
<clus scale="   94.374">  5  6 -1 -1</clus>
<clus scale="  101.326">  2  7  1 -1</clus>
<clus scale="   30.992">  2  5  1 -1</clus>
</clustering>
</event>
<event>
 9    1  0.6296820E-005  0.1045877E+03  0.7546771E-02  0.1276602E+00
         21   -1    0    0  501  502  0.00000000000E+00  0.00000000000E+00  0.28529354226E+03  0.28529354226E+03  0.00000000000E+00 0. -1.
         -2   -1    0    0    0  501 -0.00000000000E+00 -0.00000000000E+00 -0.51581751025E+02  0.51581751025E+02  0.00000000000E+00 0.  1.
        -24    2    1    2    0    0  0.40822514979E+02  0.16023021934E+02  0.65731709828E+02  0.11183976125E+03  0.79147075489E+02 0.  0.
         23    2    1    2    0    0 -0.40006424637E+02 -0.50039576411E+02  0.10480004972E+03  0.15327545689E+03  0.91683379310E+02 0.  0.
         13    1    3    3    0    0 -0.88051475466E+01 -0.24719163235E+02  0.17672133143E+02  0.31636560246E+02  0.00000000000E+00 0. -1.
        -14    1    3    3    0    0  0.49627662526E+02  0.40742185169E+02  0.48059576685E+02  0.80203201004E+02  0.00000000000E+00 0.  1.
        -13    1    4    4    0    0  0.65700292221E+01 -0.60614697516E+02  0.40571958447E+02  0.73235173593E+02  0.00000000000E+00 0. -1.
         13    1    4    4    0    0 -0.46576453859E+02  0.10575121105E+02  0.64228091278E+02  0.80040283293E+02  0.00000000000E+00 0.  1.
         -1    1    1    2    0  502 -0.81609034207E+00  0.34016554477E+02  0.63180031685E+02  0.71760075151E+02  0.00000000000E+00 0.  1.
<scales pt_clust_5="13000.00000" pt_clust_6="13000.00000" pt_clust_7="13000.00000" pt_clust_8="13000.00000" pt_clust_9="34.02634"></scales>
<clustering>
<clus scale="   34.026">  1  9  2 -1</clus>
<clus scale="   79.147">  5  6 -1 -1</clus>
<clus scale="   91.683">  7  8 -1 -1</clus>
<clus scale="   93.792">  2  5  1 -1</clus>
<clus scale="   34.026">  1  5  2 -1</clus>
</clustering>
</event>
<event>
 9    1  0.6296820E-005  0.9418820E+02  0.7546771E-02  0.1302048E+00
         21   -1    0    0  501  502  0.00000000000E+00  0.00000000000E+00  0.14417942317E+03  0.14417942317E+03  0.00000000000E+00 0. -1.
         -2   -1    0    0    0  501 -0.00000000000E+00 -0.00000000000E+00 -0.11619695962E+03  0.11619695962E+03  0.00000000000E+00 0.  1.
         23    2    1    2    0    0  0.14020582288E+02 -0.24503682887E+01 -0.52424275716E+02  0.10806246807E+03  0.93416333089E+02 0.  0.
        -24    2    1    2    0    0 -0.41654675008E+01 -0.20829224898E+02  0.16024589519E+02  0.83146552826E+02  0.78774069644E+02 0.  0.
         11    1    4    4    0    0 -0.38144356872E+02 -0.27253084505E+02  0.11511310102E+02  0.48272485294E+02  0.00000000000E+00 0. -1.
        -12    1    4    4    0    0  0.33978889371E+02  0.64238596069E+01  0.45132794173E+01  0.34874067532E+02  0.00000000000E+00 0.  1.
        -11    1    3    3    0    0 -0.61705039029E+01  0.25637366050E+02 -0.65867786574E+02  0.70950087840E+02  0.00000000000E+00 0.  1.
         11    1    3    3    0    0  0.20191086191E+02 -0.28087734339E+02  0.13443510858E+02  0.37112380226E+02  0.00000000000E+00 0. -1.
         -1    1    1    2    0  502 -0.98551147869E+01  0.23279593187E+02  0.64382149741E+02  0.69167361896E+02  0.00000000000E+00 0.  1.
<scales pt_clust_5="13000.00000" pt_clust_6="13000.00000" pt_clust_7="13000.00000" pt_clust_8="13000.00000" pt_clust_9="25.27969"></scales>
<clustering>
<clus scale="   25.280">  1  9  2 -1</clus>
<clus scale="   78.774">  5  6 -1 -1</clus>
<clus scale="   79.688">  1  5  2 -1</clus>
<clus scale="   93.416">  7  8 -1 -1</clus>
<clus scale="   25.280">  1  5  2 -1</clus>
</clustering>
</event>
<event>
 9    1  0.6296820E-005  0.9376000E+02  0.7546771E-02  0.1301677E+00
         21   -1    0    0  501  502  0.00000000000E+00  0.00000000000E+00  0.25153375166E+03  0.25153375166E+03  0.00000000000E+00 0. -1.
         -2   -1    0    0    0  501 -0.00000000000E+00 -0.00000000000E+00 -0.71056112388E+02  0.71056112388E+02  0.00000000000E+00 0.  1.
         23    2    1    2    0    0 -0.27410990159E+02  0.82317202601E+01  0.48823481508E+01  0.97316941663E+02  0.92885016075E+02 0.  0.
        -24    2    1    2    0    0 -0.16136714828E+02  0.21295556020E+02  0.81744569123E+02  0.11768007562E+03  0.80327649949E+02 0.  0.
         13    1    4    4    0    0 -0.22810254844E+02  0.58903439481E+01  0.93991674224E+02  0.96899116102E+02  0.00000000000E+00 0. -1.
        -14    1    4    4    0    0  0.66735400159E+01  0.15405212072E+02 -0.12247105101E+02  0.20780959523E+02  0.00000000000E+00 0.  1.
        -11    1    3    3    0    0 -0.11617889947E+02  0.49153109513E+02 -0.90131104686E+01  0.51305357439E+02  0.00000000000E+00 0. -1.
         11    1    3    3    0    0 -0.15793100211E+02 -0.40921389252E+02  0.13895458619E+02  0.46011584225E+02  0.00000000000E+00 0.  1.
         -1    1    1    2    0  502  0.43547704986E+02 -0.29527276280E+02  0.93850721996E+02  0.10759284676E+03  0.00000000000E+00 0.  1.
<scales pt_clust_5="13000.00000" pt_clust_6="13000.00000" pt_clust_7="13000.00000" pt_clust_8="13000.00000" pt_clust_9="52.61428"></scales>
<clustering>
<clus scale="   52.614">  1  9  2 -1</clus>
<clus scale="   80.328">  5  6 -1 -1</clus>
<clus scale="   81.338">  1  5  2 -1</clus>
<clus scale="   92.885">  7  8 -1 -1</clus>
<clus scale="   52.614">  1  5  2 -1</clus>
</clustering>
</event>
<event>
 9    1  0.6296820E-005  0.2440339E+03  0.7546771E-02  0.1131884E+00
          1   -1    0    0  502    0 -0.00000000000E+00  0.00000000000E+00  0.36075435173E+03  0.36075435173E+03  0.00000000000E+00 0. -1.
         21   -1    0    0  501  502  0.00000000000E+00 -0.00000000000E+00 -0.43272433511E+03  0.43272433511E+03  0.00000000000E+00 0.  1.
         23    2    1    2    0    0  0.10597084325E+03  0.95772415819E+02 -0.46308848530E+02  0.17547955064E+03  0.90809624973E+02 0.  0.
        -24    2    1    2    0    0 -0.13522962018E+03  0.17968277797E+03 -0.18088893098E+03  0.30046597493E+03  0.83582569172E+02 0.  0.
         13    1    4    4    0    0 -0.26015889263E+02  0.66744464907E+02 -0.17385875610E+02  0.73715118942E+02  0.00000000000E+00 0. -1.
        -14    1    4    4    0    0 -0.10921373092E+03  0.11293831306E+03 -0.16350305537E+03  0.22675085599E+03  0.00000000000E+00 0.  1.
        -13    1    3    3    0    0  0.36444824301E+02  0.49976201135E+02 -0.65450898578E+02  0.90053684117E+02  0.00000000000E+00 0.  1.
         13    1    3    3    0    0  0.69526018952E+02  0.45796214684E+02  0.19142050048E+02  0.85425866520E+02  0.00000000000E+00 0. -1.
          2    1    1    2  501    0  0.29258776927E+02 -0.27545519379E+03  0.15522779613E+03  0.31753316127E+03  0.00000000000E+00 0. -1.
<scales pt_clust_5="13000.00000" pt_clust_6="13000.00000" pt_clust_7="13000.00000" pt_clust_8="13000.00000" pt_clust_9="229.27392"></scales>
<clustering>
<clus scale="   83.583">  5  6 -1 -1</clus>
<clus scale="   90.810">  7  8 -1 -1</clus>
<clus scale="  169.259">  1  7  2 -1</clus>
<clus scale="  229.274">  2  9  1 -1</clus>
<clus scale="  229.274">  2  5  1 -1</clus>
</clustering>
</event>
<event>
 9    1  0.6296820E-005  0.1252557E+03  0.7546771E-02  0.1238208E+00
          3   -1    0    0  502    0 -0.00000000000E+00  0.00000000000E+00  0.52588679323E+02  0.52588679323E+02  0.00000000000E+00 0. -1.
         21   -1    0    0  501  502  0.00000000000E+00 -0.00000000000E+00 -0.82886864190E+03  0.82886864190E+03  0.00000000000E+00 0. -1.
         23    2    1    2    0    0 -0.95690752194E+01 -0.83666556475E+02 -0.72405087013E+02  0.14414572364E+03  0.91890332161E+02 0.  0.
        -24    2    1    2    0    0 -0.62208177236E+02  0.88117059197E+02 -0.32302565405E+03  0.34973204386E+03  0.79576729554E+02 0.  0.
         11    1    4    4    0    0 -0.43009037488E+02  0.17531553664E+02 -0.55418592473E+02  0.72307351433E+02  0.00000000000E+00 0. -1.
        -12    1    4    4    0    0 -0.19199139747E+02  0.70585505533E+02 -0.26760706158E+03  0.27742469242E+03  0.00000000000E+00 0.  1.
        -13    1    3    3    0    0 -0.37810087667E+02 -0.54921493484E+02 -0.66283114360E+01  0.67006773452E+02  0.00000000000E+00 0. -1.
         13    1    3    3    0    0  0.28241012448E+02 -0.28745062991E+02 -0.65776775577E+02  0.77138950185E+02  0.00000000000E+00 0.  1.
          4    1    1    2  501    0  0.71777252455E+02 -0.44505027222E+01 -0.38084922151E+03  0.38757955373E+03  0.00000000000E+00 0. -1.
<scales pt_clust_5="13000.00000" pt_clust_6="13000.00000" pt_clust_7="13000.00000" pt_clust_8="13000.00000" pt_clust_9="71.91510"></scales>
<clustering>
<clus scale="   71.915">  2  9  1 -1</clus>
<clus scale="   79.577">  5  6 -1 -1</clus>
<clus scale="   91.890">  7  8 -1 -1</clus>
<clus scale="  116.523">  2  5  1 -1</clus>
<clus scale="   71.915">  2  5  1 -1</clus>
</clustering>
</event>
<event>
 9    1  0.6296820E-005  0.1348839E+03  0.7546771E-02  0.1223386E+00
          1   -1    0    0  502    0 -0.00000000000E+00  0.00000000000E+00  0.82921274701E+03  0.82921274701E+03  0.00000000000E+00 0. -1.
         21   -1    0    0  501  502  0.00000000000E+00 -0.00000000000E+00 -0.61896002931E+02  0.61896002931E+02  0.00000000000E+00 0. -1.
         23    2    1    2    0    0 -0.84379788007E+02 -0.40035867862E+02  0.54051449681E+03  0.55622354213E+03  0.92227372380E+02 0.  0.
        -24    2    1    2    0    0  0.10900135396E+03  0.75615586308E+02  0.65822784597E+02  0.16819230071E+03  0.79730790731E+02 0.  0.
         13    1    4    4    0    0  0.76104725584E+02  0.52688465356E+01  0.41328052987E+02  0.86762307276E+02  0.00000000000E+00 0. -1.
        -14    1    4    4    0    0  0.32896628372E+02  0.70346739772E+02  0.24494731609E+02  0.81429993439E+02  0.00000000000E+00 0.  1.
        -11    1    3    3    0    0 -0.90425133701E+01  0.28197756474E+02  0.12071067851E+03  0.12428977602E+03  0.00000000000E+00 0.  1.
         11    1    3    3    0    0 -0.75337274637E+02 -0.68233624336E+02  0.41980381830E+03  0.43193376611E+03  0.00000000000E+00 0. -1.
          2    1    1    2  501    0 -0.24621565949E+02 -0.35579718446E+02  0.16097946267E+03  0.16669290710E+03  0.00000000000E+00 0. -1.
<scales pt_clust_5="13000.00000" pt_clust_6="13000.00000" pt_clust_7="13000.00000" pt_clust_8="13000.00000" pt_clust_9="43.26823"></scales>
<clustering>
<clus scale="   43.268">  2  9  1 -1</clus>
<clus scale="   79.731">  5  6 -1 -1</clus>
<clus scale="   92.227">  7  8 -1 -1</clus>
<clus scale="  126.668">  2  5  1 -1</clus>
<clus scale="   43.268">  2  5  1 -1</clus>
</clustering>
</event>
<event>
 9    1  0.6296820E-005  0.2080290E+03  0.7546771E-02  0.1144138E+00
         -4   -1    0    0    0  501 -0.00000000000E+00  0.00000000000E+00  0.22713141271E+03  0.22713141271E+03  0.00000000000E+00 0.  1.
         21   -1    0    0  501  502  0.00000000000E+00 -0.00000000000E+00 -0.42307134005E+03  0.42307134005E+03  0.00000000000E+00 0.  1.
        -24    2    1    2    0    0 -0.15017887505E+03  0.13647664379E+03 -0.15838879643E+02  0.21972968880E+03  0.82768938750E+02 0.  0.
         23    2    1    2    0    0  0.13872423985E+02 -0.18574366390E+03 -0.19387315342E+03  0.28488337075E+03  0.94226230344E+02 0.  0.
         11    1    3    3    0    0 -0.61535272312E+02  0.24494559666E+02 -0.36178424761E+02  0.75468215892E+02  0.00000000000E+00 0. -1.
        -12    1    3    3    0    0 -0.88643602742E+02  0.11198208412E+03  0.20339545118E+02  0.14426147291E+03  0.00000000000E+00 0.  1.
        -11    1    4    4    0    0 -0.34606938465E+02 -0.39973422751E+02 -0.68902583608E+02  0.86850911016E+02  0.00000000000E+00 0.  1.
         11    1    4    4    0    0  0.48479362450E+02 -0.14577024115E+03 -0.12497056981E+03  0.19803245973E+03  0.00000000000E+00 0. -1.
         -3    1    1    2    0  502  0.13630645107E+03  0.49267020110E+02  0.13772105728E+02  0.14558969321E+03  0.00000000000E+00 0.  1.
<scales pt_clust_5="13000.00000" pt_clust_6="13000.00000" pt_clust_7="13000.00000" pt_clust_8="13000.00000" pt_clust_9="144.93691"></scales>
<clustering>
<clus scale="   82.769">  5  6 -1 -1</clus>
<clus scale="   94.226">  7  8 -1 -1</clus>
<clus scale="  144.937">  2  9  1 -1</clus>
<clus scale="  203.097">  1  5  2 -1</clus>
<clus scale="  144.937">  2  5  1 -1</clus>
</clustering>
</event>
<event>
 9    1  0.6296820E-005  0.9996279E+02  0.7546771E-02  0.1285415E+00
         -2   -1    0    0    0  501 -0.00000000000E+00  0.00000000000E+00  0.57131272321E+03  0.57131272321E+03  0.00000000000E+00 0.  1.
         21   -1    0    0  501  502  0.00000000000E+00 -0.00000000000E+00 -0.18212956004E+03  0.18212956004E+03  0.00000000000E+00 0.  1.
        -24    2    1    2    0    0 -0.53716408484E+02  0.20166481489E+02  0.38764932678E+03  0.40028038787E+03  0.81610347658E+02 0.  0.
         23    2    1    2    0    0 -0.31356042456E+02 -0.41060313994E+02  0.14854942930E+03  0.18202610512E+03  0.91637433488E+02 0.  0.
         13    1    3    3    0    0 -0.56994682528E+02  0.28803226844E+02  0.15761038512E+03  0.17005602962E+03  0.00000000000E+00 0. -1.
        -14    1    3    3    0    0  0.32782740435E+01 -0.86367453550E+01  0.23003894166E+03  0.23022435825E+03  0.00000000000E+00 0.  1.
        -13    1    4    4    0    0  0.29309502421E+02 -0.81260732339E+01  0.20887512830E+02  0.36896723304E+02  0.00000000000E+00 0. -1.
         13    1    4    4    0    0 -0.60665544876E+02 -0.32934240760E+02  0.12766191647E+03  0.14512938182E+03  0.00000000000E+00 0.  1.
         -1    1    1    2    0  502  0.85072450940E+02  0.20893832505E+02 -0.14701559292E+03  0.17113579025E+03  0.00000000000E+00 0.  1.
<scales pt_clust_5="13000.00000" pt_clust_6="13000.00000" pt_clust_7="13000.00000" pt_clust_8="13000.00000" pt_clust_9="87.60065"></scales>
<clustering>
<clus scale="   81.610">  5  6 -1 -1</clus>
<clus scale="   87.601">  2  9  1 -1</clus>
<clus scale="   90.859">  1  5  2 -1</clus>
<clus scale="   91.637">  7  8 -1 -1</clus>
<clus scale="   87.601">  2  5  1 -1</clus>
</clustering>
</event>
<event>
 9    1  0.6296820E-005  0.9478225E+02  0.7546771E-02  0.1299232E+00
         21   -1    0    0  501  502  0.00000000000E+00  0.00000000000E+00  0.66713380452E+03  0.66713380452E+03  0.00000000000E+00 0.  1.
          1   -1    0    0  502    0 -0.00000000000E+00 -0.00000000000E+00 -0.31150624929E+02  0.31150624929E+02  0.00000000000E+00 0. -1.
         23    2    1    2    0    0  0.99717728483E+01 -0.71643941085E+01  0.64851019923E+02  0.11425314397E+03  0.93259644675E+02 0.  0.
        -24    2    1    2    0    0 -0.25909724992E+02  0.32902191720E+02  0.45787572057E+03  0.46679872370E+03  0.80604000469E+02 0.  0.
         11    1    4    4    0    0 -0.61176316467E+01 -0.26796636353E+02  0.11867783251E+03  0.12181918185E+03  0.00000000000E+00 0. -1.
        -12    1    4    4    0    0 -0.19792093345E+02  0.59698828074E+02  0.33919788806E+03  0.34497954185E+03  0.00000000000E+00 0.  1.
        -13    1    3    3    0    0 -0.19360480542E+02  0.22042369233E+02  0.66649489764E+02  0.72820661450E+02  0.00000000000E+00 0.  1.
         13    1    3    3    0    0  0.29332253390E+02 -0.29206763342E+02 -0.17984698410E+01  0.41432482518E+02  0.00000000000E+00 0. -1.
          2    1    1    2  501    0  0.15937952144E+02 -0.25737797612E+02  0.11325643910E+03  0.11723256178E+03  0.00000000000E+00 0. -1.
<scales pt_clust_5="13000.00000" pt_clust_6="13000.00000" pt_clust_7="13000.00000" pt_clust_8="13000.00000" pt_clust_9="30.27297"></scales>
<clustering>
<clus scale="   30.273">  1  9  2 -1</clus>
<clus scale="   80.604">  5  6 -1 -1</clus>
<clus scale="   82.361">  1  5  2 -1</clus>
<clus scale="   93.260">  7  8 -1 -1</clus>
<clus scale="   30.273">  1  5  2 -1</clus>
</clustering>
</event>
<event>
 9    1  0.6296820E-005  0.2226355E+03  0.7546771E-02  0.1165479E+00
          1   -1    0    0  502    0 -0.00000000000E+00  0.00000000000E+00  0.48559267506E+03  0.48559267506E+03  0.00000000000E+00 0. -1.
         21   -1    0    0  501  502  0.00000000000E+00 -0.00000000000E+00 -0.27408814147E+03  0.27408814147E+03  0.00000000000E+00 0.  1.
         23    2    1    2    0    0 -0.32655834753E+02  0.22878174290E+02  0.18280257092E+03  0.20853624248E+03  0.92091096682E+02 0.  0.
        -24    2    1    2    0    0  0.14479602875E+03 -0.16092527416E+03 -0.16887773874E+03  0.28530597020E+03  0.77569144555E+02 0.  0.
         11    1    4    4    0    0  0.45059170055E+02 -0.16641929989E+02 -0.10910453195E+02  0.49257696137E+02  0.00000000000E+00 0. -1.
        -12    1    4    4    0    0  0.99736858694E+02 -0.14428334417E+03 -0.15796728555E+03  0.23604827407E+03  0.00000000000E+00 0.  1.
        -13    1    3    3    0    0  0.33003673968E+01 -0.32431823757E+02  0.43093183606E+02  0.54034600863E+02  0.00000000000E+00 0.  1.
         13    1    3    3    0    0 -0.35956202150E+02  0.55309998046E+02  0.13970938732E+03  0.15450164161E+03  0.00000000000E+00 0. -1.
          2    1    1    2  501    0 -0.11214019400E+03  0.13804709987E+03  0.19757970141E+03  0.26583860386E+03  0.00000000000E+00 0. -1.
<scales pt_clust_5="13000.00000" pt_clust_6="13000.00000" pt_clust_7="13000.00000" pt_clust_8="13000.00000" pt_clust_9="208.68545"></scales>
<clustering>
<clus scale="   77.569">  5  6 -1 -1</clus>
<clus scale="   92.091">  7  8 -1 -1</clus>
<clus scale="  100.352">  1  7  2 -1</clus>
<clus scale="  208.685">  2  9  1 -1</clus>
<clus scale="  208.685">  2  5  1 -1</clus>
</clustering>
</event>
<event>
 9    1  0.6296820E-005  0.1116979E+03  0.7546771E-02  0.1264184E+00
         21   -1    0    0  501  502  0.00000000000E+00  0.00000000000E+00  0.53001272894E+02  0.53001272894E+02  0.00000000000E+00 0.  1.
          1   -1    0    0  502    0 -0.00000000000E+00 -0.00000000000E+00 -0.40799400355E+03  0.40799400355E+03  0.00000000000E+00 0. -1.
        -24    2    1    2    0    0  0.65491287912E+02 -0.34217002036E+02 -0.19083462382E+03  0.21987261087E+03  0.80412681465E+02 0.  0.
         23    2    1    2    0    0 -0.83981565181E+01  0.18779907576E+02 -0.46216927709E+02  0.10918309126E+03  0.96756028486E+02 0.  0.
         13    1    3    3    0    0  0.47583783431E+02  0.19101229320E+02 -0.71911737826E+02  0.88319711528E+02  0.00000000000E+00 0. -1.
        -14    1    3    3    0    0  0.17907504481E+02 -0.53318231356E+02 -0.11892288599E+03  0.13155289934E+03  0.00000000000E+00 0.  1.
        -13    1    4    4    0    0 -0.37920580621E+02  0.16668091097E+02 -0.62819402025E+02  0.75246747213E+02  0.00000000000E+00 0. -1.
         13    1    4    4    0    0  0.29522424103E+02  0.21118164790E+01  0.16602474315E+02  0.33936344045E+02  0.00000000000E+00 0.  1.
          2    1    1    2  501    0 -0.57093131394E+02  0.15437094460E+02 -0.11794117913E+03  0.13193957432E+03  0.00000000000E+00 0. -1.
<scales pt_clust_5="13000.00000" pt_clust_6="13000.00000" pt_clust_7="13000.00000" pt_clust_8="13000.00000" pt_clust_9="59.14333"></scales>
<clustering>
<clus scale="   59.143">  1  9  2 -1</clus>
<clus scale="   80.413">  5  6 -1 -1</clus>
<clus scale="   96.756">  7  8 -1 -1</clus>
<clus scale="   97.882">  2  5  1 -1</clus>
<clus scale="   59.143">  1  5  2 -1</clus>
</clustering>
</event>
<event>
 9    1  0.6296820E-005  0.9517903E+02  0.7546771E-02  0.1302683E+00
          1   -1    0    0  502    0 -0.00000000000E+00  0.00000000000E+00  0.23646542823E+03  0.23646542823E+03  0.00000000000E+00 0. -1.
         21   -1    0    0  501  502  0.00000000000E+00 -0.00000000000E+00 -0.67029551186E+02  0.67029551186E+02  0.00000000000E+00 0.  1.
        -24    2    1    2    0    0 -0.93751307468E+01  0.14908497473E+02  0.16806847634E+03  0.18483153589E+03  0.74870071100E+02 0.  0.
         23    2    1    2    0    0 -0.12471071156E+02 -0.59111321456E+01  0.51012843395E+00  0.95021446236E+02  0.94012477442E+02 0.  0.
         13    1    3    3    0    0  0.73029290872E+01  0.41410378100E+02  0.67738204896E+02  0.79728392622E+02  0.00000000000E+00 0. -1.
        -14    1    3    3    0    0 -0.16678059834E+02 -0.26501880627E+02  0.10033027144E+03  0.10510314326E+03  0.00000000000E+00 0.  1.
        -13    1    4    4    0    0 -0.24484100229E+02  0.39327141503E+02 -0.91699424642E+01  0.47224814109E+02  0.00000000000E+00 0. -1.
         13    1    4    4    0    0  0.12013029073E+02 -0.45238273648E+02  0.96800708981E+01  0.47796632128E+02  0.00000000000E+00 0.  1.
          2    1    1    2  501    0  0.21846201903E+02 -0.89973653270E+01  0.85727227750E+00  0.23641997297E+02  0.00000000000E+00 0. -1.
<scales pt_clust_5="13000.00000" pt_clust_6="13000.00000" pt_clust_7="13000.00000" pt_clust_8="13000.00000" pt_clust_9="23.62645"></scales>
<clustering>
<clus scale="   23.626">  2  9  1 -1</clus>
<clus scale="   74.870">  5  6 -1 -1</clus>
<clus scale="   76.330">  1  5  2 -1</clus>
<clus scale="   94.012">  7  8 -1 -1</clus>
<clus scale="   23.626">  2  5  1 -1</clus>
</clustering>
</event>
<event>
 9    1  0.6296820E-005  0.1054158E+03  0.7546771E-02  0.1273663E+00
         21   -1    0    0  501  502  0.00000000000E+00  0.00000000000E+00  0.43342939092E+03  0.43342939092E+03  0.00000000000E+00 0.  1.
          3   -1    0    0  502    0 -0.00000000000E+00 -0.00000000000E+00 -0.67416597478E+02  0.67416597478E+02  0.00000000000E+00 0. -1.
         23    2    1    2    0    0  0.52055391916E+01 -0.50542907822E+02 -0.22733437032E+00  0.10399771918E+03  0.90740237741E+02 0.  0.
        -24    2    1    2    0    0 -0.37938242274E+02  0.59873066757E+02  0.19857248833E+03  0.22576080899E+03  0.80702016106E+02 0.  0.
         11    1    4    4    0    0  0.68432263907E+01  0.40294335694E+02  0.31258167474E+02  0.51454215282E+02  0.00000000000E+00 0. -1.
        -12    1    4    4    0    0 -0.44781468665E+02  0.19578731063E+02  0.16731432085E+03  0.17430659370E+03  0.00000000000E+00 0.  1.
        -11    1    3    3    0    0 -0.66063988967E+01  0.22179873289E+02  0.16530326807E+02  0.28440165081E+02  0.00000000000E+00 0.  1.
         11    1    3    3    0    0  0.11811938088E+02 -0.72722781111E+02 -0.16757661177E+02  0.75557554104E+02  0.00000000000E+00 0. -1.
          4    1    1    2  501    0  0.32732703083E+02 -0.93301589347E+01  0.16766763948E+03  0.17108746022E+03  0.00000000000E+00 0. -1.
<scales pt_clust_5="13000.00000" pt_clust_6="13000.00000" pt_clust_7="13000.00000" pt_clust_8="13000.00000" pt_clust_9="34.03648"></scales>
<clustering>
<clus scale="   34.036">  1  9  2 -1</clus>
<clus scale="   80.702">  5  6 -1 -1</clus>
<clus scale="   90.740">  7  8 -1 -1</clus>
<clus scale="   96.910">  1  5  2 -1</clus>
<clus scale="   34.036">  1  5  2 -1</clus>
</clustering>
</event>
<event>
 9    1  0.6296820E-005  0.1134319E+03  0.7546771E-02  0.1258837E+00
         21   -1    0    0  501  502  0.00000000000E+00  0.00000000000E+00  0.28204295156E+03  0.28204295156E+03  0.00000000000E+00 0.  1.
          1   -1    0    0  502    0 -0.00000000000E+00 -0.00000000000E+00 -0.17391426209E+03  0.17391426209E+03  0.00000000000E+00 0. -1.
         23    2    1    2    0    0  0.63924555175E+02  0.37730882378E+02 -0.13094784803E+03  0.17571331207E+03  0.90652418038E+02 0.  0.
        -24    2    1    2    0    0 -0.30438491752E+02  0.11159817648E+02  0.16414761882E+03  0.18471401176E+03  0.78254597752E+02 0.  0.
         11    1    4    4    0    0 -0.14831568636E+02  0.36305126511E+02  0.36142227528E+02  0.53331962742E+02  0.00000000000E+00 0. -1.
        -12    1    4    4    0    0 -0.15606923116E+02 -0.25145308862E+02  0.12800539129E+03  0.13138204902E+03  0.00000000000E+00 0.  1.
        -11    1    3    3    0    0 -0.41694775887E+00 -0.26203319624E+02 -0.34337412902E+02  0.43195436443E+02  0.00000000000E+00 0.  1.
         11    1    3    3    0    0  0.64341502933E+02  0.63934202002E+02 -0.96610435126E+02  0.13251787563E+03  0.00000000000E+00 0. -1.
          2    1    1    2  501    0 -0.33486063422E+02 -0.48890700027E+02  0.74928918684E+02  0.95529889813E+02  0.00000000000E+00 0. -1.
<scales pt_clust_5="13000.00000" pt_clust_6="13000.00000" pt_clust_7="13000.00000" pt_clust_8="13000.00000" pt_clust_9="59.25890"></scales>
<clustering>
<clus scale="   59.259">  1  9  2 -1</clus>
<clus scale="   78.255">  5  6 -1 -1</clus>
<clus scale="   90.652">  7  8 -1 -1</clus>
<clus scale="  103.792">  1  5  2 -1</clus>
<clus scale="   59.259">  1  5  2 -1</clus>
</clustering>
</event>
<event>
 9    1  0.6296820E-005  0.9485024E+02  0.7546771E-02  0.1294983E+00
          1   -1    0    0  502    0 -0.00000000000E+00  0.00000000000E+00  0.24203592867E+03  0.24203592867E+03  0.00000000000E+00 0. -1.
         21   -1    0    0  501  502  0.00000000000E+00 -0.00000000000E+00 -0.16491362156E+03  0.16491362156E+03  0.00000000000E+00 0. -1.
         23    2    1    2    0    0  0.14287131042E+02  0.15180837592E+02  0.11892511084E+03  0.15010736753E+03  0.89187778618E+02 0.  0.
        -24    2    1    2    0    0  0.11229969984E+02 -0.59691948920E+02  0.76375549232E+02  0.12800707652E+03  0.82845314456E+02 0.  0.
         11    1    4    4    0    0  0.18120316284E+02 -0.79043111471E+02  0.67973808763E+02  0.10581397833E+03  0.00000000000E+00 0. -1.
        -12    1    4    4    0    0 -0.68903463007E+01  0.19351162551E+02  0.84017404693E+01  0.22193098187E+02  0.00000000000E+00 0.  1.
        -13    1    3    3    0    0 -0.32145595252E+02  0.87989093135E+00  0.15203425945E+02  0.35570460535E+02  0.00000000000E+00 0.  1.
         13    1    3    3    0    0  0.46432726295E+02  0.14300946661E+02  0.10372168489E+03  0.11453690699E+03  0.00000000000E+00 0. -1.
          2    1    1    2  501    0 -0.25517101026E+02  0.44511111328E+02 -0.11817835296E+03  0.12883510618E+03  0.00000000000E+00 0. -1.
<scales pt_clust_5="13000.00000" pt_clust_6="13000.00000" pt_clust_7="13000.00000" pt_clust_8="13000.00000" pt_clust_9="51.30654"></scales>
<clustering>
<clus scale="   51.307">  2  9  1 -1</clus>
<clus scale="   82.845">  5  6 -1 -1</clus>
<clus scale="   88.913">  2  5  1 -1</clus>
<clus scale="   89.188">  7  8 -1 -1</clus>
<clus scale="   51.307">  2  5  1 -1</clus>
</clustering>
</event>
<event>
 9    1  0.6296820E-005  0.9825211E+02  0.7546771E-02  0.1286315E+00
         21   -1    0    0  501  502  0.00000000000E+00  0.00000000000E+00  0.28178680108E+03  0.28178680108E+03  0.00000000000E+00 0. -1.
          1   -1    0    0  502    0 -0.00000000000E+00 -0.00000000000E+00 -0.52753655667E+02  0.52753655667E+02  0.00000000000E+00 0. -1.
        -24    2    1    2    0    0 -0.31140993046E+01 -0.37387503742E+02  0.73647983193E+02  0.12678880519E+03  0.96144956403E+02 0.  0.
         23    2    1    2    0    0  0.35874609202E+00 -0.44573802436E+01  0.12816056212E+03  0.15775400024E+03  0.91875992357E+02 0.  0.
         11    1    3    3    0    0  0.36270240120E+02 -0.49740490410E+02  0.38782359671E+02  0.72757942015E+02  0.00000000000E+00 0. -1.
        -12    1    3    3    0    0 -0.39384339424E+02  0.12352986668E+02  0.34865623522E+02  0.54030863172E+02  0.00000000000E+00 0.  1.
        -13    1    4    4    0    0  0.71267022932E+01  0.35139049221E+02  0.10594932326E+03  0.11185169540E+03  0.00000000000E+00 0. -1.
         13    1    4    4    0    0 -0.67679562012E+01 -0.39596429465E+02  0.22211238859E+02  0.45902304835E+02  0.00000000000E+00 0.  1.
          2    1    1    2  501    0  0.27553532126E+01  0.41844883986E+02  0.27224600106E+02  0.49997651325E+02  0.00000000000E+00 0. -1.
<scales pt_clust_5="13000.00000" pt_clust_6="13000.00000" pt_clust_7="13000.00000" pt_clust_8="13000.00000" pt_clust_9="41.93552"></scales>
<clustering>
<clus scale="   41.936">  1  9  2 -1</clus>
<clus scale="   91.876">  7  8 -1 -1</clus>
<clus scale="   94.079">  1  7  2 -1</clus>
<clus scale="   96.145">  5  6 -1 -1</clus>
<clus scale="   41.936">  1  5  2 -1</clus>
</clustering>
</event>
<event>
 9    1  0.6296820E-005  0.1337661E+03  0.7546771E-02  0.1223798E+00
          3   -1    0    0  502    0 -0.00000000000E+00  0.00000000000E+00  0.76359497952E+03  0.76359497952E+03  0.00000000000E+00 0. -1.
         21   -1    0    0  501  502  0.00000000000E+00 -0.00000000000E+00 -0.32122130175E+02  0.32122130175E+02  0.00000000000E+00 0.  1.
        -24    2    1    2    0    0  0.86985729356E+02  0.58323380055E+02  0.49543569698E+03  0.51314522924E+03  0.83026277073E+02 0.  0.
         23    2    1    2    0    0 -0.78712558445E+02 -0.37842951742E+02  0.22518540386E+03  0.25796184700E+03  0.90598523945E+02 0.  0.
         11    1    3    3    0    0  0.98137915954E+02  0.30925590642E+02  0.41075382386E+03  0.42344556500E+03  0.00000000000E+00 0. -1.
        -12    1    3    3    0    0 -0.11152186597E+02  0.27397789413E+02  0.84681873119E+02  0.89699664245E+02  0.00000000000E+00 0.  1.
        -11    1    4    4    0    0 -0.39012134420E+02  0.31832089482E+01  0.18050373149E+02  0.43103311034E+02  0.00000000000E+00 0.  1.
         11    1    4    4    0    0 -0.39700424024E+02 -0.41026160691E+02  0.20713503071E+03  0.21485853596E+03  0.00000000000E+00 0. -1.
          4    1    1    2  501    0 -0.82731709116E+01 -0.20480428313E+02  0.10851748506E+02  0.24610033451E+02  0.00000000000E+00 0. -1.
<scales pt_clust_5="13000.00000" pt_clust_6="13000.00000" pt_clust_7="13000.00000" pt_clust_8="13000.00000" pt_clust_9="22.08831"></scales>
<clustering>
<clus scale="   22.088">  2  9  1 -1</clus>
<clus scale="   83.026">  5  6 -1 -1</clus>
<clus scale="   90.599">  7  8 -1 -1</clus>
<clus scale="  128.758">  1  5  2 -1</clus>
<clus scale="   22.088">  2  5  1 -1</clus>
</clustering>
</event>
<event>
 9    1  0.6296820E-005  0.9813963E+02  0.7546771E-02  0.1293130E+00
         21   -1    0    0  501  502  0.00000000000E+00  0.00000000000E+00  0.11433291221E+03  0.11433291221E+03  0.00000000000E+00 0.  1.
          1   -1    0    0  502    0 -0.00000000000E+00 -0.00000000000E+00 -0.12827358666E+03  0.12827358666E+03  0.00000000000E+00 0. -1.
        -24    2    1    2    0    0 -0.38731617889E+02 -0.12326223299E+02 -0.23159995656E+02  0.93117030178E+02  0.80512867949E+02 0.  0.
         23    2    1    2    0    0 -0.11464600490E+02 -0.92851463088E+00  0.12529012840E+02  0.97467334211E+02  0.95971901470E+02 0.  0.
         11    1    3    3    0    0 -0.59129971334E+02 -0.25573139971E+02 -0.24082594585E+02  0.68777251761E+02  0.00000000000E+00 0. -1.
        -12    1    3    3    0    0  0.20398353445E+02  0.13246916672E+02  0.92259892920E+00  0.24339778417E+02  0.00000000000E+00 0.  1.
        -13    1    4    4    0    0 -0.45918492906E+01  0.43888311826E+02  0.24634521871E+02  0.50538388010E+02  0.00000000000E+00 0.  1.
         13    1    4    4    0    0 -0.68727511996E+01 -0.44816826457E+02 -0.12105509031E+02  0.46928946202E+02  0.00000000000E+00 0. -1.
          2    1    1    2  501    0  0.50196218379E+02  0.13254737930E+02 -0.33096916393E+01  0.52022134480E+02  0.00000000000E+00 0. -1.
<scales pt_clust_5="13000.00000" pt_clust_6="13000.00000" pt_clust_7="13000.00000" pt_clust_8="13000.00000" pt_clust_9="51.91677"></scales>
<clustering>
<clus scale="   51.917">  1  9  2 -1</clus>
<clus scale="   80.513">  5  6 -1 -1</clus>
<clus scale="   83.085">  2  5  1 -1</clus>
<clus scale="   95.972">  7  8 -1 -1</clus>
<clus scale="   51.917">  1  5  2 -1</clus>
</clustering>
</event>
<event>
 9    1  0.6296820E-005  0.1241560E+03  0.7546771E-02  0.1240995E+00
          1   -1    0    0  502    0 -0.00000000000E+00  0.00000000000E+00  0.51835264716E+03  0.51835264716E+03  0.00000000000E+00 0. -1.
         21   -1    0    0  501  502  0.00000000000E+00 -0.00000000000E+00 -0.51079160473E+02  0.51079160473E+02  0.00000000000E+00 0. -1.
        -24    2    1    2    0    0 -0.46113094237E+02  0.10675513094E+03  0.26878084825E+03  0.30245257860E+03  0.75573424385E+02 0.  0.
         23    2    1    2    0    0  0.47934963490E+01 -0.43463591330E+02  0.95263251893E+02  0.13903613855E+03  0.91344946682E+02 0.  0.
         13    1    3    3    0    0 -0.28794530546E+02  0.81355526606E+02  0.25415716513E+03  0.26840959611E+03  0.00000000000E+00 0. -1.
        -14    1    3    3    0    0 -0.17318563691E+02  0.25399604329E+02  0.14623683118E+02  0.34042982483E+02  0.00000000000E+00 0.  1.
        -11    1    4    4    0    0 -0.23618044392E+02 -0.54936638634E+02  0.29920728077E+02  0.66866256467E+02  0.00000000000E+00 0.  1.
         11    1    4    4    0    0  0.28411540741E+02  0.11473047304E+02  0.65342523816E+02  0.72169882087E+02  0.00000000000E+00 0. -1.
          2    1    1    2  501    0  0.41319597888E+02 -0.63291539605E+02  0.10322938654E+03  0.12794309048E+03  0.00000000000E+00 0. -1.
<scales pt_clust_5="13000.00000" pt_clust_6="13000.00000" pt_clust_7="13000.00000" pt_clust_8="13000.00000" pt_clust_9="75.58524"></scales>
<clustering>
<clus scale="   75.573">  5  6 -1 -1</clus>
<clus scale="   75.585">  2  9  1 -1</clus>
<clus scale="   91.345">  7  8 -1 -1</clus>
<clus scale="  113.058">  1  5  2 -1</clus>
<clus scale="   75.585">  2  5  1 -1</clus>
</clustering>
</event>
<event>
 9    1  0.6296820E-005  0.9668389E+02  0.7546771E-02  0.1293008E+00
         21   -1    0    0  501  502  0.00000000000E+00  0.00000000000E+00  0.65868837136E+02  0.65868837136E+02  0.00000000000E+00 0.  1.
          3   -1    0    0  502    0 -0.00000000000E+00 -0.00000000000E+00 -0.45369729433E+03  0.45369729433E+03  0.00000000000E+00 0. -1.
         23    2    1    2    0    0 -0.31728059270E+02  0.81879260364E+01 -0.39587813115E+03  0.40757015104E+03  0.91215247761E+02 0.  0.
        -24    2    1    2    0    0  0.30377988486E+02  0.12694443836E+02 -0.46134966727E+01  0.87536790878E+02  0.80977986619E+02 0.  0.
         13    1    4    4    0    0  0.17291393691E+02 -0.23293500317E+02 -0.29890072755E+02  0.41653282009E+02  0.00000000000E+00 0. -1.
        -14    1    4    4    0    0  0.13086594796E+02  0.35987944153E+02  0.25276576082E+02  0.45883508869E+02  0.00000000000E+00 0.  1.
        -13    1    3    3    0    0  0.18923026595E+02 -0.23070450483E+02 -0.66920586419E+02  0.73271355301E+02  0.00000000000E+00 0.  1.
         13    1    3    3    0    0 -0.50651085865E+02  0.31258376519E+02 -0.32895754473E+03  0.33429879574E+03  0.00000000000E+00 0. -1.
          4    1    1    2  501    0  0.13500707834E+01 -0.20882369873E+02  0.12663170629E+02  0.24459189541E+02  0.00000000000E+00 0. -1.
<scales pt_clust_5="13000.00000" pt_clust_6="13000.00000" pt_clust_7="13000.00000" pt_clust_8="13000.00000" pt_clust_9="20.92597"></scales>
<clustering>
<clus scale="   20.926">  1  9  2 -1</clus>
<clus scale="   80.978">  5  6 -1 -1</clus>
<clus scale="   87.092">  1  5  2 -1</clus>
<clus scale="   91.215">  7  8 -1 -1</clus>
<clus scale="   20.926">  1  5  2 -1</clus>
</clustering>
</event>
<event>
 9    1  0.6296820E-005  0.1033555E+03  0.7546771E-02  0.1278033E+00
          1   -1    0    0  502    0 -0.00000000000E+00  0.00000000000E+00  0.66693254856E+03  0.66693254856E+03  0.00000000000E+00 0. -1.
         21   -1    0    0  501  502  0.00000000000E+00 -0.00000000000E+00 -0.12746174771E+03  0.12746174771E+03  0.00000000000E+00 0. -1.
         23    2    1    2    0    0 -0.40716660792E+02  0.66306930017E+01  0.47516713726E+03  0.48552583988E+03  0.90827970940E+02 0.  0.
        -24    2    1    2    0    0  0.71604836014E+02 -0.27299221508E+02  0.16642276050E+03  0.20019657689E+03  0.80682303834E+02 0.  0.
         11    1    4    4    0    0  0.35473223904E+02 -0.54600840094E+02  0.11025695262E+03  0.12804763549E+03  0.00000000000E+00 0. -1.
        -12    1    4    4    0    0  0.36131612110E+02  0.27301618586E+02  0.56165807878E+02  0.72148941404E+02  0.00000000000E+00 0.  1.
        -11    1    3    3    0    0  0.27775791106E+02 -0.44528850004E+01  0.94931730190E+02  0.99011899049E+02  0.00000000000E+00 0.  1.
         11    1    3    3    0    0 -0.68492451898E+02  0.11083578002E+02  0.38023540707E+03  0.38651394083E+03  0.00000000000E+00 0. -1.
          2    1    1    2  501    0 -0.30888175222E+02  0.20668528506E+02 -0.10211909691E+03  0.10867187950E+03  0.00000000000E+00 0. -1.
<scales pt_clust_5="13000.00000" pt_clust_6="13000.00000" pt_clust_7="13000.00000" pt_clust_8="13000.00000" pt_clust_9="37.16541"></scales>
<clustering>
<clus scale="   37.165">  2  9  1 -1</clus>
<clus scale="   80.682">  5  6 -1 -1</clus>
<clus scale="   90.828">  7  8 -1 -1</clus>
<clus scale="   94.564">  2  5  1 -1</clus>
<clus scale="   37.165">  2  5  1 -1</clus>
</clustering>
</event>
<event>
 9    1  0.6296820E-005  0.9697523E+02  0.7546771E-02  0.1293341E+00
         21   -1    0    0  501  502  0.00000000000E+00  0.00000000000E+00  0.99568648124E+02  0.99568648124E+02  0.00000000000E+00 0. -1.
          1   -1    0    0  502    0 -0.00000000000E+00 -0.00000000000E+00 -0.37769441307E+03  0.37769441307E+03  0.00000000000E+00 0. -1.
         23    2    1    2    0    0  0.55405468099E+01  0.32396172538E+02 -0.29337155547E+03  0.30941651516E+03  0.92690348161E+02 0.  0.
        -24    2    1    2    0    0 -0.18372968579E+02 -0.11548554043E+02 -0.50421018485E+02  0.97764993174E+02  0.80899812795E+02 0.  0.
         11    1    4    4    0    0  0.38415879545E+01  0.30514664557E+02 -0.37448012709E+02  0.48458809384E+02  0.00000000000E+00 0. -1.
        -12    1    4    4    0    0 -0.22214556534E+02 -0.42063218600E+02 -0.12973005776E+02  0.49306183789E+02  0.00000000000E+00 0.  1.
        -11    1    3    3    0    0  0.12200241344E+02 -0.31340404374E+02 -0.11817941585E+03  0.12287164508E+03  0.00000000000E+00 0.  1.
         11    1    3    3    0    0 -0.66596945346E+01  0.63736576911E+02 -0.17519213963E+03  0.18654487008E+03  0.00000000000E+00 0. -1.
          2    1    1    2  501    0  0.12832421769E+02 -0.20847618495E+02  0.65666809010E+02  0.70081552858E+02  0.00000000000E+00 0. -1.
<scales pt_clust_5="13000.00000" pt_clust_6="13000.00000" pt_clust_7="13000.00000" pt_clust_8="13000.00000" pt_clust_9="24.48049"></scales>
<clustering>
<clus scale="   24.480">  1  9  2 -1</clus>
<clus scale="   80.900">  5  6 -1 -1</clus>
<clus scale="   85.776">  1  5  2 -1</clus>
<clus scale="   92.690">  7  8 -1 -1</clus>
<clus scale="   24.480">  1  5  2 -1</clus>
</clustering>
</event>
<event>
 9    1  0.6296820E-005  0.1352995E+03  0.7546771E-02  0.1236693E+00
         21   -1    0    0  501  502  0.00000000000E+00  0.00000000000E+00  0.21970043894E+03  0.21970043894E+03  0.00000000000E+00 0. -1.
         -4   -1    0    0    0  501 -0.00000000000E+00 -0.00000000000E+00 -0.17483108919E+03  0.17483108919E+03  0.00000000000E+00 0.  1.
        -24    2    1    2    0    0 -0.19537066019E+01  0.47627574554E+02 -0.12517508403E+03  0.15717586961E+03  0.82238977977E+02 0.  0.
         23    2    1    2    0    0 -0.20874983869E+02 -0.55484356914E+02  0.15630550655E+03  0.20957731696E+03  0.12640000630E+03 0.  0.
         11    1    3    3    0    0  0.29196354624E+02  0.19255387363E+02 -0.10458832702E+03  0.11028107369E+03  0.00000000000E+00 0. -1.
        -12    1    3    3    0    0 -0.31150061226E+02  0.28372187191E+02 -0.20586757017E+02  0.46894795925E+02  0.00000000000E+00 0.  1.
        -13    1    4    4    0    0  0.37441688999E+02 -0.34679363539E+02  0.11822324189E+02  0.52386121061E+02  0.00000000000E+00 0.  1.
         13    1    4    4    0    0 -0.58316672868E+02 -0.20804993375E+02  0.14448318236E+03  0.15719119590E+03  0.00000000000E+00 0. -1.
         -3    1    1    2    0  502  0.22828690471E+02  0.78567823599E+01  0.13738927236E+02  0.27778341550E+02  0.00000000000E+00 0.  1.
<scales pt_clust_5="13000.00000" pt_clust_6="13000.00000" pt_clust_7="13000.00000" pt_clust_8="13000.00000" pt_clust_9="24.14287"></scales>
<clustering>
<clus scale="   24.143">  1  9  2 -1</clus>
<clus scale="   82.239">  5  6 -1 -1</clus>
<clus scale="   95.353">  2  5  1 -1</clus>
<clus scale="  126.400">  7  8 -1 -1</clus>
<clus scale="   24.143">  1  5  2 -1</clus>
</clustering>
</event>
<event>
 9    1  0.6296820E-005  0.9506049E+02  0.7546771E-02  0.1296433E+00
         21   -1    0    0  501  502  0.00000000000E+00  0.00000000000E+00  0.89918930847E+02  0.89918930847E+02  0.00000000000E+00 0. -1.
          1   -1    0    0  502    0 -0.00000000000E+00 -0.00000000000E+00 -0.37309127879E+03  0.37309127879E+03  0.00000000000E+00 0. -1.
        -24    2    1    2    0    0 -0.28728622964E+02 -0.64928354870E+01 -0.26627485281E+03  0.27991078885E+03  0.81118812788E+02 0.  0.
         23    2    1    2    0    0  0.11361625265E+02  0.24626695539E+02  0.53240355533E+02  0.10860265853E+03  0.90688705589E+02 0.  0.
         13    1    3    3    0    0 -0.36238161543E+02 -0.23111219905E+02 -0.25472262837E+03  0.25832334436E+03  0.00000000000E+00 0. -1.
        -14    1    3    3    0    0  0.75095385791E+01  0.16618384418E+02 -0.11552224440E+02  0.21587444495E+02  0.00000000000E+00 0.  1.
        -11    1    4    4    0    0  0.45767891920E+02 -0.88749063678E+01  0.27175903816E+02  0.53962891342E+02  0.00000000000E+00 0. -1.
         11    1    4    4    0    0 -0.34406266654E+02  0.33501601906E+02  0.26064451717E+02  0.54639767191E+02  0.00000000000E+00 0.  1.
          2    1    1    2  501    0  0.17366997698E+02 -0.18133860052E+02 -0.70137850667E+02  0.74496762249E+02  0.00000000000E+00 0. -1.
<scales pt_clust_5="13000.00000" pt_clust_6="13000.00000" pt_clust_7="13000.00000" pt_clust_8="13000.00000" pt_clust_9="25.10877"></scales>
<clustering>
<clus scale="   25.109">  1  9  2 -1</clus>
<clus scale="   81.119">  5  6 -1 -1</clus>
<clus scale="   85.979">  2  5  1 -1</clus>
<clus scale="   90.689">  7  8 -1 -1</clus>
<clus scale="   25.109">  1  5  2 -1</clus>
</clustering>
</event>
<event>
 9    1  0.6296820E-005  0.1030645E+03  0.7546771E-02  0.1278931E+00
          3   -1    0    0  502    0 -0.00000000000E+00  0.00000000000E+00  0.81436995614E+02  0.81436995614E+02  0.00000000000E+00 0. -1.
         21   -1    0    0  501  502  0.00000000000E+00 -0.00000000000E+00 -0.28376844357E+03  0.28376844357E+03  0.00000000000E+00 0. -1.
         23    2    1    2    0    0 -0.51145051108E+02 -0.24205563577E+01  0.21452015720E+02  0.10713432419E+03  0.91629138896E+02 0.  0.
        -24    2    1    2    0    0  0.25767619088E+02  0.18258070701E+02 -0.20518619547E+03  0.22284755326E+03  0.81008208490E+02 0.  0.
         13    1    4    4    0    0  0.39271026734E+01 -0.31367403334E+02 -0.93436049462E+02  0.98638894288E+02  0.00000000000E+00 0. -1.
        -14    1    4    4    0    0  0.21840516415E+02  0.49625474035E+02 -0.11175014601E+03  0.12420865897E+03  0.00000000000E+00 0.  1.
        -11    1    3    3    0    0  0.11236751149E+02  0.31109997250E+02 -0.19505348767E+00  0.33077704744E+02  0.00000000000E+00 0.  1.
         11    1    3    3    0    0 -0.62381802257E+02 -0.33530553608E+02  0.21647069208E+02  0.74056619444E+02  0.00000000000E+00 0. -1.
          4    1    1    2  501    0  0.25377432020E+02 -0.15837514343E+02 -0.18597268198E+02  0.35223561730E+02  0.00000000000E+00 0. -1.
<scales pt_clust_5="13000.00000" pt_clust_6="13000.00000" pt_clust_7="13000.00000" pt_clust_8="13000.00000" pt_clust_9="29.91391"></scales>
<clustering>
<clus scale="   29.914">  2  9  1 -1</clus>
<clus scale="   81.008">  5  6 -1 -1</clus>
<clus scale="   91.629">  7  8 -1 -1</clus>
<clus scale="   93.748">  2  5  1 -1</clus>
<clus scale="   29.914">  2  5  1 -1</clus>
</clustering>
</event>
<event>
 9    1  0.6296820E-005  0.9263400E+02  0.7546771E-02  0.1303171E+00
          1   -1    0    0  502    0 -0.00000000000E+00  0.00000000000E+00  0.48710505996E+03  0.48710505996E+03  0.00000000000E+00 0. -1.
         21   -1    0    0  501  502  0.00000000000E+00 -0.00000000000E+00 -0.63616134479E+02  0.63616134479E+02  0.00000000000E+00 0.  1.
         23    2    1    2    0    0 -0.20273533156E+01 -0.20498924538E+02  0.40401733685E+03  0.41465539427E+03  0.91020719905E+02 0.  0.
        -24    2    1    2    0    0  0.25661039304E+02 -0.16504592059E+02 -0.46615757627E+01  0.85963694649E+02  0.80231764358E+02 0.  0.
         13    1    4    4    0    0 -0.17826062178E+02 -0.28586036968E+02  0.14820217635E+02  0.36804467841E+02  0.00000000000E+00 0. -1.
        -14    1    4    4    0    0  0.43487101482E+02  0.12081444910E+02 -0.19481793397E+02  0.49159226808E+02  0.00000000000E+00 0.  1.
        -11    1    3    3    0    0 -0.38122261361E+01 -0.56011141184E+02  0.28335898383E+03  0.28886691524E+03  0.00000000000E+00 0. -1.
         11    1    3    3    0    0  0.17848728205E+01  0.35512216646E+02  0.12065835302E+03  0.12578847903E+03  0.00000000000E+00 0.  1.
          2    1    1    2  501    0 -0.23633685988E+02  0.37003516596E+02  0.24133164393E+02  0.50102105520E+02  0.00000000000E+00 0. -1.
<scales pt_clust_5="13000.00000" pt_clust_6="13000.00000" pt_clust_7="13000.00000" pt_clust_8="13000.00000" pt_clust_9="43.90685"></scales>
<clustering>
<clus scale="   43.907">  2  9  1 -1</clus>
<clus scale="   80.232">  5  6 -1 -1</clus>
<clus scale="   82.057">  2  5  1 -1</clus>
<clus scale="   91.021">  7  8 -1 -1</clus>
<clus scale="   43.907">  2  5  1 -1</clus>
</clustering>
</event>
<event>
 9    1  0.6296820E-005  0.1023215E+03  0.7546771E-02  0.1276101E+00
         -4   -1    0    0    0  501 -0.00000000000E+00  0.00000000000E+00  0.21459127745E+03  0.21459127745E+03  0.00000000000E+00 0.  1.
         21   -1    0    0  501  502  0.00000000000E+00 -0.00000000000E+00 -0.17985676688E+03  0.17985676688E+03  0.00000000000E+00 0.  1.
         23    2    1    2    0    0  0.89145314076E+01 -0.23480437980E+02  0.53507092607E+02  0.10580494324E+03  0.87754642140E+02 0.  0.
        -24    2    1    2    0    0 -0.20726141098E+02  0.78927697732E+02  0.10112173171E+03  0.15602123560E+03  0.86358942452E+02 0.  0.
         11    1    4    4    0    0  0.33000172897E+02  0.23668468205E+02  0.45419967224E+02  0.60927672047E+02  0.00000000000E+00 0. -1.
        -12    1    4    4    0    0 -0.53726313994E+02  0.55259229527E+02  0.55701764486E+02  0.95093563558E+02  0.00000000000E+00 0.  1.
        -11    1    3    3    0    0 -0.23477555573E+02  0.97217263068E+01 -0.98752959768E+01  0.27262227508E+02  0.00000000000E+00 0. -1.
         11    1    3    3    0    0  0.32392086980E+02 -0.33202164287E+02  0.63382388583E+02  0.78542715733E+02  0.00000000000E+00 0.  1.
         -3    1    1    2    0  502  0.11811609690E+02 -0.55447259752E+02 -0.11989431374E+03  0.13262186549E+03  0.00000000000E+00 0.  1.
<scales pt_clust_5="13000.00000" pt_clust_6="13000.00000" pt_clust_7="13000.00000" pt_clust_8="13000.00000" pt_clust_9="56.69138"></scales>
<clustering>
<clus scale="   56.691">  2  9  1 -1</clus>
<clus scale="   86.359">  5  6 -1 -1</clus>
<clus scale="   87.755">  7  8 -1 -1</clus>
<clus scale="  101.127">  2  5  1 -1</clus>
<clus scale="   56.691">  2  5  1 -1</clus>
</clustering>
</event>
<event>
 9    1  0.6296820E-005  0.3038271E+03  0.7546771E-02  0.1111984E+00
         21   -1    0    0  501  502  0.00000000000E+00  0.00000000000E+00  0.55783784279E+03  0.55783784279E+03  0.00000000000E+00 0.  1.
         -2   -1    0    0    0  501 -0.00000000000E+00 -0.00000000000E+00 -0.26895767186E+03  0.26895767186E+03  0.00000000000E+00 0.  1.
        -24    2    1    2    0    0  0.43166527229E+01  0.11943687497E+03 -0.10628903678E+01  0.14402248451E+03  0.80358855857E+02 0.  0.
         23    2    1    2    0    0  0.27849159835E+03  0.20971613008E+01  0.58830632290E+02  0.29785228026E+03  0.87709572575E+02 0.  0.
         13    1    3    3    0    0 -0.30861895296E+02  0.37174269269E+02  0.19697923941E+02  0.52176537683E+02  0.00000000000E+00 0. -1.
        -14    1    3    3    0    0  0.35178548019E+02  0.82262605704E+02 -0.20760814309E+02  0.91845946828E+02  0.00000000000E+00 0.  1.
        -13    1    4    4    0    0  0.20855554327E+03 -0.33064706756E+02  0.60160745358E+02  0.21956321354E+03  0.00000000000E+00 0.  1.
         13    1    4    4    0    0  0.69936055083E+02  0.35161868056E+02 -0.13301130678E+01  0.78289066711E+02  0.00000000000E+00 0. -1.
         -1    1    1    2    0  502 -0.28280825107E+03 -0.12153403627E+03  0.23111242901E+03  0.38492074988E+03  0.00000000000E+00 0.  1.
<scales pt_clust_5="13000.00000" pt_clust_6="13000.00000" pt_clust_7="13000.00000" pt_clust_8="13000.00000" pt_clust_9="290.89159"></scales>
<clustering>
<clus scale="   80.359">  5  6 -1 -1</clus>
<clus scale="   87.710">  7  8 -1 -1</clus>
<clus scale="  144.019">  2  5  1 -1</clus>
<clus scale="  290.892">  1  9  2 -1</clus>
<clus scale="  290.892">  1  5  2 -1</clus>
</clustering>
</event>
<event>
 9    1  0.6296820E-005  0.4243674E+03  0.7546771E-02  0.1035866E+00
          1   -1    0    0  502    0 -0.00000000000E+00  0.00000000000E+00  0.12058888613E+04  0.12058888613E+04  0.00000000000E+00 0. -1.
         21   -1    0    0  501  502  0.00000000000E+00 -0.00000000000E+00 -0.25010560708E+03  0.25010560708E+03  0.00000000000E+00 0.  1.
         23    2    1    2    0    0 -0.14936630490E+03 -0.36665521082E+03  0.52458092525E+03  0.66379467700E+03  0.93230303155E+02 0.  0.
        -24    2    1    2    0    0  0.10351919435E+03  0.45121190223E+03  0.14724797832E+03  0.49239674792E+03  0.80400161271E+02 0.  0.
         11    1    4    4    0    0  0.56177355454E+02  0.12050729429E+03  0.66684971144E+02  0.14874403725E+03  0.00000000000E+00 0. -1.
        -12    1    4    4    0    0  0.47341838895E+02  0.33070460794E+03  0.80563007181E+02  0.34365271067E+03  0.00000000000E+00 0.  1.
        -13    1    3    3    0    0 -0.10937140503E+03 -0.34327122738E+03  0.47016531884E+03  0.59232817494E+03  0.00000000000E+00 0. -1.
         13    1    3    3    0    0 -0.39994899870E+02 -0.23383983440E+02  0.54415606401E+02  0.71466502063E+02  0.00000000000E+00 0.  1.
          2    1    1    2  501    0  0.45847110556E+02 -0.84556691410E+02  0.28395435066E+03  0.29980304346E+03  0.00000000000E+00 0. -1.
<scales pt_clust_5="13000.00000" pt_clust_6="13000.00000" pt_clust_7="13000.00000" pt_clust_8="13000.00000" pt_clust_9="96.18628"></scales>
<clustering>
<clus scale="   80.400">  5  6 -1 -1</clus>
<clus scale="   93.230">  7  8 -1 -1</clus>
<clus scale="   96.186">  2  9  1 -1</clus>
<clus scale="  421.734">  2  5  1 -1</clus>
<clus scale="   96.186">  2  5  1 -1</clus>
</clustering>
</event>
<event>
 9    1  0.6296820E-005  0.1225854E+03  0.7546771E-02  0.1240845E+00
         21   -1    0    0  501  502  0.00000000000E+00  0.00000000000E+00  0.63811953814E+02  0.63811953814E+02  0.00000000000E+00 0. -1.
          1   -1    0    0  502    0 -0.00000000000E+00 -0.00000000000E+00 -0.77776899615E+03  0.77776899615E+03  0.00000000000E+00 0. -1.
         23    2    1    2    0    0 -0.55259019672E+02 -0.57665109066E+02 -0.49303275255E+03  0.50700101780E+03  0.87120106196E+02 0.  0.
        -24    2    1    2    0    0  0.54609668832E+02  0.85492826401E+02 -0.25776512381E+03  0.28840579915E+03  0.80273324568E+02 0.  0.
         11    1    4    4    0    0 -0.85337213281E+01  0.52316729994E+02 -0.15074884673E+03  0.15979699443E+03  0.00000000000E+00 0. -1.
        -12    1    4    4    0    0  0.63143390160E+02  0.33176096407E+02 -0.10701627708E+03  0.12860880473E+03  0.00000000000E+00 0.  1.
        -11    1    3    3    0    0 -0.15774178921E+02  0.15674842825E+02 -0.35077204233E+02  0.41532344925E+02  0.00000000000E+00 0.  1.
         11    1    3    3    0    0 -0.39484840751E+02 -0.73339951891E+02 -0.45795554832E+03  0.46546867287E+03  0.00000000000E+00 0. -1.
          2    1    1    2  501    0  0.64935083973E+00 -0.27827717335E+02  0.36840834018E+02  0.46174133015E+02  0.00000000000E+00 0. -1.
<scales pt_clust_5="13000.00000" pt_clust_6="13000.00000" pt_clust_7="13000.00000" pt_clust_8="13000.00000" pt_clust_9="27.83529"></scales>
<clustering>
<clus scale="   27.835">  1  9  2 -1</clus>
<clus scale="   80.273">  5  6 -1 -1</clus>
<clus scale="   87.120">  7  8 -1 -1</clus>
<clus scale="  117.818">  1  5  2 -1</clus>
<clus scale="   27.835">  1  5  2 -1</clus>
</clustering>
</event>
<event>
 9    1  0.6296820E-005  0.1635969E+03  0.7546771E-02  0.1185192E+00
          1   -1    0    0  502    0 -0.00000000000E+00  0.00000000000E+00  0.97691746844E+03  0.97691746844E+03  0.00000000000E+00 0. -1.
         21   -1    0    0  501  502  0.00000000000E+00 -0.00000000000E+00 -0.43337685781E+02  0.43337685781E+02  0.00000000000E+00 0. -1.
         23    2    1    2    0    0 -0.12557524182E+03 -0.24256572966E+02  0.62561515453E+03  0.64507649666E+03  0.91497772002E+02 0.  0.
        -24    2    1    2    0    0  0.15168010947E+03  0.44227052263E+02  0.26896373584E+03  0.32417518946E+03  0.88233635882E+02 0.  0.
         13    1    4    4    0    0  0.16188319438E+03  0.32851962195E+02  0.23882217954E+03  0.29038156533E+03  0.00000000000E+00 0. -1.
        -14    1    4    4    0    0 -0.10203084904E+02  0.11375090068E+02  0.30141556304E+02  0.33793624133E+02  0.00000000000E+00 0.  1.
        -13    1    3    3    0    0 -0.14730565094E+02 -0.19826366372E+02  0.28367011644E+02  0.37613318135E+02  0.00000000000E+00 0.  1.
         13    1    3    3    0    0 -0.11084467672E+03 -0.44302065947E+01  0.59724814288E+03  0.60746317853E+03  0.00000000000E+00 0. -1.
          2    1    1    2  501    0 -0.26104867656E+02 -0.19970479297E+02  0.39000892284E+02  0.51003468094E+02  0.00000000000E+00 0. -1.
<scales pt_clust_5="13000.00000" pt_clust_6="13000.00000" pt_clust_7="13000.00000" pt_clust_8="13000.00000" pt_clust_9="32.86768"></scales>
<clustering>
<clus scale="   32.868">  2  9  1 -1</clus>
<clus scale="   88.234">  5  6 -1 -1</clus>
<clus scale="   91.498">  7  8 -1 -1</clus>
<clus scale="  161.794">  2  5  1 -1</clus>
<clus scale="   32.868">  2  5  1 -1</clus>
</clustering>
</event>
<event>
 9    1  0.6296820E-005  0.9604805E+02  0.7546771E-02  0.1294464E+00
         -2   -1    0    0    0  501 -0.00000000000E+00  0.00000000000E+00  0.16758659494E+03  0.16758659494E+03  0.00000000000E+00 0.  1.
         21   -1    0    0  501  502  0.00000000000E+00 -0.00000000000E+00 -0.90139475630E+02  0.90139475630E+02  0.00000000000E+00 0. -1.
        -24    2    1    2    0    0 -0.17681427648E+02  0.10051787018E+02  0.29013880888E+02  0.86020248252E+02  0.78383713354E+02 0.  0.
         23    2    1    2    0    0  0.63785415413E+02  0.17882536327E+02  0.32541488629E+02  0.11550571716E+03  0.88849636403E+02 0.  0.
         11    1    3    3    0    0  0.17151736315E+02  0.17546314441E+02  0.41545680509E+02  0.48250375937E+02  0.00000000000E+00 0. -1.
        -12    1    3    3    0    0 -0.34833163963E+02 -0.74945274224E+01 -0.12531799621E+02  0.37769872315E+02  0.00000000000E+00 0.  1.
        -13    1    4    4    0    0  0.65642524480E+02 -0.22404208717E+02  0.12526214183E+02  0.70482590972E+02  0.00000000000E+00 0. -1.
         13    1    4    4    0    0 -0.18571090674E+01  0.40286745044E+02  0.20015274446E+02  0.45023126185E+02  0.00000000000E+00 0.  1.
         -1    1    1    2    0  502 -0.46103987765E+02 -0.27934323345E+02  0.15891749792E+02  0.56200105160E+02  0.00000000000E+00 0.  1.
<scales pt_clust_5="13000.00000" pt_clust_6="13000.00000" pt_clust_7="13000.00000" pt_clust_8="13000.00000" pt_clust_9="53.90644"></scales>
<clustering>
<clus scale="   53.906">  2  9  1 -1</clus>
<clus scale="   78.384">  5  6 -1 -1</clus>
<clus scale="   86.458">  1  5  2 -1</clus>
<clus scale="   88.850">  7  8 -1 -1</clus>
<clus scale="   53.906">  2  5  1 -1</clus>
</clustering>
</event>
<event>
 9    1  0.6296820E-005  0.1146490E+03  0.7546771E-02  0.1258287E+00
         21   -1    0    0  501  502  0.00000000000E+00  0.00000000000E+00  0.79529713316E+02  0.79529713316E+02  0.00000000000E+00 0.  1.
          1   -1    0    0  502    0 -0.00000000000E+00 -0.00000000000E+00 -0.41272709137E+03  0.41272709137E+03  0.00000000000E+00 0. -1.
         23    2    1    2    0    0  0.40041125144E+02  0.55469021733E+02 -0.29056676257E+03  0.31299466187E+03  0.94109036607E+02 0.  0.
        -24    2    1    2    0    0 -0.51809302859E+02 -0.21520957757E+02  0.28145046176E+02  0.99888624957E+02  0.77706101988E+02 0.  0.
         11    1    4    4    0    0 -0.19628366844E+02 -0.29275771733E+02 -0.20705851776E+02  0.40878795154E+02  0.00000000000E+00 0. -1.
        -12    1    4    4    0    0 -0.32180936015E+02  0.77548139758E+01  0.48850897953E+02  0.59009829803E+02  0.00000000000E+00 0.  1.
        -11    1    3    3    0    0  0.43771172548E+02  0.28843102046E+01 -0.49103133610E+02  0.65843393912E+02  0.00000000000E+00 0.  1.
         11    1    3    3    0    0 -0.37300474040E+01  0.52584711528E+02 -0.24146362896E+03  0.24715126796E+03  0.00000000000E+00 0. -1.
          2    1    1    2  501    0  0.11768177715E+02 -0.33948063976E+02 -0.70775661655E+02  0.79373517858E+02  0.00000000000E+00 0. -1.
<scales pt_clust_5="13000.00000" pt_clust_6="13000.00000" pt_clust_7="13000.00000" pt_clust_8="13000.00000" pt_clust_9="35.92996"></scales>
<clustering>
<clus scale="   35.930">  1  9  2 -1</clus>
<clus scale="   77.706">  5  6 -1 -1</clus>
<clus scale="   94.109">  7  8 -1 -1</clus>
<clus scale="  101.618">  1  5  2 -1</clus>
<clus scale="   35.930">  1  5  2 -1</clus>
</clustering>
</event>
<event>
 9    1  0.6296820E-005  0.8512858E+02  0.7546771E-02  0.1318312E+00
         21   -1    0    0  501  502  0.00000000000E+00  0.00000000000E+00  0.10800537213E+03  0.10800537213E+03  0.00000000000E+00 0.  1.
          1   -1    0    0  502    0 -0.00000000000E+00 -0.00000000000E+00 -0.21380440170E+03  0.21380440170E+03  0.00000000000E+00 0. -1.
         23    2    1    2    0    0  0.16437461350E+02 -0.18786851049E+00 -0.94445735543E+02  0.12802536288E+03  0.84854411485E+02 0.  0.
        -24    2    1    2    0    0  0.55593900997E+02 -0.33164720408E+02  0.25800156873E+02  0.10614143483E+03  0.80061074091E+02 0.  0.
         13    1    4    4    0    0  0.73784194059E+02 -0.12203539266E+02  0.14519796220E+02  0.76183056816E+02  0.00000000000E+00 0. -1.
        -14    1    4    4    0    0 -0.18190293062E+02 -0.20961181142E+02  0.11280360653E+02  0.29958378010E+02  0.00000000000E+00 0.  1.
        -11    1    3    3    0    0  0.13973769059E+02 -0.39009828392E+02 -0.72113031633E+02  0.83170441048E+02  0.00000000000E+00 0. -1.
         11    1    3    3    0    0  0.24636922910E+01  0.38821959881E+02 -0.22332703911E+02  0.44854921834E+02  0.00000000000E+00 0.  1.
          2    1    1    2  501    0 -0.72031362347E+02  0.33352588918E+02 -0.37153450901E+02  0.87642976119E+02  0.00000000000E+00 0. -1.
<scales pt_clust_5="13000.00000" pt_clust_6="13000.00000" pt_clust_7="13000.00000" pt_clust_8="13000.00000" pt_clust_9="79.37833"></scales>
<clustering>
<clus scale="   79.378">  1  9  2 -1</clus>
<clus scale="   80.061">  5  6 -1 -1</clus>
<clus scale="   80.352">  1  5  2 -1</clus>
<clus scale="   84.854">  7  8 -1 -1</clus>
<clus scale="   79.378">  1  5  2 -1</clus>
</clustering>
</event>
<event>
 9    1  0.6296820E-005  0.1569402E+03  0.7546771E-02  0.1194248E+00
          3   -1    0    0  502    0 -0.00000000000E+00  0.00000000000E+00  0.19467584416E+03  0.19467584416E+03  0.00000000000E+00 0. -1.
         21   -1    0    0  501  502  0.00000000000E+00 -0.00000000000E+00 -0.39671647906E+03  0.39671647906E+03  0.00000000000E+00 0. -1.
         23    2    1    2    0    0 -0.10348066617E+03 -0.72715828993E+02  0.13661143079E+03  0.20779975659E+03  0.92315847817E+02 0.  0.
        -24    2    1    2    0    0  0.12100143570E+03  0.54782656391E+02 -0.28857698693E+03  0.32759176703E+03  0.79982507792E+02 0.  0.
         13    1    4    4    0    0  0.12663185736E+03  0.45638160133E+02 -0.28665086543E+03  0.31668152395E+03  0.00000000000E+00 0. -1.
        -14    1    4    4    0    0 -0.56304216601E+01  0.91444962578E+01 -0.19261214993E+01  0.10910243073E+02  0.00000000000E+00 0.  1.
        -13    1    3    3    0    0  0.17167000408E+02 -0.11156426455E+02  0.24850682728E+02  0.32198263716E+02  0.00000000000E+00 0.  1.
         13    1    3    3    0    0 -0.12064766658E+03 -0.61559402538E+02  0.11176074806E+03  0.17560149287E+03  0.00000000000E+00 0. -1.
          4    1    1    2  501    0 -0.17520769536E+02  0.17933172602E+02 -0.50075078755E+02  0.56000799611E+02  0.00000000000E+00 0. -1.
<scales pt_clust_5="13000.00000" pt_clust_6="13000.00000" pt_clust_7="13000.00000" pt_clust_8="13000.00000" pt_clust_9="25.07142"></scales>
<clustering>
<clus scale="   25.071">  2  9  1 -1</clus>
<clus scale="   79.983">  5  6 -1 -1</clus>
<clus scale="   92.316">  7  8 -1 -1</clus>
<clus scale="  150.017">  2  5  1 -1</clus>
<clus scale="   25.071">  2  5  1 -1</clus>
</clustering>
</event>
<event>
 9    1  0.6296820E-005  0.9500906E+02  0.7546771E-02  0.1297285E+00
         -2   -1    0    0    0  501 -0.00000000000E+00  0.00000000000E+00  0.13980262056E+03  0.13980262056E+03  0.00000000000E+00 0.  1.
         21   -1    0    0  501  502  0.00000000000E+00 -0.00000000000E+00 -0.13792603816E+03  0.13792603816E+03  0.00000000000E+00 0. -1.
         23    2    1    2    0    0 -0.19792702498E+02  0.21502247971E+02  0.46292947064E+02  0.10708518499E+03  0.92033157913E+02 0.  0.
        -24    2    1    2    0    0 -0.63181855469E+00 -0.62890491914E+01 -0.88068240641E+02  0.12010548057E+03  0.81420882570E+02 0.  0.
         11    1    4    4    0    0  0.29465374450E+02 -0.28508806207E+02 -0.29121214880E+02  0.50289218317E+02  0.00000000000E+00 0. -1.
        -12    1    4    4    0    0 -0.30097193005E+02  0.22219757016E+02 -0.58947025761E+02  0.69816262251E+02  0.00000000000E+00 0.  1.
        -13    1    3    3    0    0 -0.56195897196E+02  0.79260792191E+01  0.34785482726E+02  0.66564490548E+02  0.00000000000E+00 0. -1.
         13    1    3    3    0    0  0.36403194698E+02  0.13576168751E+02  0.11507464338E+02  0.40520694437E+02  0.00000000000E+00 0.  1.
         -1    1    1    2    0  502  0.20424521052E+02 -0.15213198779E+02  0.43651875974E+02  0.50537993167E+02  0.00000000000E+00 0.  1.
<scales pt_clust_5="13000.00000" pt_clust_6="13000.00000" pt_clust_7="13000.00000" pt_clust_8="13000.00000" pt_clust_9="25.46769"></scales>
<clustering>
<clus scale="   25.468">  2  9  1 -1</clus>
<clus scale="   81.421">  5  6 -1 -1</clus>
<clus scale="   84.770">  2  5  1 -1</clus>
<clus scale="   92.033">  7  8 -1 -1</clus>
<clus scale="   25.468">  2  5  1 -1</clus>
</clustering>
</event>
<event>
 9    1  0.6296820E-005  0.1318243E+03  0.7546771E-02  0.1227000E+00
         21   -1    0    0  501  502  0.00000000000E+00  0.00000000000E+00  0.99101419292E+02  0.99101419292E+02  0.00000000000E+00 0.  1.
         -2   -1    0    0    0  501 -0.00000000000E+00 -0.00000000000E+00 -0.99714860732E+03  0.99714860732E+03  0.00000000000E+00 0.  1.
        -24    2    1    2    0    0 -0.12752867991E+03 -0.35694553140E+02 -0.70388831993E+03  0.72076459071E+03  0.80654590558E+02 0.  0.
         23    2    1    2    0    0  0.54082026785E+02 -0.66972561419E-01 -0.25365735051E+03  0.27442423174E+03  0.89675734693E+02 0.  0.
         11    1    3    3    0    0 -0.54453221350E+02 -0.54536498852E+02 -0.42028446552E+03  0.42729195521E+03  0.00000000000E+00 0. -1.
        -12    1    3    3    0    0 -0.73075458557E+02  0.18841945711E+02 -0.28360385440E+03  0.29347263551E+03  0.00000000000E+00 0.  1.
        -11    1    4    4    0    0  0.72549251623E+02  0.21414213085E+02 -0.19834464930E+03  0.21227944399E+03  0.00000000000E+00 0.  1.
         11    1    4    4    0    0 -0.18467224838E+02 -0.21481185647E+02 -0.55312701207E+02  0.62144787752E+02  0.00000000000E+00 0. -1.
         -1    1    1    2    0  502  0.73446653121E+02  0.35761525702E+02  0.59498482412E+02  0.10106120415E+03  0.00000000000E+00 0.  1.
<scales pt_clust_5="13000.00000" pt_clust_6="13000.00000" pt_clust_7="13000.00000" pt_clust_8="13000.00000" pt_clust_9="81.69025"></scales>
<clustering>
<clus scale="   80.655">  5  6 -1 -1</clus>
<clus scale="   81.690">  1  9  2 -1</clus>
<clus scale="   89.676">  7  8 -1 -1</clus>
<clus scale="  125.861">  2  5  1 -1</clus>
<clus scale="   81.690">  1  5  2 -1</clus>
</clustering>
</event>
<event>
 9    1  0.6296820E-005  0.9733158E+02  0.7546771E-02  0.1297829E+00
         21   -1    0    0  501  502  0.00000000000E+00  0.00000000000E+00  0.13730231254E+03  0.13730231254E+03  0.00000000000E+00 0. -1.
          1   -1    0    0  502    0 -0.00000000000E+00 -0.00000000000E+00 -0.17135999401E+03  0.17135999401E+03  0.00000000000E+00 0. -1.
        -24    2    1    2    0    0  0.15243397686E+01  0.23377625774E+02 -0.85262459982E+02  0.11689034331E+03  0.76451476622E+02 0.  0.
         23    2    1    2    0    0 -0.79146893366E+01  0.34943891383E+02  0.76468161137E+02  0.12789337189E+03  0.96050075764E+02 0.  0.
         11    1    3    3    0    0  0.84421926637E+01  0.49935818347E+02 -0.66741317810E+02  0.83781024546E+02  0.00000000000E+00 0. -1.
        -12    1    3    3    0    0 -0.69178528952E+01 -0.26558192574E+02 -0.18521142172E+02  0.33109318761E+02  0.00000000000E+00 0.  1.
        -11    1    4    4    0    0 -0.17325311565E+02  0.57218238262E+02  0.14705313290E+02  0.61565732754E+02  0.00000000000E+00 0.  1.
         11    1    4    4    0    0  0.94106222283E+01 -0.22274346879E+02  0.61762847847E+02  0.66327639139E+02  0.00000000000E+00 0. -1.
          2    1    1    2  501    0  0.63903495680E+01 -0.58321517157E+02 -0.25263382627E+02  0.63878591350E+02  0.00000000000E+00 0. -1.
<scales pt_clust_5="13000.00000" pt_clust_6="13000.00000" pt_clust_7="13000.00000" pt_clust_8="13000.00000" pt_clust_9="58.67060"></scales>
<clustering>
<clus scale="   58.671">  1  9  2 -1</clus>
<clus scale="   76.451">  5  6 -1 -1</clus>
<clus scale="   78.055">  2  5  1 -1</clus>
<clus scale="   96.050">  7  8 -1 -1</clus>
<clus scale="   58.671">  1  5  2 -1</clus>
</clustering>
</event>
<event>
 9    1  0.6296820E-005  0.9684239E+02  0.7546771E-02  0.1292621E+00
         -4   -1    0    0    0  501 -0.00000000000E+00  0.00000000000E+00  0.33154673628E+03  0.33154673628E+03  0.00000000000E+00 0.  1.
         21   -1    0    0  501  502  0.00000000000E+00 -0.00000000000E+00 -0.10849851554E+03  0.10849851554E+03  0.00000000000E+00 0. -1.
         23    2    1    2    0    0  0.19444583139E+02  0.20287398416E+02  0.25248337307E+03  0.26974094749E+03  0.90678854927E+02 0.  0.
        -24    2    1    2    0    0 -0.24359137989E+02 -0.68623767729E+02  0.82898676373E+01  0.10879223577E+03  0.80401738518E+02 0.  0.
         13    1    4    4    0    0 -0.23250240505E+02 -0.85043883012E+02 -0.39949408854E+01  0.88255284680E+02  0.00000000000E+00 0. -1.
        -14    1    4    4    0    0 -0.11088974845E+01  0.16420115282E+02  0.12284808523E+02  0.20536951087E+02  0.00000000000E+00 0.  1.
        -13    1    3    3    0    0  0.54965157046E+02  0.21692635442E+02  0.16772587259E+03  0.17783055771E+03  0.00000000000E+00 0.  1.
         13    1    3    3    0    0 -0.35520573907E+02 -0.14052370256E+01  0.84757500482E+02  0.91910389781E+02  0.00000000000E+00 0. -1.
         -3    1    1    2    0  502  0.49145548498E+01  0.48336369313E+02 -0.37725019962E+02  0.61512068563E+02  0.00000000000E+00 0.  1.
<scales pt_clust_5="13000.00000" pt_clust_6="13000.00000" pt_clust_7="13000.00000" pt_clust_8="13000.00000" pt_clust_9="48.58557"></scales>
<clustering>
<clus scale="   48.586">  2  9  1 -1</clus>
<clus scale="   80.402">  5  6 -1 -1</clus>
<clus scale="   87.294">  2  5  1 -1</clus>
<clus scale="   90.679">  7  8 -1 -1</clus>
<clus scale="   48.586">  2  5  1 -1</clus>
</clustering>
</event>
<event>
 9    1  0.6296820E-005  0.9439273E+02  0.7546771E-02  0.1294565E+00
          3   -1    0    0  502    0 -0.00000000000E+00  0.00000000000E+00  0.21470177014E+03  0.21470177014E+03  0.00000000000E+00 0. -1.
         21   -1    0    0  501  502  0.00000000000E+00 -0.00000000000E+00 -0.96821901493E+02  0.96821901493E+02  0.00000000000E+00 0.  1.
        -24    2    1    2    0    0  0.21532634638E+02  0.19818281070E+02  0.62776981988E+02  0.10530940633E+03  0.79326559079E+02 0.  0.
         23    2    1    2    0    0 -0.15198723272E+02 -0.90777121874E+02  0.16606566767E+02  0.12523746512E+03  0.83289600587E+02 0.  0.
         13    1    3    3    0    0  0.34023917962E+02  0.43822627291E+02  0.52442808404E+02  0.76343289224E+02  0.00000000000E+00 0. -1.
        -14    1    3    3    0    0 -0.12491283324E+02 -0.24004346221E+02  0.10334173584E+02  0.28966117107E+02  0.00000000000E+00 0.  1.
        -13    1    4    4    0    0  0.28384929673E+02 -0.69256745144E+02  0.16430002985E+02  0.76629928739E+02  0.00000000000E+00 0.  1.
         13    1    4    4    0    0 -0.43583652945E+02 -0.21520376730E+02  0.17656378176E+00  0.48607536385E+02  0.00000000000E+00 0. -1.
          4    1    1    2  501    0 -0.63339113653E+01  0.70958840805E+02  0.38496319888E+02  0.80976800175E+02  0.00000000000E+00 0. -1.
<scales pt_clust_5="13000.00000" pt_clust_6="13000.00000" pt_clust_7="13000.00000" pt_clust_8="13000.00000" pt_clust_9="71.24100"></scales>
<clustering>
<clus scale="   71.241">  2  9  1 -1</clus>
<clus scale="   79.327">  5  6 -1 -1</clus>
<clus scale="   83.290">  7  8 -1 -1</clus>
<clus scale="   90.915">  1  5  2 -1</clus>
<clus scale="   71.241">  2  5  1 -1</clus>
</clustering>
</event>
<event>
 9    1  0.6296820E-005  0.1331752E+03  0.7546771E-02  0.1225353E+00
         21   -1    0    0  501  502  0.00000000000E+00  0.00000000000E+00  0.57202429549E+03  0.57202429549E+03  0.00000000000E+00 0.  1.
          1   -1    0    0  502    0 -0.00000000000E+00 -0.00000000000E+00 -0.16637168934E+03  0.16637168934E+03  0.00000000000E+00 0. -1.
        -24    2    1    2    0    0  0.19509149257E+02 -0.94696871797E+02 -0.10264639131E+03  0.16315280445E+03  0.82063704025E+02 0.  0.
         23    2    1    2    0    0 -0.11454376153E+03  0.63222616736E+02  0.23648988377E+03  0.28558406945E+03  0.92268212417E+02 0.  0.
         13    1    3    3    0    0 -0.61191671510E+01 -0.10008387577E+03 -0.76249238039E+02  0.12596893544E+03  0.00000000000E+00 0. -1.
        -14    1    3    3    0    0  0.25628316408E+02  0.53870039681E+01 -0.26397153269E+02  0.37183869008E+02  0.00000000000E+00 0.  1.
        -13    1    4    4    0    0 -0.12595062402E+03  0.36736575582E+02  0.19681046621E+03  0.23653222885E+03  0.00000000000E+00 0.  1.
         13    1    4    4    0    0  0.11406862485E+02  0.26486041153E+02  0.39679417566E+02  0.49051840598E+02  0.00000000000E+00 0. -1.
          2    1    1    2  501    0  0.95034612278E+02  0.31474255061E+02  0.27180911369E+03  0.28965911093E+03  0.00000000000E+00 0. -1.
<scales pt_clust_5="13000.00000" pt_clust_6="13000.00000" pt_clust_7="13000.00000" pt_clust_8="13000.00000" pt_clust_9="100.11097"></scales>
<clustering>
<clus scale="   82.064">  5  6 -1 -1</clus>
<clus scale="   92.268">  7  8 -1 -1</clus>
<clus scale="  100.111">  1  9  2 -1</clus>
<clus scale="  126.320">  2  5  1 -1</clus>
<clus scale="  100.111">  1  5  2 -1</clus>
</clustering>
</event>
<event>
 9    1  0.6296820E-005  0.2031102E+03  0.7546771E-02  0.1150028E+00
         -4   -1    0    0    0  501 -0.00000000000E+00  0.00000000000E+00  0.46981170268E+03  0.46981170268E+03  0.00000000000E+00 0.  1.
         21   -1    0    0  501  502  0.00000000000E+00 -0.00000000000E+00 -0.12022857668E+03  0.12022857668E+03  0.00000000000E+00 0.  1.
        -24    2    1    2    0    0 -0.16623738100E+03  0.31104202911E+02  0.21992340984E+03  0.28258713183E+03  0.53729345818E+02 0.  0.
         23    2    1    2    0    0  0.20819275670E+03 -0.47804925947E+02  0.95567273569E+02  0.25087168112E+03  0.90409964732E+02 0.  0.
         13    1    3    3    0    0 -0.19372915774E+02  0.20936289875E+02  0.51674416046E+02  0.59024430307E+02  0.00000000000E+00 0. -1.
        -14    1    3    3    0    0 -0.14686446523E+03  0.10167913036E+02  0.16824899379E+03  0.22356270153E+03  0.00000000000E+00 0.  1.
        -11    1    4    4    0    0  0.72626930497E+02 -0.51542900717E+02  0.69038738218E+02  0.11268402292E+03  0.00000000000E+00 0. -1.
         11    1    4    4    0    0  0.13556582620E+03  0.37379747695E+01  0.26528535350E+02  0.13818765819E+03  0.00000000000E+00 0.  1.
         -3    1    1    2    0  502 -0.41955375697E+02  0.16700723036E+02  0.34092442587E+02  0.56581466412E+02  0.00000000000E+00 0.  1.
<scales pt_clust_5="13000.00000" pt_clust_6="13000.00000" pt_clust_7="13000.00000" pt_clust_8="13000.00000" pt_clust_9="45.15717"></scales>
<clustering>
<clus scale="   45.157">  2  9  1 -1</clus>
<clus scale="   53.729">  5  6 -1 -1</clus>
<clus scale="   90.410">  7  8 -1 -1</clus>
<clus scale="  189.649">  1  5  2 -1</clus>
<clus scale="   45.157">  2  5  1 -1</clus>
</clustering>
</event>
<event>
 9    1  0.6296820E-005  0.9590255E+02  0.7546771E-02  0.1296976E+00
          1   -1    0    0  502    0 -0.00000000000E+00  0.00000000000E+00  0.10365612604E+03  0.10365612604E+03  0.00000000000E+00 0. -1.
         21   -1    0    0  501  502  0.00000000000E+00 -0.00000000000E+00 -0.14473820069E+03  0.14473820069E+03  0.00000000000E+00 0.  1.
         23    2    1    2    0    0  0.30124210293E+02 -0.24678772711E+02  0.22594799480E+02  0.10295091039E+03  0.92584313566E+02 0.  0.
        -24    2    1    2    0    0 -0.15513130388E+02 -0.10156342937E+02 -0.12963021405E+02  0.82206846259E+02  0.79032380273E+02 0.  0.
         11    1    4    4    0    0  0.20080176237E+02 -0.32348192590E+02  0.73832115970E+00  0.38081020991E+02  0.00000000000E+00 0. -1.
        -12    1    4    4    0    0 -0.35593306625E+02  0.22191849654E+02 -0.13701342565E+02  0.44125825268E+02  0.00000000000E+00 0.  1.
        -13    1    3    3    0    0  0.26268145939E+02  0.33141492478E+02  0.12770487334E+02  0.44175325256E+02  0.00000000000E+00 0.  1.
         13    1    3    3    0    0  0.38560643537E+01 -0.57820265189E+02  0.98243121453E+01  0.58775585135E+02  0.00000000000E+00 0. -1.
          2    1    1    2  501    0 -0.14611079905E+02  0.34835115647E+02 -0.50713852723E+02  0.63236570085E+02  0.00000000000E+00 0. -1.
<scales pt_clust_5="13000.00000" pt_clust_6="13000.00000" pt_clust_7="13000.00000" pt_clust_8="13000.00000" pt_clust_9="37.77524"></scales>
<clustering>
<clus scale="   37.775">  2  9  1 -1</clus>
<clus scale="   79.032">  5  6 -1 -1</clus>
<clus scale="   82.895">  2  5  1 -1</clus>
<clus scale="   92.584">  7  8 -1 -1</clus>
<clus scale="   37.775">  2  5  1 -1</clus>
</clustering>
</event>
<event>
 9    1  0.6296820E-005  0.1208581E+03  0.7546771E-02  0.1249837E+00
          1   -1    0    0  502    0 -0.00000000000E+00  0.00000000000E+00  0.13805943902E+03  0.13805943902E+03  0.00000000000E+00 0. -1.
         21   -1    0    0  501  502  0.00000000000E+00 -0.00000000000E+00 -0.20318019959E+03  0.20318019959E+03  0.00000000000E+00 0.  1.
         23    2    1    2    0    0 -0.49210677882E+02  0.15016176766E+02 -0.21824179961E+02  0.10487958139E+03  0.88748269731E+02 0.  0.
        -24    2    1    2    0    0  0.15597871602E+02  0.84671345873E+02 -0.56255659772E+02  0.13036307307E+03  0.80108059222E+02 0.  0.
         11    1    4    4    0    0 -0.50855253253E+01  0.40893379850E+02  0.15307267997E+02  0.43959567070E+02  0.00000000000E+00 0. -1.
        -12    1    4    4    0    0  0.20683396927E+02  0.43777966023E+02 -0.71562927770E+02  0.86403505997E+02  0.00000000000E+00 0.  1.
        -13    1    3    3    0    0 -0.64987263716E+02 -0.10759381059E+02 -0.31678025850E+02  0.73093132700E+02  0.00000000000E+00 0.  1.
         13    1    3    3    0    0  0.15776585835E+02  0.25775557825E+02  0.98538458891E+01  0.31786448694E+02  0.00000000000E+00 0. -1.
          2    1    1    2  501    0  0.33612806280E+02 -0.99687522639E+02  0.12959079156E+02  0.10599698415E+03  0.00000000000E+00 0. -1.
<scales pt_clust_5="13000.00000" pt_clust_6="13000.00000" pt_clust_7="13000.00000" pt_clust_8="13000.00000" pt_clust_9="90.49523"></scales>
<clustering>
<clus scale="   80.108">  5  6 -1 -1</clus>
<clus scale="   88.748">  7  8 -1 -1</clus>
<clus scale="  102.584">  1  7  2 -1</clus>
<clus scale="   90.495">  2  9  1 -1</clus>
<clus scale="   90.495">  2  5  1 -1</clus>
</clustering>
</event>
<event>
 9    1  0.6296820E-005  0.1309679E+03  0.7546771E-02  0.1229999E+00
          1   -1    0    0  502    0 -0.00000000000E+00  0.00000000000E+00  0.73877085188E+03  0.73877085188E+03  0.00000000000E+00 0. -1.
         21   -1    0    0  501  502  0.00000000000E+00 -0.00000000000E+00 -0.16086483868E+03  0.16086483868E+03  0.00000000000E+00 0.  1.
        -24    2    1    2    0    0  0.51321728699E+01 -0.89042842978E+02  0.68317616413E+03  0.69362163985E+03  0.80164461882E+02 0.  0.
         23    2    1    2    0    0  0.88751429729E+01  0.11246269180E+03 -0.75752147315E+02  0.16581446421E+03  0.95023278767E+02 0.  0.
         13    1    3    3    0    0  0.27411936523E+02 -0.65574003818E+02  0.27058780546E+03  0.27976619650E+03  0.00000000000E+00 0. -1.
        -14    1    3    3    0    0 -0.22279763654E+02 -0.23468839160E+02  0.41258835867E+03  0.41385544335E+03  0.00000000000E+00 0.  1.
        -13    1    4    4    0    0  0.29803016380E+02  0.10035508411E+03 -0.22139870419E+02  0.10700250723E+03  0.00000000000E+00 0.  1.
         13    1    4    4    0    0 -0.20927873407E+02  0.12107607695E+02 -0.53612276896E+02  0.58811956976E+02  0.00000000000E+00 0. -1.
          2    1    1    2  501    0 -0.14007315843E+02 -0.23419848827E+02 -0.29518003625E+02  0.40199586493E+02  0.00000000000E+00 0. -1.
<scales pt_clust_5="13000.00000" pt_clust_6="13000.00000" pt_clust_7="13000.00000" pt_clust_8="13000.00000" pt_clust_9="27.28909"></scales>
<clustering>
<clus scale="   27.289">  2  9  1 -1</clus>
<clus scale="   80.164">  5  6 -1 -1</clus>
<clus scale="   95.023">  7  8 -1 -1</clus>
<clus scale="  120.621">  1  5  2 -1</clus>
<clus scale="   27.289">  2  5  1 -1</clus>
</clustering>
</event>
<event>
 9    1  0.6296820E-005  0.9788788E+02  0.7546771E-02  0.1290441E+00
         21   -1    0    0  501  502  0.00000000000E+00  0.00000000000E+00  0.15360947879E+02  0.15360947879E+02  0.00000000000E+00 0. -1.
          1   -1    0    0  502    0 -0.00000000000E+00 -0.00000000000E+00 -0.84727489652E+03  0.84727489652E+03  0.00000000000E+00 0. -1.
         23    2    1    2    0    0 -0.22421344059E+02  0.45785867485E+02 -0.49246803971E+03  0.50327700278E+03  0.90354352759E+02 0.  0.
        -24    2    1    2    0    0 -0.34490411856E+01 -0.24646140145E+02 -0.26381506041E+03  0.27667758526E+03  0.79578715604E+02 0.  0.
         13    1    4    4    0    0  0.21351484198E+02  0.18341092653E+02 -0.14838343951E+03  0.15102955564E+03  0.00000000000E+00 0. -1.
        -14    1    4    4    0    0 -0.24800525383E+02 -0.42987232798E+02 -0.11543162090E+03  0.12564802962E+03  0.00000000000E+00 0.  1.
        -11    1    3    3    0    0 -0.42754747657E+02  0.59358917676E+02 -0.43031396026E+03  0.43648774776E+03  0.00000000000E+00 0. -1.
         11    1    3    3    0    0  0.20333403598E+02 -0.13573050191E+02 -0.62154079455E+02  0.66789255021E+02  0.00000000000E+00 0.  1.
          2    1    1    2  501    0  0.25870385245E+02 -0.21139727340E+02 -0.75630848514E+02  0.82681256350E+02  0.00000000000E+00 0. -1.
<scales pt_clust_5="13000.00000" pt_clust_6="13000.00000" pt_clust_7="13000.00000" pt_clust_8="13000.00000" pt_clust_9="33.40905"></scales>
<clustering>
<clus scale="   33.409">  1  9  2 -1</clus>
<clus scale="   79.579">  5  6 -1 -1</clus>
<clus scale="   88.039">  1  5  2 -1</clus>
<clus scale="   90.354">  7  8 -1 -1</clus>
<clus scale="   33.409">  1  5  2 -1</clus>
</clustering>
</event>
<event>
 9    1  0.6296820E-005  0.9967949E+02  0.7546771E-02  0.1285654E+00
         21   -1    0    0  501  502  0.00000000000E+00  0.00000000000E+00  0.66287737403E+03  0.66287737403E+03  0.00000000000E+00 0. -1.
          1   -1    0    0  502    0 -0.00000000000E+00 -0.00000000000E+00 -0.33042918999E+02  0.33042918999E+02  0.00000000000E+00 0. -1.
         23    2    1    2    0    0  0.17763301267E+02  0.17994171071E+02  0.11042471385E+03  0.14482633078E+03  0.90231500005E+02 0.  0.
        -24    2    1    2    0    0 -0.56671600657E+02 -0.68705120723E+02  0.33755314174E+03  0.35833172804E+03  0.80792573238E+02 0.  0.
         11    1    4    4    0    0 -0.58802777316E+02 -0.86591844586E+01  0.18754570161E+03  0.19673875644E+03  0.00000000000E+00 0. -1.
        -12    1    4    4    0    0  0.21311766583E+01 -0.60045936264E+02  0.15000744013E+03  0.16159297160E+03  0.00000000000E+00 0.  1.
        -13    1    3    3    0    0  0.50943532656E+02 -0.76715220041E+01  0.55672445967E+02  0.75851941368E+02  0.00000000000E+00 0. -1.
         13    1    3    3    0    0 -0.33180231389E+02  0.25665693075E+02  0.54752267885E+02  0.68974389411E+02  0.00000000000E+00 0.  1.
          2    1    1    2  501    0  0.38908299390E+02  0.50710949652E+02  0.18185659944E+03  0.19276223420E+03  0.00000000000E+00 0. -1.
<scales pt_clust_5="13000.00000" pt_clust_6="13000.00000" pt_clust_7="13000.00000" pt_clust_8="13000.00000" pt_clust_9="63.91757"></scales>
<clustering>
<clus scale="   63.918">  1  9  2 -1</clus>
<clus scale="   80.793">  5  6 -1 -1</clus>
<clus scale="   90.232">  7  8 -1 -1</clus>
<clus scale="   91.223">  1  5  2 -1</clus>
<clus scale="   63.918">  1  5  2 -1</clus>
</clustering>
</event>
<event>
 9    1  0.6296820E-005  0.9383897E+02  0.7546771E-02  0.1294020E+00
         21   -1    0    0  501  502  0.00000000000E+00  0.00000000000E+00  0.31037025515E+02  0.31037025515E+02  0.00000000000E+00 0.  1.
          3   -1    0    0  502    0 -0.00000000000E+00 -0.00000000000E+00 -0.54210618276E+03  0.54210618276E+03  0.00000000000E+00 0. -1.
        -24    2    1    2    0    0 -0.11404303497E+02  0.83826626663E+01 -0.31272189454E+03  0.32582480091E+03  0.90368636125E+02 0.  0.
         23    2    1    2    0    0  0.39925714148E+02 -0.15268229447E+02 -0.19297877676E+03  0.21749052549E+03  0.90742156239E+02 0.  0.
         13    1    3    3    0    0 -0.25429027222E+02 -0.47400360965E+01 -0.20587683980E+02  0.33059886559E+02  0.00000000000E+00 0. -1.
        -14    1    3    3    0    0  0.14024723725E+02  0.13122698763E+02 -0.29213421056E+03  0.29276491435E+03  0.00000000000E+00 0.  1.
        -11    1    4    4    0    0  0.12200051098E+02 -0.46682412287E+02 -0.54394109069E+02  0.72710439176E+02  0.00000000000E+00 0.  1.
         11    1    4    4    0    0  0.27725663050E+02  0.31414182840E+02 -0.13858466769E+03  0.14478008632E+03  0.00000000000E+00 0. -1.
          4    1    1    2  501    0 -0.28521410651E+02  0.68855667803E+01 -0.53684859477E+01  0.29827881869E+02  0.00000000000E+00 0. -1.
<scales pt_clust_5="13000.00000" pt_clust_6="13000.00000" pt_clust_7="13000.00000" pt_clust_8="13000.00000" pt_clust_9="29.34079"></scales>
<clustering>
<clus scale="   29.341">  1  9  2 -1</clus>
<clus scale="   90.369">  5  6 -1 -1</clus>
<clus scale="   90.742">  7  8 -1 -1</clus>
<clus scale="   93.478">  2  5  1 -1</clus>
<clus scale="   29.341">  1  5  2 -1</clus>
</clustering>
</event>
<event>
 9    1  0.6296820E-005  0.1030262E+03  0.7546771E-02  0.1279909E+00
          1   -1    0    0  502    0 -0.00000000000E+00  0.00000000000E+00  0.32073271278E+03  0.32073271278E+03  0.00000000000E+00 0. -1.
         21   -1    0    0  501  502  0.00000000000E+00 -0.00000000000E+00 -0.53717647404E+02  0.53717647404E+02  0.00000000000E+00 0.  1.
         23    2    1    2    0    0  0.18131731521E+02 -0.36492798243E+02  0.22107236892E+03  0.24317834458E+03  0.92748212711E+02 0.  0.
        -24    2    1    2    0    0 -0.11177700008E+02  0.56744581337E+02  0.47331931432E+02  0.10981454029E+03  0.80461376064E+02 0.  0.
         11    1    4    4    0    0 -0.41582330863E+02  0.53543143236E+02  0.38631713766E+02  0.78027993284E+02  0.00000000000E+00 0. -1.
        -12    1    4    4    0    0  0.30404630855E+02  0.32014381016E+01  0.87002176664E+01  0.31786547009E+02  0.00000000000E+00 0.  1.
        -11    1    3    3    0    0  0.53857364448E+02 -0.26512840447E+02  0.10085192648E+03  0.11736548679E+03  0.00000000000E+00 0.  1.
         11    1    3    3    0    0 -0.35725632927E+02 -0.99799577958E+01  0.12022044244E+03  0.12581285779E+03  0.00000000000E+00 0. -1.
          2    1    1    2  501    0 -0.69540315127E+01 -0.20251783094E+02 -0.13892349784E+01  0.21457475308E+02  0.00000000000E+00 0. -1.
<scales pt_clust_5="13000.00000" pt_clust_6="13000.00000" pt_clust_7="13000.00000" pt_clust_8="13000.00000" pt_clust_9="21.41246"></scales>
<clustering>
<clus scale="   21.412">  2  9  1 -1</clus>
<clus scale="   80.461">  5  6 -1 -1</clus>
<clus scale="   92.121">  2  5  1 -1</clus>
<clus scale="   92.748">  7  8 -1 -1</clus>
<clus scale="   21.412">  2  5  1 -1</clus>
</clustering>
</event>
<event>
 9    1  0.6296820E-005  0.1057883E+03  0.7546771E-02  0.1274102E+00
         21   -1    0    0  501  502  0.00000000000E+00  0.00000000000E+00  0.92355505253E+02  0.92355505253E+02  0.00000000000E+00 0. -1.
         -2   -1    0    0    0  501 -0.00000000000E+00 -0.00000000000E+00 -0.56647578304E+03  0.56647578304E+03  0.00000000000E+00 0.  1.
        -24    2    1    2    0    0 -0.30104857616E+02 -0.38410722181E+02 -0.49972404393E+03  0.50852786606E+03  0.80590225517E+02 0.  0.
         23    2    1    2    0    0  0.46512230827E+02  0.60074151603E+02  0.14487408175E+02  0.12094223212E+03  0.92977670477E+02 0.  0.
         13    1    3    3    0    0 -0.29883365254E+02 -0.13593194808E+02 -0.62480070495E+02  0.70580094028E+02  0.00000000000E+00 0. -1.
        -14    1    3    3    0    0 -0.22149236195E+00 -0.24817527373E+02 -0.43724397343E+03  0.43794777203E+03  0.00000000000E+00 0.  1.
        -11    1    4    4    0    0  0.15508599681E+02  0.54067046641E+02  0.48686932340E+02  0.74392066628E+02  0.00000000000E+00 0. -1.
         11    1    4    4    0    0  0.31003631146E+02  0.60071049619E+01 -0.34199524165E+02  0.46550165492E+02  0.00000000000E+00 0.  1.
         -1    1    1    2    0  502 -0.16407373211E+02 -0.21663429422E+02  0.11116357971E+02  0.29361190108E+02  0.00000000000E+00 0.  1.
<scales pt_clust_5="13000.00000" pt_clust_6="13000.00000" pt_clust_7="13000.00000" pt_clust_8="13000.00000" pt_clust_9="27.17547"></scales>
<clustering>
<clus scale="   27.175">  1  9  2 -1</clus>
<clus scale="   80.590">  5  6 -1 -1</clus>
<clus scale="   92.978">  7  8 -1 -1</clus>
<clus scale="   95.085">  2  5  1 -1</clus>
<clus scale="   27.175">  1  5  2 -1</clus>
</clustering>
</event>
<event>
 9    1  0.6296820E-005  0.2790620E+03  0.7546771E-02  0.1136115E+00
         -2   -1    0    0    0  501 -0.00000000000E+00  0.00000000000E+00  0.93635087624E+03  0.93635087624E+03  0.00000000000E+00 0.  1.
         21   -1    0    0  501  502  0.00000000000E+00 -0.00000000000E+00 -0.11455030543E+03  0.11455030543E+03  0.00000000000E+00 0. -1.
         23    2    1    2    0    0  0.17718820922E+02  0.42297138404E+02  0.17550903045E+03  0.20304314729E+03  0.91214556741E+02 0.  0.
        -24    2    1    2    0    0  0.17503513983E+02 -0.28782946559E+03  0.36057059191E+03  0.46948890647E+03  0.85185135332E+02 0.  0.
         13    1    4    4    0    0 -0.47270259046E+01 -0.20743347029E+03  0.19816701912E+03  0.28691663744E+03  0.00000000000E+00 0. -1.
        -14    1    4    4    0    0  0.22230539887E+02 -0.80395995300E+02  0.16240357279E+03  0.18257226903E+03  0.00000000000E+00 0.  1.
        -13    1    3    3    0    0  0.79268922031E+01 -0.18816464177E+02  0.11389322178E+03  0.11570894915E+03  0.00000000000E+00 0.  1.
         13    1    3    3    0    0  0.97919287190E+01  0.61113602581E+02  0.61615808664E+02  0.87334198146E+02  0.00000000000E+00 0. -1.
         -1    1    1    2    0  502 -0.35222334905E+02  0.24553232719E+03  0.28572094844E+03  0.37836912791E+03  0.00000000000E+00 0.  1.
<scales pt_clust_5="13000.00000" pt_clust_6="13000.00000" pt_clust_7="13000.00000" pt_clust_8="13000.00000" pt_clust_9="265.74258"></scales>
<clustering>
<clus scale="   85.185">  5  6 -1 -1</clus>
<clus scale="   91.215">  7  8 -1 -1</clus>
<clus scale="  102.094">  1  7  2 -1</clus>
<clus scale="  265.743">  2  9  1 -1</clus>
<clus scale="  265.743">  2  5  1 -1</clus>
</clustering>
</event>
<event>
 9    1  0.6296820E-005  0.9646835E+02  0.7546771E-02  0.1293003E+00
         21   -1    0    0  501  502  0.00000000000E+00  0.00000000000E+00  0.97205672211E+02  0.97205672211E+02  0.00000000000E+00 0.  1.
         -2   -1    0    0    0  501 -0.00000000000E+00 -0.00000000000E+00 -0.36772744124E+03  0.36772744124E+03  0.00000000000E+00 0.  1.
        -24    2    1    2    0    0 -0.12195643001E+02 -0.40582133035E+02 -0.25053458258E+03  0.26649820747E+03  0.80362144608E+02 0.  0.
         23    2    1    2    0    0  0.17192371135E+01  0.17359174331E+02 -0.87279472230E+02  0.12648136113E+03  0.89863962365E+02 0.  0.
         13    1    3    3    0    0  0.23144560072E+02 -0.45181377666E+02 -0.10449781376E+03  0.11617581775E+03  0.00000000000E+00 0. -1.
        -14    1    3    3    0    0 -0.35340203073E+02  0.45992446305E+01 -0.14603676881E+03  0.15032238972E+03  0.00000000000E+00 0.  1.
        -11    1    4    4    0    0  0.39078771540E+02 -0.14795703160E+02 -0.33743233214E+02  0.53709114728E+02  0.00000000000E+00 0.  1.
         11    1    4    4    0    0 -0.37359534427E+02  0.32154877492E+02 -0.53536239016E+02  0.72772246406E+02  0.00000000000E+00 0. -1.
         -1    1    1    2    0  502  0.10476405887E+02  0.23222958704E+02  0.67292285778E+02  0.71953544850E+02  0.00000000000E+00 0.  1.
<scales pt_clust_5="13000.00000" pt_clust_6="13000.00000" pt_clust_7="13000.00000" pt_clust_8="13000.00000" pt_clust_9="25.47667"></scales>
<clustering>
<clus scale="   25.477">  1  9  2 -1</clus>
<clus scale="   80.362">  5  6 -1 -1</clus>
<clus scale="   87.685">  2  5  1 -1</clus>
<clus scale="   89.864">  7  8 -1 -1</clus>
<clus scale="   25.477">  1  5  2 -1</clus>
</clustering>
</event>
<event>
 9    1  0.6296820E-005  0.1238793E+03  0.7546771E-02  0.1250144E+00
          1   -1    0    0  502    0 -0.00000000000E+00  0.00000000000E+00  0.75921126268E+03  0.75921126268E+03  0.00000000000E+00 0. -1.
         21   -1    0    0  501  502  0.00000000000E+00 -0.00000000000E+00 -0.45963341105E+02  0.45963341105E+02  0.00000000000E+00 0. -1.
        -24    2    1    2    0    0  0.51318012559E+02  0.49119965047E+01  0.46958725632E+03  0.47903655933E+03  0.79411382999E+02 0.  0.
         23    2    1    2    0    0  0.42482624910E+02  0.32001518158E+02  0.17503259632E+03  0.20419142089E+03  0.90713042095E+02 0.  0.
         11    1    3    3    0    0  0.64804763452E+02  0.10830015462E+02  0.23571037997E+03  0.24469640338E+03  0.00000000000E+00 0. -1.
        -12    1    3    3    0    0 -0.13486750893E+02 -0.59180189577E+01  0.23387687635E+03  0.23434015594E+03  0.00000000000E+00 0.  1.
        -13    1    4    4    0    0  0.21833317298E+02  0.58724549583E+02  0.70388222392E+02  0.94232522620E+02  0.00000000000E+00 0.  1.
         13    1    4    4    0    0  0.20649307612E+02 -0.26723031425E+02  0.10464437393E+03  0.10995889827E+03  0.00000000000E+00 0. -1.
          2    1    1    2  501    0 -0.93800637469E+02 -0.36913514662E+02  0.68628068931E+02  0.12194662357E+03  0.00000000000E+00 0. -1.
<scales pt_clust_5="13000.00000" pt_clust_6="13000.00000" pt_clust_7="13000.00000" pt_clust_8="13000.00000" pt_clust_9="84.36363"></scales>
<clustering>
<clus scale="   79.411">  5  6 -1 -1</clus>
<clus scale="   90.713">  7  8 -1 -1</clus>
<clus scale="   94.678">  1  5  2 -1</clus>
<clus scale="   84.364">  2  9  1 -1</clus>
<clus scale="   84.364">  2  5  1 -1</clus>
</clustering>
</event>
<event>
 9    1  0.6296820E-005  0.1110980E+03  0.7546771E-02  0.1262850E+00
          1   -1    0    0  502    0 -0.00000000000E+00  0.00000000000E+00  0.84638211984E+03  0.84638211984E+03  0.00000000000E+00 0. -1.
         21   -1    0    0  501  502  0.00000000000E+00 -0.00000000000E+00 -0.20001164348E+02  0.20001164348E+02  0.00000000000E+00 0.  1.
         23    2    1    2    0    0  0.78168045666E+02  0.10155470399E+02  0.44723586075E+03  0.46333018798E+03  0.91878022472E+02 0.  0.
        -24    2    1    2    0    0 -0.42345029371E+02  0.83189277683E+00  0.19690460345E+03  0.21700039584E+03  0.80771005799E+02 0.  0.
         11    1    4    4    0    0 -0.56144910465E+02  0.17012859376E+02  0.18148666592E+03  0.19073305498E+03  0.00000000000E+00 0. -1.
        -12    1    4    4    0    0  0.13799881094E+02 -0.16180966599E+02  0.15417937530E+02  0.26267340862E+02  0.00000000000E+00 0.  1.
        -11    1    3    3    0    0  0.26828014794E+02  0.42437950967E+02  0.11321124790E+03  0.12384469593E+03  0.00000000000E+00 0.  1.
         11    1    3    3    0    0  0.51340030872E+02 -0.32282480568E+02  0.33402461285E+03  0.33948549205E+03  0.00000000000E+00 0. -1.
          2    1    1    2  501    0 -0.35823016295E+02 -0.10987363175E+02  0.18224049130E+03  0.18605270037E+03  0.00000000000E+00 0. -1.
<scales pt_clust_5="13000.00000" pt_clust_6="13000.00000" pt_clust_7="13000.00000" pt_clust_8="13000.00000" pt_clust_9="37.47015"></scales>
<clustering>
<clus scale="   37.470">  2  9  1 -1</clus>
<clus scale="   80.771">  5  6 -1 -1</clus>
<clus scale="   91.878">  7  8 -1 -1</clus>
<clus scale="  102.104">  2  5  1 -1</clus>
<clus scale="   37.470">  2  5  1 -1</clus>
</clustering>
</event>
<event>
 9    1  0.6296820E-005  0.8936895E+02  0.7546771E-02  0.1312816E+00
          1   -1    0    0  502    0 -0.00000000000E+00  0.00000000000E+00  0.29459948087E+03  0.29459948087E+03  0.00000000000E+00 0. -1.
         21   -1    0    0  501  502  0.00000000000E+00 -0.00000000000E+00 -0.22516115864E+03  0.22516115864E+03  0.00000000000E+00 0. -1.
         23    2    1    2    0    0  0.60865411838E+01  0.20559642787E+02  0.24763050035E+03  0.26370355273E+03  0.88084925639E+02 0.  0.
        -24    2    1    2    0    0 -0.17364493502E+01  0.18711081744E+02 -0.41535864138E+01  0.77589878297E+02  0.75165265234E+02 0.  0.
         13    1    4    4    0    0 -0.20045292337E+02  0.30791146741E+02  0.22490579559E+02  0.43078238490E+02  0.00000000000E+00 0. -1.
        -14    1    4    4    0    0  0.18308842986E+02 -0.12080064997E+02 -0.26644165972E+02  0.34511639808E+02  0.00000000000E+00 0.  1.
        -13    1    3    3    0    0  0.26003795421E+02 -0.25175380146E+02  0.14696432442E+03  0.15135557405E+03  0.00000000000E+00 0.  1.
         13    1    3    3    0    0 -0.19917254237E+02  0.45735022932E+02  0.10066617592E+03  0.11234797868E+03  0.00000000000E+00 0. -1.
          2    1    1    2  501    0 -0.43500918336E+01 -0.39270724531E+02 -0.17403859170E+03  0.17846720849E+03  0.00000000000E+00 0. -1.
<scales pt_clust_5="13000.00000" pt_clust_6="13000.00000" pt_clust_7="13000.00000" pt_clust_8="13000.00000" pt_clust_9="39.51092"></scales>
<clustering>
<clus scale="   39.511">  2  9  1 -1</clus>
<clus scale="   75.165">  5  6 -1 -1</clus>
<clus scale="   76.666">  2  5  1 -1</clus>
<clus scale="   88.085">  7  8 -1 -1</clus>
<clus scale="   39.511">  2  5  1 -1</clus>
</clustering>
</event>
<event>
 9    1  0.6296820E-005  0.1276146E+03  0.7546771E-02  0.1257803E+00
          1   -1    0    0  502    0 -0.00000000000E+00  0.00000000000E+00  0.13689739947E+03  0.13689739947E+03  0.00000000000E+00 0. -1.
         21   -1    0    0  501  502  0.00000000000E+00 -0.00000000000E+00 -0.16479186603E+03  0.16479186603E+03  0.00000000000E+00 0. -1.
         23    2    1    2    0    0 -0.37854141705E+02 -0.55636793032E+01  0.69430855386E+02  0.14758902350E+03  0.12449090572E+03 0.  0.
        -24    2    1    2    0    0 -0.21530266010E+00  0.60534342714E+01 -0.92833661989E+02  0.11576360857E+03  0.68894367321E+02 0.  0.
         11    1    4    4    0    0 -0.33319436264E+02 -0.49351734992E+01 -0.38032949317E+02  0.50803995947E+02  0.00000000000E+00 0. -1.
        -12    1    4    4    0    0  0.33104133604E+02  0.10988607771E+02 -0.54800712672E+02  0.64959612620E+02  0.00000000000E+00 0.  1.
        -11    1    3    3    0    0  0.34780508019E+02 -0.26402201959E+02  0.55717755458E+02  0.70790029521E+02  0.00000000000E+00 0.  1.
         11    1    3    3    0    0 -0.72634649724E+02  0.20838522655E+02  0.13713099928E+02  0.76798993982E+02  0.00000000000E+00 0. -1.
          2    1    1    2  501    0  0.38069444365E+02 -0.48975496816E+00 -0.44916599562E+01  0.38336633438E+02  0.00000000000E+00 0. -1.
<scales pt_clust_5="13000.00000" pt_clust_6="13000.00000" pt_clust_7="13000.00000" pt_clust_8="13000.00000" pt_clust_9="38.07259"></scales>
<clustering>
<clus scale="   38.073">  2  9  1 -1</clus>
<clus scale="   68.894">  5  6 -1 -1</clus>
<clus scale="   74.390">  2  5  1 -1</clus>
<clus scale="  124.491">  7  8 -1 -1</clus>
<clus scale="   38.073">  2  5  1 -1</clus>
</clustering>
</event>
<event>
 9    1  0.6296820E-005  0.1267752E+03  0.7546771E-02  0.1235946E+00
         21   -1    0    0  501  502  0.00000000000E+00  0.00000000000E+00  0.27545030468E+03  0.27545030468E+03  0.00000000000E+00 0.  1.
          1   -1    0    0  502    0 -0.00000000000E+00 -0.00000000000E+00 -0.11712372878E+03  0.11712372878E+03  0.00000000000E+00 0. -1.
        -24    2    1    2    0    0 -0.40166657881E+02 -0.74002756037E+02 -0.52469556340E+02  0.12680394581E+03  0.78970994834E+02 0.  0.
         23    2    1    2    0    0  0.58308356618E+02  0.87060733022E+02  0.18469968035E+03  0.23140940084E+03  0.91961422297E+02 0.  0.
         11    1    3    3    0    0 -0.23101888088E+02 -0.80481013745E+02 -0.14915844599E+02  0.85049240013E+02  0.00000000000E+00 0. -1.
        -12    1    3    3    0    0 -0.17064769794E+02  0.64782577079E+01 -0.37553711741E+02  0.41754705802E+02  0.00000000000E+00 0.  1.
        -11    1    4    4    0    0  0.64462986967E+01  0.77478301033E+02  0.67773141462E+02  0.10313893834E+03  0.00000000000E+00 0.  1.
         11    1    4    4    0    0  0.51862057921E+02  0.95824319889E+01  0.11692653889E+03  0.12827046250E+03  0.00000000000E+00 0. -1.
          2    1    1    2  501    0 -0.18141698737E+02 -0.13057976985E+02  0.26096451892E+02  0.34360686800E+02  0.00000000000E+00 0. -1.
<scales pt_clust_5="13000.00000" pt_clust_6="13000.00000" pt_clust_7="13000.00000" pt_clust_8="13000.00000" pt_clust_9="22.35245"></scales>
<clustering>
<clus scale="   22.352">  1  9  2 -1</clus>
<clus scale="   78.971">  5  6 -1 -1</clus>
<clus scale="   91.961">  7  8 -1 -1</clus>
<clus scale="  117.692">  2  5  1 -1</clus>
<clus scale="   22.352">  1  5  2 -1</clus>
</clustering>
</event>
<event>
 9    1  0.6296820E-005  0.9743366E+02  0.7546771E-02  0.1293855E+00
          1   -1    0    0  502    0 -0.00000000000E+00  0.00000000000E+00  0.43487434245E+03  0.43487434245E+03  0.00000000000E+00 0. -1.
         21   -1    0    0  501  502  0.00000000000E+00 -0.00000000000E+00 -0.79197192881E+02  0.79197192881E+02  0.00000000000E+00 0.  1.
        -24    2    1    2    0    0 -0.61004382720E+01  0.19592625236E+02  0.22432333049E+03  0.23859275893E+03  0.78641348548E+02 0.  0.
         23    2    1    2    0    0  0.98582232083E+01 -0.43218325034E+02  0.18776713950E+03  0.21420270147E+03  0.93066054261E+02 0.  0.
         13    1    3    3    0    0 -0.37783506927E+02 -0.82637453201E+01  0.11930126879E+03  0.12541401683E+03  0.00000000000E+00 0. -1.
        -14    1    3    3    0    0  0.31683068655E+02  0.27856370557E+02  0.10502206170E+03  0.11317874210E+03  0.00000000000E+00 0.  1.
        -11    1    4    4    0    0 -0.28287232439E+02 -0.32259404551E+02  0.16028500560E+03  0.16592805586E+03  0.00000000000E+00 0. -1.
         11    1    4    4    0    0  0.38145455648E+02 -0.10958920483E+02  0.27482133899E+02  0.48274645606E+02  0.00000000000E+00 0.  1.
          2    1    1    2  501    0 -0.37577849363E+01  0.23625699797E+02 -0.56413320421E+02  0.61276074935E+02  0.00000000000E+00 0. -1.
<scales pt_clust_5="13000.00000" pt_clust_6="13000.00000" pt_clust_7="13000.00000" pt_clust_8="13000.00000" pt_clust_9="23.92268"></scales>
<clustering>
<clus scale="   23.923">  2  9  1 -1</clus>
<clus scale="   78.641">  5  6 -1 -1</clus>
<clus scale="   83.764">  1  5  2 -1</clus>
<clus scale="   93.066">  7  8 -1 -1</clus>
<clus scale="   23.923">  2  5  1 -1</clus>
</clustering>
</event>
<event>
 9    1  0.6296820E-005  0.9587561E+02  0.7546771E-02  0.1308263E+00
          3   -1    0    0  502    0 -0.00000000000E+00  0.00000000000E+00  0.42158066243E+03  0.42158066243E+03  0.00000000000E+00 0. -1.
         21   -1    0    0  501  502  0.00000000000E+00 -0.00000000000E+00 -0.27979571037E+02  0.27979571037E+02  0.00000000000E+00 0. -1.
         23    2    1    2    0    0 -0.23501756724E+02  0.20611344703E+02  0.29434296982E+03  0.31016279945E+03  0.92660769376E+02 0.  0.
        -24    2    1    2    0    0  0.20616740627E+01 -0.11670956283E+02  0.39090663848E+02  0.74901460042E+02  0.62782855908E+02 0.  0.
         13    1    4    4    0    0  0.99047723518E+01  0.24531933594E+02  0.20416557803E+02  0.33417901097E+02  0.00000000000E+00 0. -1.
        -14    1    4    4    0    0 -0.78430982892E+01 -0.36202889877E+02  0.18674106044E+02  0.41483558945E+02  0.00000000000E+00 0.  1.
        -11    1    3    3    0    0 -0.47206304976E+02  0.40921409461E+02  0.23435411174E+03  0.24253834062E+03  0.00000000000E+00 0. -1.
         11    1    3    3    0    0  0.23704548252E+02 -0.20310064758E+02  0.59988858080E+02  0.67624458830E+02  0.00000000000E+00 0.  1.
          4    1    1    2  501    0  0.21440082661E+02 -0.89403884203E+01  0.60167457727E+02  0.64495973974E+02  0.00000000000E+00 0. -1.
<scales pt_clust_5="13000.00000" pt_clust_6="13000.00000" pt_clust_7="13000.00000" pt_clust_8="13000.00000" pt_clust_9="23.22947"></scales>
<clustering>
<clus scale="   23.229">  2  9  1 -1</clus>
<clus scale="   62.783">  5  6 -1 -1</clus>
<clus scale="   67.437">  2  5  1 -1</clus>
<clus scale="   92.661">  7  8 -1 -1</clus>
<clus scale="   23.229">  2  5  1 -1</clus>
</clustering>
</event>
<event>
 9    1  0.6296820E-005  0.1043134E+03  0.7546771E-02  0.1275335E+00
         21   -1    0    0  501  502  0.00000000000E+00  0.00000000000E+00  0.47859923796E+02  0.47859923796E+02  0.00000000000E+00 0.  1.
          1   -1    0    0  502    0 -0.00000000000E+00 -0.00000000000E+00 -0.42265312170E+03  0.42265312170E+03  0.00000000000E+00 0. -1.
        -24    2    1    2    0    0  0.44590714452E+02 -0.14734243402E+02 -0.28039978184E+03  0.29579444911E+03  0.81638769764E+02 0.  0.
         23    2    1    2    0    0 -0.69590666371E+02  0.11906548966E+02 -0.95937078871E+02  0.14951192373E+03  0.90361858544E+02 0.  0.
         11    1    3    3    0    0  0.60503492059E+02 -0.27098715687E+02 -0.25441836507E+03  0.26291389736E+03  0.00000000000E+00 0. -1.
        -12    1    3    3    0    0 -0.15912777607E+02  0.12364472286E+02 -0.25981416767E+02  0.32880551749E+02  0.00000000000E+00 0.  1.
        -13    1    4    4    0    0 -0.31860463247E+02  0.44233690848E+02 -0.80989773216E+02  0.97627106327E+02  0.00000000000E+00 0. -1.
         13    1    4    4    0    0 -0.37730203125E+02 -0.32327141882E+02 -0.14947305655E+02  0.51884817398E+02  0.00000000000E+00 0.  1.
          2    1    1    2  501    0  0.24999951919E+02  0.28276944354E+01  0.15436627995E+01  0.25206672661E+02  0.00000000000E+00 0. -1.
<scales pt_clust_5="13000.00000" pt_clust_6="13000.00000" pt_clust_7="13000.00000" pt_clust_8="13000.00000" pt_clust_9="25.15936"></scales>
<clustering>
<clus scale="   25.159">  1  9  2 -1</clus>
<clus scale="   81.639">  5  6 -1 -1</clus>
<clus scale="   90.362">  7  8 -1 -1</clus>
<clus scale="   96.855">  2  5  1 -1</clus>
<clus scale="   25.159">  1  5  2 -1</clus>
</clustering>
</event>
<event>
 9    1  0.6296820E-005  0.9196471E+02  0.7546771E-02  0.1303872E+00
         21   -1    0    0  501  502  0.00000000000E+00  0.00000000000E+00  0.41937409623E+03  0.41937409623E+03  0.00000000000E+00 0.  1.
          1   -1    0    0  502    0 -0.00000000000E+00 -0.00000000000E+00 -0.25158575424E+02  0.25158575424E+02  0.00000000000E+00 0. -1.
         23    2    1    2    0    0 -0.12118990143E+01  0.21562604140E+02  0.14453425894E+03  0.17142385309E+03  0.89607872447E+02 0.  0.
        -24    2    1    2    0    0 -0.19160595764E+02 -0.15826206865E+02  0.15682078159E+03  0.17786694965E+03  0.80164187673E+02 0.  0.
         11    1    4    4    0    0 -0.26090266274E+02  0.26122935462E+02  0.44826138876E+02  0.58073164869E+02  0.00000000000E+00 0. -1.
        -12    1    4    4    0    0  0.69296705097E+01 -0.41949142327E+02  0.11199464272E+03  0.11979378478E+03  0.00000000000E+00 0.  1.
        -13    1    3    3    0    0  0.17237549702E+02 -0.31539449523E+02  0.57899820035E+02  0.68148801575E+02  0.00000000000E+00 0.  1.
         13    1    3    3    0    0 -0.18449448716E+02  0.53102053663E+02  0.86634438902E+02  0.10327505151E+03  0.00000000000E+00 0. -1.
          2    1    1    2  501    0  0.20372494778E+02 -0.57363972749E+01  0.92860480276E+02  0.95241868914E+02  0.00000000000E+00 0. -1.
<scales pt_clust_5="13000.00000" pt_clust_6="13000.00000" pt_clust_7="13000.00000" pt_clust_8="13000.00000" pt_clust_9="21.16471"></scales>
<clustering>
<clus scale="   21.165">  1  9  2 -1</clus>
<clus scale="   80.164">  5  6 -1 -1</clus>
<clus scale="   82.790">  1  5  2 -1</clus>
<clus scale="   89.608">  7  8 -1 -1</clus>
<clus scale="   21.165">  1  5  2 -1</clus>
</clustering>
</event>
<event>
 9    1  0.6296820E-005  0.3205945E+03  0.7546771E-02  0.1100663E+00
          1   -1    0    0  502    0 -0.00000000000E+00  0.00000000000E+00  0.39852169691E+03  0.39852169691E+03  0.00000000000E+00 0. -1.
         21   -1    0    0  501  502  0.00000000000E+00 -0.00000000000E+00 -0.47045674598E+03  0.47045674598E+03  0.00000000000E+00 0. -1.
         23    2    1    2    0    0  0.92534988667E+02  0.99866195094E+02  0.10366330258E+03  0.19391492926E+03  0.91219178028E+02 0.  0.
        -24    2    1    2    0    0 -0.36107801124E+03 -0.16215648075E+02 -0.91969567628E+02  0.38162435042E+03  0.80860781732E+02 0.  0.
         13    1    4    4    0    0 -0.35575073800E+03 -0.28510092915E+02 -0.90161244999E+02  0.36810387540E+03  0.00000000000E+00 0. -1.
        -14    1    4    4    0    0 -0.53272732413E+01  0.12294444840E+02 -0.18083226292E+01  0.13520475023E+02  0.00000000000E+00 0.  1.
        -11    1    3    3    0    0  0.35210829073E+02  0.63882395010E+02  0.10302011150E+03  0.12622957755E+03  0.00000000000E+00 0. -1.
         11    1    3    3    0    0  0.57324159594E+02  0.35983800084E+02  0.64319108160E+00  0.67685351713E+02  0.00000000000E+00 0.  1.
          2    1    1    2  501    0  0.26854302257E+03 -0.83650547020E+02 -0.83628784024E+02  0.29343916321E+03  0.00000000000E+00 0. -1.
<scales pt_clust_5="13000.00000" pt_clust_6="13000.00000" pt_clust_7="13000.00000" pt_clust_8="13000.00000" pt_clust_9="310.22953"></scales>
<clustering>
<clus scale="   80.861">  5  6 -1 -1</clus>
<clus scale="   91.219">  7  8 -1 -1</clus>
<clus scale="  163.881">  1  7  2 -1</clus>
<clus scale="  310.230">  2  9  1 -1</clus>
<clus scale="  310.230">  2  5  1 -1</clus>
</clustering>
</event>
<event>
 9    1  0.6296820E-005  0.1238953E+03  0.7546771E-02  0.1247845E+00
         -2   -1    0    0    0  501 -0.00000000000E+00  0.00000000000E+00  0.12190685838E+04  0.12190685838E+04  0.00000000000E+00 0.  1.
         21   -1    0    0  501  502  0.00000000000E+00 -0.00000000000E+00 -0.42975141974E+02  0.42975141974E+02  0.00000000000E+00 0. -1.
        -24    2    1    2    0    0  0.53405721540E+01  0.51124524953E+02  0.82409294702E+03  0.82954521023E+03  0.79836280833E+02 0.  0.
         23    2    1    2    0    0  0.32190969837E+02 -0.11278102910E+03  0.31011940160E+03  0.34904693009E+03  0.10910498197E+03 0.  0.
         11    1    3    3    0    0  0.13979558391E+02  0.14458377791E+02  0.42220581020E+02  0.46765908554E+02  0.00000000000E+00 0. -1.
        -12    1    3    3    0    0 -0.86389862368E+01  0.36666147162E+02  0.78187236600E+03  0.78277930168E+03  0.00000000000E+00 0.  1.
        -11    1    4    4    0    0  0.63014983032E+02 -0.26254308146E+02  0.12721075723E+03  0.14437019616E+03  0.00000000000E+00 0. -1.
         11    1    4    4    0    0 -0.30824013194E+02 -0.86526720954E+02  0.18290864437E+03  0.20467673393E+03  0.00000000000E+00 0.  1.
         -1    1    1    2    0  502 -0.37531541991E+02  0.61656504147E+02  0.41881093234E+02  0.83451585475E+02  0.00000000000E+00 0.  1.
<scales pt_clust_5="13000.00000" pt_clust_6="13000.00000" pt_clust_7="13000.00000" pt_clust_8="13000.00000" pt_clust_9="72.18131"></scales>
<clustering>
<clus scale="   72.181">  2  9  1 -1</clus>
<clus scale="   79.836">  5  6 -1 -1</clus>
<clus scale="   99.096">  1  5  2 -1</clus>
<clus scale="  109.105">  7  8 -1 -1</clus>
<clus scale="   72.181">  2  5  1 -1</clus>
</clustering>
</event>
<event>
 9    1  0.6296820E-005  0.1583692E+03  0.7546771E-02  0.1200079E+00
          1   -1    0    0  502    0 -0.00000000000E+00  0.00000000000E+00  0.44254247614E+02  0.44254247614E+02  0.00000000000E+00 0. -1.
         21   -1    0    0  501  502  0.00000000000E+00 -0.00000000000E+00 -0.11404895506E+04  0.11404895506E+04  0.00000000000E+00 0. -1.
         23    2    1    2    0    0 -0.57894093123E+02  0.69902548174E+02 -0.21621089776E+03  0.25153843453E+03  0.91029333048E+02 0.  0.
        -24    2    1    2    0    0 -0.78970021480E+02 -0.11498565778E+03 -0.38632051060E+03  0.41890213775E+03  0.82325562948E+02 0.  0.
         11    1    4    4    0    0 -0.47838161039E+02 -0.83950718787E+02 -0.14929475571E+03  0.17783457740E+03  0.00000000000E+00 0. -1.
        -12    1    4    4    0    0 -0.31131860441E+02 -0.31034938995E+02 -0.23702575489E+03  0.24106756035E+03  0.00000000000E+00 0.  1.
        -11    1    3    3    0    0 -0.57682040422E+02  0.12747012244E+02 -0.16328096007E+03  0.17363863634E+03  0.00000000000E+00 0.  1.
         11    1    3    3    0    0 -0.21205270120E+00  0.57155535931E+02 -0.52929937684E+02  0.77899798184E+02  0.00000000000E+00 0. -1.
          2    1    1    2  501    0  0.13686411460E+03  0.45083109607E+02 -0.49370389466E+03  0.51430322597E+03  0.00000000000E+00 0. -1.
<scales pt_clust_5="13000.00000" pt_clust_6="13000.00000" pt_clust_7="13000.00000" pt_clust_8="13000.00000" pt_clust_9="135.28973"></scales>
<clustering>
<clus scale="   82.326">  5  6 -1 -1</clus>
<clus scale="   91.029">  7  8 -1 -1</clus>
<clus scale="  128.547">  1  7  2 -1</clus>
<clus scale="  135.290">  2  9  1 -1</clus>
<clus scale="  135.290">  2  5  1 -1</clus>
</clustering>
</event>
<event>
 9    1  0.6296820E-005  0.9930976E+02  0.7546771E-02  0.1287442E+00
          3   -1    0    0  502    0 -0.00000000000E+00  0.00000000000E+00  0.61927153624E+02  0.61927153624E+02  0.00000000000E+00 0. -1.
         21   -1    0    0  501  502  0.00000000000E+00 -0.00000000000E+00 -0.47407854496E+03  0.47407854496E+03  0.00000000000E+00 0.  1.
         23    2    1    2    0    0  0.13525540447E+02  0.34076190714E+02 -0.26969575838E+01  0.97357506313E+02  0.90150337977E+02 0.  0.
        -24    2    1    2    0    0  0.80818678829E+01 -0.69228014572E+02 -0.20917153622E+03  0.23415914645E+03  0.78866594408E+02 0.  0.
         13    1    4    4    0    0  0.25610576464E+01 -0.64731073826E+02 -0.72199921907E+02  0.97002575524E+02  0.00000000000E+00 0. -1.
        -14    1    4    4    0    0  0.55208102365E+01 -0.44969407453E+01 -0.13697161431E+03  0.13715657093E+03  0.00000000000E+00 0.  1.
        -13    1    3    3    0    0 -0.24562241373E+02 -0.72766410004E+01 -0.25998973257E+02  0.36499312541E+02  0.00000000000E+00 0.  1.
         13    1    3    3    0    0  0.38087781820E+02  0.41352831714E+02  0.23302015673E+02  0.60858193772E+02  0.00000000000E+00 0. -1.
          4    1    1    2  501    0 -0.21607408330E+02  0.35151823858E+02 -0.20028289753E+03  0.20448904582E+03  0.00000000000E+00 0. -1.
<scales pt_clust_5="13000.00000" pt_clust_6="13000.00000" pt_clust_7="13000.00000" pt_clust_8="13000.00000" pt_clust_9="41.26174"></scales>
<clustering>
<clus scale="   41.262">  2  9  1 -1</clus>
<clus scale="   78.867">  5  6 -1 -1</clus>
<clus scale="   89.192">  2  5  1 -1</clus>
<clus scale="   90.150">  7  8 -1 -1</clus>
<clus scale="   41.262">  2  5  1 -1</clus>
</clustering>
</event>
<event>
 9    1  0.6296820E-005  0.1026110E+03  0.7546771E-02  0.1279019E+00
         21   -1    0    0  501  502  0.00000000000E+00  0.00000000000E+00  0.20227102757E+03  0.20227102757E+03  0.00000000000E+00 0. -1.
         -4   -1    0    0    0  501 -0.00000000000E+00 -0.00000000000E+00 -0.45847637677E+03  0.45847637677E+03  0.00000000000E+00 0.  1.
        -24    2    1    2    0    0  0.41870479192E+02  0.17255709348E+02 -0.42016861204E+03  0.43069057743E+03  0.83077159368E+02 0.  0.
         23    2    1    2    0    0 -0.40568524549E+02 -0.41937880045E+02  0.62212762868E+02  0.12534737710E+03  0.91852850334E+02 0.  0.
         13    1    3    3    0    0  0.42707472629E+02 -0.19363431191E+02 -0.12960153386E+03  0.13782390309E+03  0.00000000000E+00 0. -1.
        -14    1    3    3    0    0 -0.83699343687E+00  0.36619140539E+02 -0.29056707818E+03  0.29286667433E+03  0.00000000000E+00 0.  1.
        -11    1    4    4    0    0  0.18552699826E+02 -0.13499071044E+02 -0.12329247915E+02  0.26046841345E+02  0.00000000000E+00 0.  1.
         11    1    4    4    0    0 -0.59121224375E+02 -0.28438809001E+02  0.74542010783E+02  0.99300535752E+02  0.00000000000E+00 0. -1.
         -3    1    1    2    0  502 -0.13019546434E+01  0.24682170697E+02  0.10175049997E+03  0.10470944982E+03  0.00000000000E+00 0.  1.
<scales pt_clust_5="13000.00000" pt_clust_6="13000.00000" pt_clust_7="13000.00000" pt_clust_8="13000.00000" pt_clust_9="24.71649"></scales>
<clustering>
<clus scale="   24.716">  1  9  2 -1</clus>
<clus scale="   83.077">  5  6 -1 -1</clus>
<clus scale="   91.853">  7  8 -1 -1</clus>
<clus scale="   94.836">  2  5  1 -1</clus>
<clus scale="   24.716">  1  5  2 -1</clus>
</clustering>
</event>
<event>
 9    1  0.6296820E-005  0.9959009E+02  0.7546771E-02  0.1286522E+00
         -2   -1    0    0    0  501 -0.00000000000E+00  0.00000000000E+00  0.78328740617E+02  0.78328740617E+02  0.00000000000E+00 0.  1.
         21   -1    0    0  501  502  0.00000000000E+00 -0.00000000000E+00 -0.15521931308E+03  0.15521931308E+03  0.00000000000E+00 0. -1.
         23    2    1    2    0    0  0.40384836078E+02 -0.24410824146E+02 -0.10086437660E+02  0.10297916424E+03  0.90973340720E+02 0.  0.
        -24    2    1    2    0    0 -0.34202642815E+02  0.62541426398E+00 -0.55892005962E+02  0.10367949020E+03  0.80344934120E+02 0.  0.
         11    1    4    4    0    0 -0.45148926239E+02 -0.15726529342E+02 -0.66047846565E+02  0.81535681156E+02  0.00000000000E+00 0. -1.
        -12    1    4    4    0    0  0.10946283424E+02  0.16351943606E+02  0.10155840604E+02  0.22143809042E+02  0.00000000000E+00 0.  1.
        -13    1    3    3    0    0  0.91546426794E+01  0.33982810507E+02  0.35380967975E+01  0.35371698030E+02  0.00000000000E+00 0.  1.
         13    1    3    3    0    0  0.31230193399E+02 -0.58393634653E+02 -0.13624534458E+02  0.67607466207E+02  0.00000000000E+00 0. -1.
         -1    1    1    2    0  502 -0.61821932632E+01  0.23785409882E+02 -0.10912128840E+02  0.26889399261E+02  0.00000000000E+00 0.  1.
<scales pt_clust_5="13000.00000" pt_clust_6="13000.00000" pt_clust_7="13000.00000" pt_clust_8="13000.00000" pt_clust_9="24.57570"></scales>
<clustering>
<clus scale="   24.576">  2  9  1 -1</clus>
<clus scale="   80.345">  5  6 -1 -1</clus>
<clus scale="   89.985">  2  5  1 -1</clus>
<clus scale="   90.973">  7  8 -1 -1</clus>
<clus scale="   24.576">  2  5  1 -1</clus>
</clustering>
</event>
<event>
 9    1  0.7834769E-005  0.9762673E+02  0.7546771E-02  0.1291099E+00
         -2   -1    0    0    0  501 -0.00000000000E+00  0.00000000000E+00  0.21380293896E+03  0.21380293896E+03  0.00000000000E+00 0.  1.
         21   -1    0    0  501  502  0.00000000000E+00 -0.00000000000E+00 -0.20608005961E+03  0.20608005961E+03  0.00000000000E+00 0. -1.
        -24    2    1    2    0    0 -0.10898356134E+02 -0.32580297801E+02  0.17209336118E+03  0.19275938913E+03  0.79748399144E+02 0.  0.
         23    2    1    2    0    0  0.30705798417E+02  0.47851249643E+02 -0.66120351147E+02  0.12574005595E+03  0.90587375973E+02 0.  0.
         13    1    3    3    0    0  0.11798335223E+01  0.25362748468E+02  0.33324085570E+02  0.41894578362E+02  0.00000000000E+00 0. -1.
        -14    1    3    3    0    0 -0.12078189656E+02 -0.57943046269E+02  0.13876927561E+03  0.15086481077E+03  0.00000000000E+00 0.  1.
        -13    1    4    4    0    0  0.11717475707E+02 -0.25893253841E+02 -0.30439749007E+02  0.41645385711E+02  0.00000000000E+00 0.  1.
         13    1    4    4    0    0  0.18988322710E+02  0.73744503484E+02 -0.35680602140E+02  0.84094670238E+02  0.00000000000E+00 0. -1.
         -1    1    1    2    0  502 -0.19807442283E+02 -0.15270951842E+02 -0.98250130678E+02  0.10138355349E+03  0.00000000000E+00 0.  1.
<scales pt_clust_5="13000.00000" pt_clust_6="13000.00000" pt_clust_7="13000.00000" pt_clust_8="13000.00000" pt_clust_9="25.01073"></scales>
<clustering>
<clus scale="   25.011">  2  9  1 -1</clus>
<clus scale="   79.748">  5  6 -1 -1</clus>
<clus scale="   87.662">  1  5  2 -1</clus>
<clus scale="   90.587">  7  8 -1 -1</clus>
<clus scale="   25.011">  2  5  1 -1</clus>
</clustering>
</event>
<event>
 9    1  0.6296820E-005  0.1101834E+03  0.7546771E-02  0.1261890E+00
         21   -1    0    0  501  502  0.00000000000E+00  0.00000000000E+00  0.41673381992E+02  0.41673381992E+02  0.00000000000E+00 0.  1.
          3   -1    0    0  502    0 -0.00000000000E+00 -0.00000000000E+00 -0.51719397941E+03  0.51719397941E+03  0.00000000000E+00 0. -1.
        -24    2    1    2    0    0  0.73792891535E+02 -0.18508402496E+02 -0.29503977648E+03  0.31684891667E+03  0.86929940104E+02 0.  0.
         23    2    1    2    0    0 -0.44937358784E+02  0.25872492180E+01 -0.18256774393E+03  0.20899602599E+03  0.91226628132E+02 0.  0.
         13    1    3    3    0    0  0.43934681769E+02 -0.53354701960E+02 -0.16240984466E+03  0.17650478216E+03  0.00000000000E+00 0. -1.
        -14    1    3    3    0    0  0.29858209766E+02  0.34846299464E+02 -0.13262993182E+03  0.14034413451E+03  0.00000000000E+00 0.  1.
        -11    1    4    4    0    0 -0.34855012522E+02  0.24399727420E+02 -0.17984862765E+03  0.18481273620E+03  0.00000000000E+00 0.  1.
         11    1    4    4    0    0 -0.10082346262E+02 -0.21812478202E+02 -0.27191162871E+01  0.24183289785E+02  0.00000000000E+00 0. -1.
          4    1    1    2  501    0 -0.28855532751E+02  0.15921153278E+02  0.20869229953E+01  0.33022418743E+02  0.00000000000E+00 0. -1.
<scales pt_clust_5="13000.00000" pt_clust_6="13000.00000" pt_clust_7="13000.00000" pt_clust_8="13000.00000" pt_clust_9="32.95641"></scales>
<clustering>
<clus scale="   32.956">  1  9  2 -1</clus>
<clus scale="   86.930">  5  6 -1 -1</clus>
<clus scale="   91.227">  7  8 -1 -1</clus>
<clus scale="  106.653">  2  5  1 -1</clus>
<clus scale="   32.956">  1  5  2 -1</clus>
</clustering>
</event>
<event>
 9    1  0.6296820E-005  0.1001955E+03  0.7546771E-02  0.1285240E+00
         21   -1    0    0  501  502  0.00000000000E+00  0.00000000000E+00  0.83562720815E+03  0.83562720815E+03  0.00000000000E+00 0.  1.
          3   -1    0    0  502    0 -0.00000000000E+00 -0.00000000000E+00 -0.23360042990E+02  0.23360042990E+02  0.00000000000E+00 0. -1.
         23    2    1    2    0    0  0.32465256261E+02 -0.48337906135E+01  0.24079063402E+03  0.25978897117E+03  0.91830396447E+02 0.  0.
        -24    2    1    2    0    0 -0.20131643158E+02  0.69701745516E+02  0.42144175714E+03  0.43527633820E+03  0.81170928006E+02 0.  0.
         11    1    4    4    0    0 -0.33212034125E+02  0.31915894495E+02  0.86894366290E+02  0.98347823693E+02  0.00000000000E+00 0. -1.
        -12    1    4    4    0    0  0.13080390967E+02  0.37785851021E+02  0.33454739085E+03  0.33692851451E+03  0.00000000000E+00 0.  1.
        -13    1    3    3    0    0  0.30197811604E+02 -0.46528847511E+02  0.14725542219E+03  0.15735628631E+03  0.00000000000E+00 0. -1.
         13    1    3    3    0    0  0.22674446571E+01  0.41695056898E+02  0.93535211832E+02  0.10243268486E+03  0.00000000000E+00 0.  1.
          4    1    1    2  501    0 -0.12333613103E+02 -0.64867954902E+02  0.15003477400E+03  0.16392194177E+03  0.00000000000E+00 0. -1.
<scales pt_clust_5="13000.00000" pt_clust_6="13000.00000" pt_clust_7="13000.00000" pt_clust_8="13000.00000" pt_clust_9="66.03010"></scales>
<clustering>
<clus scale="   66.030">  1  9  2 -1</clus>
<clus scale="   81.171">  5  6 -1 -1</clus>
<clus scale="   90.526">  1  5  2 -1</clus>
<clus scale="   91.830">  7  8 -1 -1</clus>
<clus scale="   66.030">  1  5  2 -1</clus>
</clustering>
</event>
<event>
 9    1  0.6296820E-005  0.1062158E+03  0.7546771E-02  0.1273733E+00
         -2   -1    0    0    0  501 -0.00000000000E+00  0.00000000000E+00  0.41150018637E+03  0.41150018637E+03  0.00000000000E+00 0.  1.
         21   -1    0    0  501  502  0.00000000000E+00 -0.00000000000E+00 -0.59037352128E+02  0.59037352128E+02  0.00000000000E+00 0.  1.
        -24    2    1    2    0    0 -0.44243948092E+02 -0.16588793424E+02  0.25507463926E+03  0.27183992981E+03  0.81247528192E+02 0.  0.
         23    2    1    2    0    0  0.58252402629E+02 -0.18780697978E+02  0.11117551324E+03  0.15823370050E+03  0.94508476877E+02 0.  0.
         13    1    3    3    0    0  0.68996917855E+01 -0.28013597231E+02  0.33773033391E+02  0.44418297592E+02  0.00000000000E+00 0. -1.
        -14    1    3    3    0    0 -0.51143639878E+02  0.11424803807E+02  0.22130160587E+03  0.22742163222E+03  0.00000000000E+00 0.  1.
        -13    1    4    4    0    0  0.58538901742E+02  0.26166104584E+02  0.84118928035E+02  0.10577079985E+03  0.00000000000E+00 0.  1.
         13    1    4    4    0    0 -0.28649911394E+00 -0.44946802562E+02  0.27056585208E+02  0.52462900657E+02  0.00000000000E+00 0. -1.
         -1    1    1    2    0  502 -0.14008454536E+02  0.35369491402E+02 -0.13787318260E+02  0.40463908182E+02  0.00000000000E+00 0.  1.
<scales pt_clust_5="13000.00000" pt_clust_6="13000.00000" pt_clust_7="13000.00000" pt_clust_8="13000.00000" pt_clust_9="38.04258"></scales>
<clustering>
<clus scale="   38.043">  2  9  1 -1</clus>
<clus scale="   81.248">  5  6 -1 -1</clus>
<clus scale="   94.508">  7  8 -1 -1</clus>
<clus scale="   94.610">  1  5  2 -1</clus>
<clus scale="   38.043">  2  5  1 -1</clus>
</clustering>
</event>
<event>
 9    1  0.6296820E-005  0.1068187E+03  0.7546771E-02  0.1270975E+00
          1   -1    0    0  502    0 -0.00000000000E+00  0.00000000000E+00  0.17394429241E+03  0.17394429241E+03  0.00000000000E+00 0. -1.
         21   -1    0    0  501  502  0.00000000000E+00 -0.00000000000E+00 -0.88871111061E+02  0.88871111061E+02  0.00000000000E+00 0.  1.
        -24    2    1    2    0    0  0.54506798081E+02  0.44916883065E+02  0.48475932833E+02  0.11694605585E+03  0.79611220908E+02 0.  0.
         23    2    1    2    0    0 -0.39387625882E+02 -0.12616084984E+02  0.68303330483E+01  0.99415067071E+02  0.90145168691E+02 0.  0.
         11    1    3    3    0    0  0.28128835894E+02  0.48712797719E+02  0.64709907932E+02  0.85741123476E+02  0.00000000000E+00 0. -1.
        -12    1    3    3    0    0  0.26377962187E+02 -0.37959146548E+01 -0.16233975099E+02  0.31204932378E+02  0.00000000000E+00 0.  1.
        -11    1    4    4    0    0 -0.76909148695E+01  0.25187372248E+02 -0.28447394344E+02  0.38766069407E+02  0.00000000000E+00 0.  1.
         11    1    4    4    0    0 -0.31696711012E+02 -0.37803457232E+02  0.35277727393E+02  0.60648997664E+02  0.00000000000E+00 0. -1.
          2    1    1    2  501    0 -0.15119172200E+02 -0.32300798081E+02  0.29766915472E+02  0.46454280549E+02  0.00000000000E+00 0. -1.
<scales pt_clust_5="13000.00000" pt_clust_6="13000.00000" pt_clust_7="13000.00000" pt_clust_8="13000.00000" pt_clust_9="35.66416"></scales>
<clustering>
<clus scale="   35.664">  2  9  1 -1</clus>
<clus scale="   79.611">  5  6 -1 -1</clus>
<clus scale="   90.145">  7  8 -1 -1</clus>
<clus scale="   98.092">  1  5  2 -1</clus>
<clus scale="   35.664">  2  5  1 -1</clus>
</clustering>
</event>
<event>
 9    1  0.6296820E-005  0.1059728E+03  0.7546771E-02  0.1273002E+00
         -2   -1    0    0    0  501 -0.00000000000E+00  0.00000000000E+00  0.41083812371E+03  0.41083812371E+03  0.00000000000E+00 0.  1.
         21   -1    0    0  501  502  0.00000000000E+00 -0.00000000000E+00 -0.43415355187E+02  0.43415355187E+02  0.00000000000E+00 0.  1.
        -24    2    1    2    0    0 -0.19673610301E+02  0.59855437792E+02  0.17961687029E+03  0.20673510611E+03  0.80668826879E+02 0.  0.
         23    2    1    2    0    0 -0.28048397385E+02 -0.45006228307E+02  0.15502804588E+03  0.18774984725E+03  0.91673534627E+02 0.  0.
         13    1    3    3    0    0  0.48371878601E+01  0.65374577152E+02  0.77179310967E+02  0.10126144264E+03  0.00000000000E+00 0. -1.
        -14    1    3    3    0    0 -0.24510798161E+02 -0.55191393600E+01  0.10243755932E+03  0.10547366347E+03  0.00000000000E+00 0.  1.
        -13    1    4    4    0    0 -0.47519271476E+02  0.78677159210E+01  0.56461383298E+02  0.74215024889E+02  0.00000000000E+00 0.  1.
         13    1    4    4    0    0  0.19470874091E+02 -0.52873944228E+02  0.98566662586E+02  0.11353482237E+03  0.00000000000E+00 0. -1.
         -1    1    1    2    0  502  0.47722007686E+02 -0.14849209485E+02  0.32777852351E+02  0.59768525535E+02  0.00000000000E+00 0.  1.
<scales pt_clust_5="13000.00000" pt_clust_6="13000.00000" pt_clust_7="13000.00000" pt_clust_8="13000.00000" pt_clust_9="49.97889"></scales>
<clustering>
<clus scale="   49.979">  2  9  1 -1</clus>
<clus scale="   80.669">  5  6 -1 -1</clus>
<clus scale="   91.674">  7  8 -1 -1</clus>
<clus scale="   96.611">  1  5  2 -1</clus>
<clus scale="   49.979">  2  5  1 -1</clus>
</clustering>
</event>
<event>
 9    1  0.6296820E-005  0.9722178E+02  0.7546771E-02  0.1289803E+00
         21   -1    0    0  501  502  0.00000000000E+00  0.00000000000E+00  0.83847310949E+02  0.83847310949E+02  0.00000000000E+00 0.  1.
          1   -1    0    0  502    0 -0.00000000000E+00 -0.00000000000E+00 -0.31083786754E+03  0.31083786754E+03  0.00000000000E+00 0. -1.
        -24    2    1    2    0    0 -0.31507941519E+02 -0.17167416084E+02 -0.12885970314E+03  0.15716388499E+03  0.82511775512E+02 0.  0.
         23    2    1    2    0    0  0.64220130877E+02 -0.44837299156E+02 -0.24062839399E+01  0.11887111334E+03  0.89386479837E+02 0.  0.
         11    1    3    3    0    0  0.12728738948E+01  0.21392776803E+02 -0.92232994489E+02  0.94690001477E+02  0.00000000000E+00 0. -1.
        -12    1    3    3    0    0 -0.32780815413E+02 -0.38560192886E+02 -0.36626708650E+02  0.62473883512E+02  0.00000000000E+00 0.  1.
        -13    1    4    4    0    0  0.68764227567E+02 -0.41750417991E+00 -0.18826391550E+02  0.71296047025E+02  0.00000000000E+00 0.  1.
         13    1    4    4    0    0 -0.45440966898E+01 -0.44419794976E+02  0.16420107610E+02  0.47575066310E+02  0.00000000000E+00 0. -1.
          2    1    1    2  501    0 -0.32712189359E+02  0.62004715240E+02 -0.95724569508E+02  0.11865018016E+03  0.00000000000E+00 0. -1.
<scales pt_clust_5="13000.00000" pt_clust_6="13000.00000" pt_clust_7="13000.00000" pt_clust_8="13000.00000" pt_clust_9="70.10476"></scales>
<clustering>
<clus scale="   70.105">  1  9  2 -1</clus>
<clus scale="   82.512">  5  6 -1 -1</clus>
<clus scale="   89.386">  7  8 -1 -1</clus>
<clus scale="   90.941">  2  5  1 -1</clus>
<clus scale="   70.105">  1  5  2 -1</clus>
</clustering>
</event>
<event>
 9    1  0.6296820E-005  0.2040886E+03  0.7546771E-02  0.1147301E+00
         21   -1    0    0  501  502  0.00000000000E+00  0.00000000000E+00  0.18610274953E+03  0.18610274953E+03  0.00000000000E+00 0.  1.
          1   -1    0    0  502    0 -0.00000000000E+00 -0.00000000000E+00 -0.42822655736E+03  0.42822655736E+03  0.00000000000E+00 0. -1.
        -24    2    1    2    0    0  0.12562207410E+03  0.79908582588E+02 -0.71191391150E+02  0.18328033740E+03  0.79731931071E+02 0.  0.
         23    2    1    2    0    0 -0.23636284177E+03 -0.16509635347E+02 -0.16630158837E+03  0.30336032980E+03  0.90726569291E+02 0.  0.
         11    1    3    3    0    0  0.27989915935E+02  0.57664497957E+02 -0.49087934468E+02  0.80735710990E+02  0.00000000000E+00 0. -1.
        -12    1    3    3    0    0  0.97632158164E+02  0.22244084631E+02 -0.22103456681E+02  0.10254462641E+03  0.00000000000E+00 0.  1.
        -13    1    4    4    0    0 -0.29215980227E+02 -0.35152638259E+02 -0.28430429939E+02  0.53829089011E+02  0.00000000000E+00 0. -1.
         13    1    4    4    0    0 -0.20714686154E+03  0.18643002913E+02 -0.13787115843E+03  0.24953124079E+03  0.00000000000E+00 0.  1.
          2    1    1    2  501    0  0.11074076767E+03 -0.63398947242E+02 -0.46308283033E+01  0.12768863969E+03  0.00000000000E+00 0. -1.
<scales pt_clust_5="13000.00000" pt_clust_6="13000.00000" pt_clust_7="13000.00000" pt_clust_8="13000.00000" pt_clust_9="127.60464"></scales>
<clustering>
<clus scale="   79.732">  5  6 -1 -1</clus>
<clus scale="   90.727">  7  8 -1 -1</clus>
<clus scale="  127.605">  1  9  2 -1</clus>
<clus scale="  199.444">  2  5  1 -1</clus>
<clus scale="  127.605">  1  5  2 -1</clus>
</clustering>
</event>
<event>
 9    1  0.6296820E-005  0.9573230E+02  0.7546771E-02  0.1298152E+00
         21   -1    0    0  501  502  0.00000000000E+00  0.00000000000E+00  0.40355264455E+03  0.40355264455E+03  0.00000000000E+00 0. -1.
          1   -1    0    0  502    0 -0.00000000000E+00 -0.00000000000E+00 -0.77150983771E+02  0.77150983771E+02  0.00000000000E+00 0. -1.
        -24    2    1    2    0    0 -0.15930424873E+02 -0.67680596317E+01  0.12773193947E+02  0.83063491789E+02  0.80229695978E+02 0.  0.
         23    2    1    2    0    0 -0.10224085713E+02  0.87868200568E+01  0.34427833545E+03  0.35729725285E+03  0.94615085973E+02 0.  0.
         13    1    3    3    0    0  0.14086180235E+02  0.29074765542E+02  0.16286249709E+02  0.36180165761E+02  0.00000000000E+00 0. -1.
        -14    1    3    3    0    0 -0.30016605108E+02 -0.35842825174E+02 -0.35130557613E+01  0.46883326028E+02  0.00000000000E+00 0.  1.
        -13    1    4    4    0    0 -0.24968322980E+02  0.47694562540E+02  0.20330337123E+03  0.21031036399E+03  0.00000000000E+00 0.  1.
         13    1    4    4    0    0  0.14744237267E+02 -0.38907742484E+02  0.14097496422E+03  0.14698688886E+03  0.00000000000E+00 0. -1.
          2    1    1    2  501    0  0.26154510586E+02 -0.20187604250E+01 -0.30649868621E+02  0.40342883686E+02  0.00000000000E+00 0. -1.
<scales pt_clust_5="13000.00000" pt_clust_6="13000.00000" pt_clust_7="13000.00000" pt_clust_8="13000.00000" pt_clust_9="26.23232"></scales>
<clustering>
<clus scale="   26.232">  1  9  2 -1</clus>
<clus scale="   80.230">  5  6 -1 -1</clus>
<clus scale="   81.544">  2  5  1 -1</clus>
<clus scale="   94.615">  7  8 -1 -1</clus>
<clus scale="   26.232">  1  5  2 -1</clus>
</clustering>
</event>
<event>
 9    1  0.6296820E-005  0.1064585E+03  0.7546771E-02  0.1272660E+00
          1   -1    0    0  502    0 -0.00000000000E+00  0.00000000000E+00  0.51766438374E+03  0.51766438374E+03  0.00000000000E+00 0. -1.
         21   -1    0    0  501  502  0.00000000000E+00 -0.00000000000E+00 -0.88040060441E+02  0.88040060441E+02  0.00000000000E+00 0. -1.
        -24    2    1    2    0    0 -0.52157465127E+02  0.16726547383E+01  0.36914264641E+03  0.38100664900E+03  0.78591184223E+02 0.  0.
         23    2    1    2    0    0  0.65850808839E+02  0.22471561148E+02  0.11569759324E+03  0.16289772850E+03  0.91150626905E+02 0.  0.
         13    1    3    3    0    0 -0.57509017103E+02  0.26306349438E+02  0.31497084473E+03  0.32125681953E+03  0.00000000000E+00 0. -1.
        -14    1    3    3    0    0  0.53515519755E+01 -0.24633694700E+02  0.54171801689E+02  0.59749829467E+02  0.00000000000E+00 0.  1.
        -13    1    4    4    0    0  0.64351588575E+01  0.22818798164E+02  0.98108064373E+02  0.10093216095E+03  0.00000000000E+00 0. -1.
         13    1    4    4    0    0  0.59415649982E+02 -0.34723701641E+00  0.17589528864E+02  0.61965567551E+02  0.00000000000E+00 0.  1.
          2    1    1    2  501    0 -0.13693343712E+02 -0.24144215886E+02 -0.55215916354E+02  0.61800066679E+02  0.00000000000E+00 0. -1.
<scales pt_clust_5="13000.00000" pt_clust_6="13000.00000" pt_clust_7="13000.00000" pt_clust_8="13000.00000" pt_clust_9="27.75700"></scales>
<clustering>
<clus scale="   27.757">  2  9  1 -1</clus>
<clus scale="   78.591">  5  6 -1 -1</clus>
<clus scale="   91.151">  7  8 -1 -1</clus>
<clus scale="   95.925">  1  5  2 -1</clus>
<clus scale="   27.757">  2  5  1 -1</clus>
</clustering>
</event>
<event>
 9    1  0.6296820E-005  0.1062283E+03  0.7546771E-02  0.1273148E+00
         21   -1    0    0  501  502  0.00000000000E+00  0.00000000000E+00  0.10510446004E+03  0.10510446004E+03  0.00000000000E+00 0. -1.
          1   -1    0    0  502    0 -0.00000000000E+00 -0.00000000000E+00 -0.39632202740E+03  0.39632202740E+03  0.00000000000E+00 0. -1.
         23    2    1    2    0    0 -0.51577232731E+02  0.29790322599E+02 -0.10739183162E+03  0.15288704274E+03  0.91070127276E+02 0.  0.
        -24    2    1    2    0    0  0.58134669128E+02  0.42795392909E+02  0.39436479872E+02  0.11368267348E+03  0.78469286327E+02 0.  0.
         11    1    4    4    0    0  0.66952123469E+02  0.19276241936E+02  0.50688703935E+02  0.86159764663E+02  0.00000000000E+00 0. -1.
        -12    1    4    4    0    0 -0.88174543406E+01  0.23519150973E+02 -0.11252224063E+02  0.27522908820E+02  0.00000000000E+00 0.  1.
        -13    1    3    3    0    0 -0.14776025907E+01  0.32165474811E+02  0.22906998727E+01  0.32280774234E+02  0.00000000000E+00 0. -1.
         13    1    3    3    0    0 -0.50099630141E+02 -0.23751522124E+01 -0.10968253149E+03  0.12060626850E+03  0.00000000000E+00 0.  1.
          2    1    1    2  501    0 -0.65574363968E+01 -0.72585715508E+02 -0.22326221561E+03  0.23485677122E+03  0.00000000000E+00 0. -1.
<scales pt_clust_5="13000.00000" pt_clust_6="13000.00000" pt_clust_7="13000.00000" pt_clust_8="13000.00000" pt_clust_9="72.88135"></scales>
<clustering>
<clus scale="   72.881">  1  9  2 -1</clus>
<clus scale="   78.469">  5  6 -1 -1</clus>
<clus scale="   91.070">  7  8 -1 -1</clus>
<clus scale="   95.646">  1  5  2 -1</clus>
<clus scale="   72.881">  1  5  2 -1</clus>
</clustering>
</event>
<event>
 9    1  0.6296820E-005  0.1281507E+03  0.7546771E-02  0.1233654E+00
          1   -1    0    0  502    0 -0.00000000000E+00  0.00000000000E+00  0.47608216418E+03  0.47608216418E+03  0.00000000000E+00 0. -1.
         21   -1    0    0  501  502  0.00000000000E+00 -0.00000000000E+00 -0.97142335222E+02  0.97142335222E+02  0.00000000000E+00 0. -1.
         23    2    1    2    0    0 -0.37276610379E+02  0.84954481645E+02  0.36770491606E+03  0.39072632531E+03  0.94092222632E+02 0.  0.
        -24    2    1    2    0    0 -0.12123025691E+02 -0.76894489517E+02  0.45600794269E+02  0.12178325567E+03  0.81804637111E+02 0.  0.
         11    1    4    4    0    0 -0.26867742372E+02 -0.79222783102E+02  0.58479153803E+02  0.10206829269E+03  0.00000000000E+00 0. -1.
        -12    1    4    4    0    0  0.14744716681E+02  0.23282935848E+01 -0.12878359534E+02  0.19714962980E+02  0.00000000000E+00 0.  1.
        -13    1    3    3    0    0 -0.24779598150E+02  0.10494989222E+03  0.28473505046E+03  0.30447094660E+03  0.00000000000E+00 0. -1.
         13    1    3    3    0    0 -0.12497012228E+02 -0.19995410574E+02  0.82969865598E+02  0.86255378708E+02  0.00000000000E+00 0.  1.
          2    1    1    2  501    0  0.49399636070E+02 -0.80599921278E+01 -0.34365881373E+02  0.60714918426E+02  0.00000000000E+00 0. -1.
<scales pt_clust_5="13000.00000" pt_clust_6="13000.00000" pt_clust_7="13000.00000" pt_clust_8="13000.00000" pt_clust_9="50.05285"></scales>
<clustering>
<clus scale="   50.053">  2  9  1 -1</clus>
<clus scale="   81.805">  5  6 -1 -1</clus>
<clus scale="   94.092">  7  8 -1 -1</clus>
<clus scale="  119.421">  2  5  1 -1</clus>
<clus scale="   50.053">  2  5  1 -1</clus>
</clustering>
</event>
<event>
 9    1  0.6296820E-005  0.2042168E+03  0.7546771E-02  0.1146229E+00
         21   -1    0    0  501  502  0.00000000000E+00  0.00000000000E+00  0.50711075710E+03  0.50711075710E+03  0.00000000000E+00 0. -1.
          1   -1    0    0  502    0 -0.00000000000E+00 -0.00000000000E+00 -0.43972551778E+02  0.43972551778E+02  0.00000000000E+00 0. -1.
        -24    2    1    2    0    0  0.48494188435E+02  0.59366036490E+02  0.19135729744E+03  0.22060600114E+03  0.78570858801E+02 0.  0.
         23    2    1    2    0    0  0.20550384209E+02  0.50279987297E+01  0.12188285602E+03  0.15332434916E+03  0.90583256680E+02 0.  0.
         11    1    3    3    0    0  0.40542524579E+02  0.78879905456E+02  0.15350098327E+03  0.17728025172E+03  0.00000000000E+00 0. -1.
        -12    1    3    3    0    0  0.79516638563E+01 -0.19513868966E+02  0.37856314166E+02  0.43325749415E+02  0.00000000000E+00 0.  1.
        -11    1    4    4    0    0  0.40305988236E+02 -0.30047207722E+02  0.49806027950E+02  0.70767561776E+02  0.00000000000E+00 0.  1.
         11    1    4    4    0    0 -0.19755604028E+02  0.35075206452E+02  0.72076828071E+02  0.82556787382E+02  0.00000000000E+00 0. -1.
          2    1    1    2  501    0 -0.69044572644E+02 -0.64394035220E+02  0.14989805187E+03  0.17715295859E+03  0.00000000000E+00 0. -1.
<scales pt_clust_5="13000.00000" pt_clust_6="13000.00000" pt_clust_7="13000.00000" pt_clust_8="13000.00000" pt_clust_9="94.41263"></scales>
<clustering>
<clus scale="   78.571">  5  6 -1 -1</clus>
<clus scale="   90.583">  7  8 -1 -1</clus>
<clus scale="   92.882">  5  7 -1 -1</clus>
<clus scale="   94.413">  1  9  2 -1</clus>
<clus scale="   94.413">  1  5  2 -1</clus>
</clustering>
</event>
<event>
 9    1  0.6296820E-005  0.1068570E+03  0.7546771E-02  0.1267978E+00
         21   -1    0    0  501  502  0.00000000000E+00  0.00000000000E+00  0.16822849312E+03  0.16822849312E+03  0.00000000000E+00 0. -1.
          3   -1    0    0  502    0 -0.00000000000E+00 -0.00000000000E+00 -0.35807368742E+03  0.35807368742E+03  0.00000000000E+00 0. -1.
        -24    2    1    2    0    0  0.72134663505E+02  0.14347470443E+02 -0.27337439481E+03  0.29430903985E+03  0.80467332557E+02 0.  0.
         23    2    1    2    0    0 -0.13562998506E+02 -0.63358220410E+02 -0.14929343972E+02  0.10738664593E+03  0.84325484818E+02 0.  0.
         11    1    3    3    0    0  0.40513560847E+01 -0.26595933405E+02 -0.44077544530E+02  0.51639007461E+02  0.00000000000E+00 0. -1.
        -12    1    3    3    0    0  0.68083307421E+02  0.40943403848E+02 -0.22929685028E+03  0.24267003239E+03  0.00000000000E+00 0.  1.
        -13    1    4    4    0    0  0.13186011214E+02  0.15955020173E+02  0.51072875855E+01  0.21319426516E+02  0.00000000000E+00 0.  1.
         13    1    4    4    0    0 -0.26749009721E+02 -0.79313240583E+02 -0.20036631558E+02  0.86067219410E+02  0.00000000000E+00 0. -1.
          4    1    1    2  501    0 -0.58571664999E+02  0.49010749967E+02  0.98458544487E+02  0.12460649476E+03  0.00000000000E+00 0. -1.
<scales pt_clust_5="13000.00000" pt_clust_6="13000.00000" pt_clust_7="13000.00000" pt_clust_8="13000.00000" pt_clust_9="76.37207"></scales>
<clustering>
<clus scale="   76.372">  1  9  2 -1</clus>
<clus scale="   80.467">  5  6 -1 -1</clus>
<clus scale="   84.325">  7  8 -1 -1</clus>
<clus scale="  103.839">  2  5  1 -1</clus>
<clus scale="   76.372">  1  5  2 -1</clus>
</clustering>
</event>
<event>
 9    1  0.6296820E-005  0.9888778E+02  0.7546771E-02  0.1289458E+00
          3   -1    0    0  502    0 -0.00000000000E+00  0.00000000000E+00  0.40786569448E+02  0.40786569448E+02  0.00000000000E+00 0. -1.
         21   -1    0    0  501  502  0.00000000000E+00 -0.00000000000E+00 -0.35437749267E+03  0.35437749267E+03  0.00000000000E+00 0.  1.
         23    2    1    2    0    0  0.36859029629E+02  0.17105562267E+02 -0.96041378999E+02  0.13777384563E+03  0.90036091292E+02 0.  0.
        -24    2    1    2    0    0 -0.46925055198E+02  0.13976281099E+02 -0.20122446601E+03  0.22086742858E+03  0.76771336103E+02 0.  0.
         13    1    4    4    0    0  0.63446723651E+01  0.29900987561E+02 -0.40110960033E+02  0.50430278993E+02  0.00000000000E+00 0. -1.
        -14    1    4    4    0    0 -0.53269727563E+02 -0.15924706462E+02 -0.16111350597E+03  0.17043714958E+03  0.00000000000E+00 0.  1.
        -13    1    3    3    0    0 -0.28223284350E+02  0.16454202365E+02 -0.23071641347E+02  0.39994939547E+02  0.00000000000E+00 0.  1.
         13    1    3    3    0    0  0.65082313979E+02  0.65135990204E+00 -0.72969737652E+02  0.97778906087E+02  0.00000000000E+00 0. -1.
          4    1    1    2  501    0  0.10066025569E+02 -0.31081843366E+02 -0.16325078216E+02  0.36522787907E+02  0.00000000000E+00 0. -1.
<scales pt_clust_5="13000.00000" pt_clust_6="13000.00000" pt_clust_7="13000.00000" pt_clust_8="13000.00000" pt_clust_9="32.67119"></scales>
<clustering>
<clus scale="   32.671">  2  9  1 -1</clus>
<clus scale="   76.771">  5  6 -1 -1</clus>
<clus scale="   86.984">  2  5  1 -1</clus>
<clus scale="   90.036">  7  8 -1 -1</clus>
<clus scale="   32.671">  2  5  1 -1</clus>
</clustering>
</event>
<event>
 9    1  0.6296820E-005  0.9401197E+02  0.7546771E-02  0.1300769E+00
          3   -1    0    0  502    0 -0.00000000000E+00  0.00000000000E+00  0.69556802701E+02  0.69556802701E+02  0.00000000000E+00 0. -1.
         21   -1    0    0  501  502  0.00000000000E+00 -0.00000000000E+00 -0.17696623024E+03  0.17696623024E+03  0.00000000000E+00 0. -1.
         23    2    1    2    0    0  0.27226946795E+01 -0.30733893586E+02 -0.16875951312E+02  0.98632311212E+02  0.92149605540E+02 0.  0.
        -24    2    1    2    0    0 -0.74632074975E+01 -0.27217315461E+01 -0.77728904196E+02  0.11175613470E+03  0.79903340395E+02 0.  0.
         11    1    4    4    0    0  0.18369123463E+02 -0.21482500794E+02 -0.58987534647E+00  0.28271372271E+02  0.00000000000E+00 0. -1.
        -12    1    4    4    0    0 -0.25832330960E+02  0.18760769248E+02 -0.77139028849E+02  0.83484762427E+02  0.00000000000E+00 0.  1.
        -13    1    3    3    0    0  0.38780774429E+02  0.10597530607E+02  0.29471242393E+01  0.40310565136E+02  0.00000000000E+00 0.  1.
         13    1    3    3    0    0 -0.36058079750E+02 -0.41331424193E+02 -0.19823075551E+02  0.58321746076E+02  0.00000000000E+00 0. -1.
          4    1    1    2  501    0  0.47405128180E+01  0.33455625132E+02 -0.12804572028E+02  0.36134587027E+02  0.00000000000E+00 0. -1.
<scales pt_clust_5="13000.00000" pt_clust_6="13000.00000" pt_clust_7="13000.00000" pt_clust_8="13000.00000" pt_clust_9="33.78983"></scales>
<clustering>
<clus scale="   33.790">  2  9  1 -1</clus>
<clus scale="   79.903">  5  6 -1 -1</clus>
<clus scale="   82.044">  2  5  1 -1</clus>
<clus scale="   92.150">  7  8 -1 -1</clus>
<clus scale="   33.790">  2  5  1 -1</clus>
</clustering>
</event>
<event>
 9    1  0.6296820E-005  0.1700877E+03  0.7546771E-02  0.1195843E+00
         21   -1    0    0  501  502  0.00000000000E+00  0.00000000000E+00  0.66257587398E+02  0.66257587398E+02  0.00000000000E+00 0. -1.
          1   -1    0    0  502    0 -0.00000000000E+00 -0.00000000000E+00 -0.78133797627E+03  0.78133797627E+03  0.00000000000E+00 0. -1.
        -24    2    1    2    0    0 -0.35568806111E+02 -0.72024744837E+02 -0.28760785491E+03  0.30930538417E+03  0.80615374667E+02 0.  0.
         23    2    1    2    0    0  0.81391610038E+02 -0.94757066725E+02 -0.20225873017E+03  0.25432335142E+03  0.90378522180E+02 0.  0.
         11    1    3    3    0    0 -0.31641655120E+02 -0.77827854242E+02 -0.28998192895E+03  0.30190708563E+03  0.00000000000E+00 0. -1.
        -12    1    3    3    0    0 -0.39271509913E+01  0.58031094051E+01  0.23740740440E+01  0.73982985370E+01  0.00000000000E+00 0.  1.
        -11    1    4    4    0    0  0.72411048198E+02 -0.58684101413E+02 -0.19544281314E+03  0.21652962122E+03  0.00000000000E+00 0. -1.
         11    1    4    4    0    0  0.89805618398E+01 -0.36072965312E+02 -0.68159170274E+01  0.37793730199E+02  0.00000000000E+00 0.  1.
          2    1    1    2  501    0 -0.45822803927E+02  0.16678181156E+03 -0.22521380379E+03  0.28396682808E+03  0.00000000000E+00 0. -1.
<scales pt_clust_5="13000.00000" pt_clust_6="13000.00000" pt_clust_7="13000.00000" pt_clust_8="13000.00000" pt_clust_9="144.08879"></scales>
<clustering>
<clus scale="   80.615">  5  6 -1 -1</clus>
<clus scale="   90.379">  7  8 -1 -1</clus>
<clus scale="  113.805">  2  5  1 -1</clus>
<clus scale="  144.089">  1  9  2 -1</clus>
<clus scale="  144.089">  1  5  2 -1</clus>
</clustering>
</event>
<event>
 9    1  0.6296820E-005  0.1138446E+03  0.7546771E-02  0.1256720E+00
         -2   -1    0    0    0  501 -0.00000000000E+00  0.00000000000E+00  0.89240206266E+03  0.89240206266E+03  0.00000000000E+00 0.  1.
         21   -1    0    0  501  502  0.00000000000E+00 -0.00000000000E+00 -0.27541084901E+02  0.27541084901E+02  0.00000000000E+00 0. -1.
        -24    2    1    2    0    0  0.33677868225E+02 -0.78794742279E+02  0.50439463054E+03  0.51824480143E+03  0.82588865289E+02 0.  0.
         23    2    1    2    0    0  0.27472577119E+02  0.49144208372E+02  0.24977583787E+03  0.27181024050E+03  0.91230159182E+02 0.  0.
         13    1    3    3    0    0  0.53181399830E+02 -0.25324035217E+02  0.31589441034E+03  0.32133914566E+03  0.00000000000E+00 0. -1.
        -14    1    3    3    0    0 -0.19503531605E+02 -0.53470707062E+02  0.18850022020E+03  0.19690565577E+03  0.00000000000E+00 0.  1.
        -13    1    4    4    0    0  0.43160898103E+02  0.24309648519E+02  0.23252848155E+03  0.23774632883E+03  0.00000000000E+00 0.  1.
         13    1    4    4    0    0 -0.15688320984E+02  0.24834559853E+02  0.17247356317E+02  0.34063911671E+02  0.00000000000E+00 0. -1.
         -1    1    1    2    0  502 -0.61150445343E+02  0.29650533906E+02  0.11069050935E+03  0.12988810564E+03  0.00000000000E+00 0.  1.
<scales pt_clust_5="13000.00000" pt_clust_6="13000.00000" pt_clust_7="13000.00000" pt_clust_8="13000.00000" pt_clust_9="67.95978"></scales>
<clustering>
<clus scale="   67.960">  2  9  1 -1</clus>
<clus scale="   82.589">  5  6 -1 -1</clus>
<clus scale="   91.230">  7  8 -1 -1</clus>
<clus scale="  107.045">  1  5  2 -1</clus>
<clus scale="   67.960">  2  5  1 -1</clus>
</clustering>
</event>
<event>
 9    1  0.6296820E-005  0.9887536E+02  0.7546771E-02  0.1291583E+00
         21   -1    0    0  501  502  0.00000000000E+00  0.00000000000E+00  0.20504404052E+03  0.20504404052E+03  0.00000000000E+00 0. -1.
          3   -1    0    0  502    0 -0.00000000000E+00 -0.00000000000E+00 -0.10370908917E+03  0.10370908917E+03  0.00000000000E+00 0. -1.
        -24    2    1    2    0    0 -0.25898103824E+02  0.16313234207E+01 -0.30870846301E+02  0.90009415412E+02  0.80469327783E+02 0.  0.
         23    2    1    2    0    0  0.13185145742E+02 -0.18024553720E+02  0.15235006652E+02  0.99947572726E+02  0.96222031059E+02 0.  0.
         13    1    3    3    0    0 -0.83659176346E+01 -0.38861614331E+02 -0.20300917086E+02  0.44635645854E+02  0.00000000000E+00 0. -1.
        -14    1    3    3    0    0 -0.17532186189E+02  0.40492937752E+02 -0.10569929215E+02  0.45373769558E+02  0.00000000000E+00 0.  1.
        -11    1    4    4    0    0  0.24874861838E+02 -0.53611942921E+02 -0.10299472942E+01  0.59110574068E+02  0.00000000000E+00 0.  1.
         11    1    4    4    0    0 -0.11689716096E+02  0.35587389201E+02  0.16264953946E+02  0.40836998658E+02  0.00000000000E+00 0. -1.
          4    1    1    2  501    0  0.12712958082E+02  0.16393230300E+02  0.11697079100E+03  0.11879614156E+03  0.00000000000E+00 0. -1.
<scales pt_clust_5="13000.00000" pt_clust_6="13000.00000" pt_clust_7="13000.00000" pt_clust_8="13000.00000" pt_clust_9="20.74505"></scales>
<clustering>
<clus scale="   20.745">  1  9  2 -1</clus>
<clus scale="   80.469">  5  6 -1 -1</clus>
<clus scale="   83.624">  2  5  1 -1</clus>
<clus scale="   96.222">  7  8 -1 -1</clus>
<clus scale="   20.745">  1  5  2 -1</clus>
</clustering>
</event>
<event>
 9    1  0.6296820E-005  0.1020920E+03  0.7546771E-02  0.1280561E+00
         21   -1    0    0  501  502  0.00000000000E+00  0.00000000000E+00  0.17250066576E+03  0.17250066576E+03  0.00000000000E+00 0. -1.
         -2   -1    0    0    0  501 -0.00000000000E+00 -0.00000000000E+00 -0.10814516934E+03  0.10814516934E+03  0.00000000000E+00 0.  1.
         23    2    1    2    0    0  0.59214526708E+01 -0.53920474864E+02 -0.15789348123E+02  0.10703745052E+03  0.90913316344E+02 0.  0.
        -24    2    1    2    0    0 -0.48190434267E+02  0.17971804785E+02  0.65301858487E+02  0.11616895631E+03  0.81151647953E+02 0.  0.
         11    1    4    4    0    0 -0.25376671799E+02  0.85769301153E+01  0.82074516271E+02  0.86335192262E+02  0.00000000000E+00 0. -1.
        -12    1    4    4    0    0 -0.22813762468E+02  0.93948746700E+01 -0.16772657783E+02  0.29833764046E+02  0.00000000000E+00 0.  1.
        -11    1    3    3    0    0  0.25607387004E+02 -0.72714694885E+02 -0.19627510748E+02  0.79551268372E+02  0.00000000000E+00 0. -1.
         11    1    3    3    0    0 -0.19685934333E+02  0.18794220022E+02  0.38381626247E+01  0.27486182149E+02  0.00000000000E+00 0.  1.
         -1    1    1    2    0  502  0.42268981596E+02  0.35948670078E+02  0.14842986059E+02  0.57439428276E+02  0.00000000000E+00 0.  1.
<scales pt_clust_5="13000.00000" pt_clust_6="13000.00000" pt_clust_7="13000.00000" pt_clust_8="13000.00000" pt_clust_9="55.48850"></scales>
<clustering>
<clus scale="   55.489">  1  9  2 -1</clus>
<clus scale="   81.152">  5  6 -1 -1</clus>
<clus scale="   90.913">  7  8 -1 -1</clus>
<clus scale="   93.505">  1  5  2 -1</clus>
<clus scale="   55.489">  1  5  2 -1</clus>
</clustering>
</event>
<event>
 9    1  0.6296820E-005  0.1438422E+03  0.7546771E-02  0.1223603E+00
          1   -1    0    0  502    0 -0.00000000000E+00  0.00000000000E+00  0.87534892962E+02  0.87534892962E+02  0.00000000000E+00 0. -1.
         21   -1    0    0  501  502  0.00000000000E+00 -0.00000000000E+00 -0.46936937614E+03  0.46936937614E+03  0.00000000000E+00 0. -1.
        -24    2    1    2    0    0 -0.80286982168E+02 -0.13107623939E+02 -0.10148506090E+02  0.11460941725E+03  0.80090680086E+02 0.  0.
         23    2    1    2    0    0  0.17911119928E+02  0.46129064652E+02 -0.12387702947E+03  0.18463143136E+03  0.12765010064E+03 0.  0.
         13    1    3    3    0    0 -0.62979773126E+02  0.24825050969E+02  0.97773034617E+01  0.68398323383E+02  0.00000000000E+00 0. -1.
        -14    1    3    3    0    0 -0.17307209042E+02 -0.37932674909E+02 -0.19925809552E+02  0.46211093872E+02  0.00000000000E+00 0.  1.
        -13    1    4    4    0    0 -0.48327300242E+02  0.10407395379E+02 -0.13867333331E+02  0.51343400364E+02  0.00000000000E+00 0. -1.
         13    1    4    4    0    0  0.66238420170E+02  0.35721669273E+02 -0.11000969614E+03  0.13328803100E+03  0.00000000000E+00 0.  1.
          2    1    1    2  501    0  0.62375862240E+02 -0.33021440713E+02 -0.24780894762E+03  0.25766342048E+03  0.00000000000E+00 0. -1.
<scales pt_clust_5="13000.00000" pt_clust_6="13000.00000" pt_clust_7="13000.00000" pt_clust_8="13000.00000" pt_clust_9="70.57736"></scales>
<clustering>
<clus scale="   70.577">  2  9  1 -1</clus>
<clus scale="   80.091">  5  6 -1 -1</clus>
<clus scale="  103.974">  1  5  2 -1</clus>
<clus scale="  127.650">  7  8 -1 -1</clus>
<clus scale="   70.577">  2  5  1 -1</clus>
</clustering>
</event>
<event>
 9    1  0.6296820E-005  0.1167453E+03  0.7546771E-02  0.1251492E+00
         21   -1    0    0  501  502  0.00000000000E+00  0.00000000000E+00  0.77591893638E+02  0.77591893638E+02  0.00000000000E+00 0.  1.
          1   -1    0    0  502    0 -0.00000000000E+00 -0.00000000000E+00 -0.53284947524E+03  0.53284947524E+03  0.00000000000E+00 0. -1.
        -24    2    1    2    0    0  0.74568884219E+02 -0.67179206980E+01 -0.42485773873E+03  0.43924080299E+03  0.82599854087E+02 0.  0.
         23    2    1    2    0    0 -0.56620817086E+02 -0.26783948297E+02  0.15331935797E+02  0.11173709879E+03  0.91251379038E+02 0.  0.
         13    1    3    3    0    0  0.53778368587E+02 -0.38239790570E+02 -0.18472760709E+03  0.19615984128E+03  0.00000000000E+00 0. -1.
        -14    1    3    3    0    0  0.20790515633E+02  0.31521869872E+02 -0.24013013164E+03  0.24308096170E+03  0.00000000000E+00 0.  1.
        -11    1    4    4    0    0 -0.25301442602E+02 -0.32747641979E+02  0.49822912665E+02  0.64767998884E+02  0.00000000000E+00 0.  1.
         11    1    4    4    0    0 -0.31319374484E+02  0.59636936823E+01 -0.34490976869E+02  0.46969099904E+02  0.00000000000E+00 0. -1.
          2    1    1    2  501    0 -0.17948067133E+02  0.33501868995E+02 -0.45731778663E+02  0.59463467101E+02  0.00000000000E+00 0. -1.
<scales pt_clust_5="13000.00000" pt_clust_6="13000.00000" pt_clust_7="13000.00000" pt_clust_8="13000.00000" pt_clust_9="38.00671"></scales>
<clustering>
<clus scale="   38.007">  1  9  2 -1</clus>
<clus scale="   82.600">  5  6 -1 -1</clus>
<clus scale="   91.251">  7  8 -1 -1</clus>
<clus scale="  110.115">  2  5  1 -1</clus>
<clus scale="   38.007">  1  5  2 -1</clus>
</clustering>
</event>
<event>
 9    1  0.6296820E-005  0.9587455E+02  0.7546771E-02  0.1291039E+00
         -2   -1    0    0    0  501 -0.00000000000E+00  0.00000000000E+00  0.12268183945E+03  0.12268183945E+03  0.00000000000E+00 0.  1.
         21   -1    0    0  501  502  0.00000000000E+00 -0.00000000000E+00 -0.15183260403E+03  0.15183260403E+03  0.00000000000E+00 0. -1.
         23    2    1    2    0    0  0.40387162518E+02 -0.98882963750E+01  0.11221001834E+02  0.88684978391E+02  0.77525564871E+02 0.  0.
        -24    2    1    2    0    0 -0.66738125364E+02 -0.49605117335E+02 -0.25561583899E+02  0.11909730625E+03  0.81339589019E+02 0.  0.
         13    1    4    4    0    0 -0.27142164756E+02 -0.67583137188E+02 -0.15425705530E+02  0.74445482945E+02  0.00000000000E+00 0. -1.
        -14    1    4    4    0    0 -0.39595960608E+02  0.17978019852E+02 -0.10135878368E+02  0.44651823307E+02  0.00000000000E+00 0.  1.
        -13    1    3    3    0    0 -0.12313027859E+02  0.15883429856E+02 -0.14345362558E+02  0.24691768385E+02  0.00000000000E+00 0.  1.
         13    1    3    3    0    0  0.52700190377E+02 -0.25771726231E+02  0.25566364392E+02  0.63993210006E+02  0.00000000000E+00 0. -1.
         -1    1    1    2    0  502  0.26350962847E+02  0.59493413710E+02 -0.14810182516E+02  0.66732158844E+02  0.00000000000E+00 0.  1.
<scales pt_clust_5="13000.00000" pt_clust_6="13000.00000" pt_clust_7="13000.00000" pt_clust_8="13000.00000" pt_clust_9="65.06796"></scales>
<clustering>
<clus scale="   65.068">  2  9  1 -1</clus>
<clus scale="   77.526">  7  8 -1 -1</clus>
<clus scale="   81.340">  5  6 -1 -1</clus>
<clus scale="   92.661">  1  7  2 -1</clus>
<clus scale="   65.068">  2  5  1 -1</clus>
</clustering>
</event>
<event>
 9    1  0.6296820E-005  0.9803806E+02  0.7546771E-02  0.1291669E+00
         21   -1    0    0  501  502  0.00000000000E+00  0.00000000000E+00  0.94002259398E+02  0.94002259398E+02  0.00000000000E+00 0.  1.
          1   -1    0    0  502    0 -0.00000000000E+00 -0.00000000000E+00 -0.24207335340E+03  0.24207335340E+03  0.00000000000E+00 0. -1.
         23    2    1    2    0    0 -0.28228787123E+02 -0.41859524058E+01 -0.14009851060E+03  0.17019805133E+03  0.92333078506E+02 0.  0.
        -24    2    1    2    0    0  0.54403607205E+02  0.94305195602E+01  0.45113159219E+02  0.10645767623E+03  0.79052846361E+02 0.  0.
         13    1    4    4    0    0  0.13438829988E+02  0.20048569568E+02 -0.18252220599E+02  0.30260384168E+02  0.00000000000E+00 0. -1.
        -14    1    4    4    0    0  0.40964777217E+02 -0.10618050008E+02  0.63365379818E+02  0.76197292064E+02  0.00000000000E+00 0.  1.
        -13    1    3    3    0    0 -0.47995643235E+02  0.93809879712E+01 -0.13767311412E+03  0.14610089341E+03  0.00000000000E+00 0.  1.
         13    1    3    3    0    0  0.19766856113E+02 -0.13566940377E+02 -0.24253964776E+01  0.24097157921E+02  0.00000000000E+00 0. -1.
          2    1    1    2  501    0 -0.26174820082E+02 -0.52445671545E+01 -0.53085742624E+02  0.59419885232E+02  0.00000000000E+00 0. -1.
<scales pt_clust_5="13000.00000" pt_clust_6="13000.00000" pt_clust_7="13000.00000" pt_clust_8="13000.00000" pt_clust_9="26.69508"></scales>
<clustering>
<clus scale="   26.695">  1  9  2 -1</clus>
<clus scale="   79.053">  5  6 -1 -1</clus>
<clus scale="   85.647">  1  5  2 -1</clus>
<clus scale="   92.333">  7  8 -1 -1</clus>
<clus scale="   26.695">  1  5  2 -1</clus>
</clustering>
</event>
<event>
 9    1  0.6296820E-005  0.9559689E+02  0.7546771E-02  0.1296855E+00
         21   -1    0    0  501  502  0.00000000000E+00  0.00000000000E+00  0.29414615544E+02  0.29414615544E+02  0.00000000000E+00 0. -1.
          1   -1    0    0  502    0 -0.00000000000E+00 -0.00000000000E+00 -0.67000667839E+03  0.67000667839E+03  0.00000000000E+00 0. -1.
        -24    2    1    2    0    0 -0.23439838692E+02 -0.20520147215E+02 -0.27044781704E+03  0.28358848632E+03  0.79434912678E+02 0.  0.
         23    2    1    2    0    0 -0.34463706276E+02  0.34629933118E+02 -0.32458640782E+03  0.34081665482E+03  0.91720645124E+02 0.  0.
         13    1    3    3    0    0  0.45812714991E+01  0.28362418355E+02 -0.10187047864E+03  0.10584426882E+03  0.00000000000E+00 0. -1.
        -14    1    3    3    0    0 -0.28021110191E+02 -0.48882565570E+02 -0.16857733840E+03  0.17774421750E+03  0.00000000000E+00 0.  1.
        -11    1    4    4    0    0 -0.36699608672E+02  0.64358487884E+02 -0.23458835545E+03  0.24600929404E+03  0.00000000000E+00 0. -1.
         11    1    4    4    0    0  0.22359023958E+01 -0.29728554767E+02 -0.89998052365E+02  0.94807360777E+02  0.00000000000E+00 0.  1.
          2    1    1    2  501    0  0.57903544968E+02 -0.14109785903E+02 -0.45557837982E+02  0.75016152792E+02  0.00000000000E+00 0. -1.
<scales pt_clust_5="13000.00000" pt_clust_6="13000.00000" pt_clust_7="13000.00000" pt_clust_8="13000.00000" pt_clust_9="59.59787"></scales>
<clustering>
<clus scale="   59.598">  1  9  2 -1</clus>
<clus scale="   79.435">  5  6 -1 -1</clus>
<clus scale="   83.881">  2  5  1 -1</clus>
<clus scale="   91.721">  7  8 -1 -1</clus>
<clus scale="   59.598">  1  5  2 -1</clus>
</clustering>
</event>
<event>
 9    1  0.6296820E-005  0.1000387E+03  0.7546771E-02  0.1287218E+00
          1   -1    0    0  502    0 -0.00000000000E+00  0.00000000000E+00  0.60652410070E+02  0.60652410070E+02  0.00000000000E+00 0. -1.
         21   -1    0    0  501  502  0.00000000000E+00 -0.00000000000E+00 -0.44630629860E+03  0.44630629860E+03  0.00000000000E+00 0.  1.
         23    2    1    2    0    0 -0.37367859131E+02  0.15165531185E+02 -0.73164831427E+01  0.10063199613E+03  0.91907113372E+02 0.  0.
        -24    2    1    2    0    0  0.41632093129E+02  0.16315029858E+02 -0.35667158984E+03  0.36787392358E+03  0.78212462392E+02 0.  0.
         11    1    4    4    0    0  0.51247412411E+02  0.27610028153E+02 -0.15359009484E+03  0.16425141755E+03  0.00000000000E+00 0. -1.
        -12    1    4    4    0    0 -0.96153192814E+01 -0.11294998295E+02 -0.20308149500E+03  0.20362250603E+03  0.00000000000E+00 0.  1.
        -13    1    3    3    0    0 -0.15441786859E+02 -0.38933288501E+02 -0.53668357530E+01  0.42226208223E+02  0.00000000000E+00 0.  1.
         13    1    3    3    0    0 -0.21926072272E+02  0.54098819686E+02 -0.19496473897E+01  0.58405787912E+02  0.00000000000E+00 0. -1.
          2    1    1    2  501    0 -0.42642339989E+01 -0.31480561043E+02 -0.21665815547E+02  0.38452788956E+02  0.00000000000E+00 0. -1.
<scales pt_clust_5="13000.00000" pt_clust_6="13000.00000" pt_clust_7="13000.00000" pt_clust_8="13000.00000" pt_clust_9="31.76807"></scales>
<clustering>
<clus scale="   31.768">  2  9  1 -1</clus>
<clus scale="   78.212">  5  6 -1 -1</clus>
<clus scale="   87.624">  2  5  1 -1</clus>
<clus scale="   91.907">  7  8 -1 -1</clus>
<clus scale="   31.768">  2  5  1 -1</clus>
</clustering>
</event>
<event>
 9    1  0.6296820E-005  0.1622968E+03  0.7546771E-02  0.1188067E+00
          3   -1    0    0  502    0 -0.00000000000E+00  0.00000000000E+00  0.20815563201E+03  0.20815563201E+03  0.00000000000E+00 0. -1.
         21   -1    0    0  501  502  0.00000000000E+00 -0.00000000000E+00 -0.56550719944E+03  0.56550719944E+03  0.00000000000E+00 0.  1.
         23    2    1    2    0    0  0.12074479178E+03  0.21795138712E+02  0.95935609836E+02  0.18102109431E+03  0.92253252182E+02 0.  0.
        -24    2    1    2    0    0 -0.15323655155E+03 -0.94383926411E+02 -0.82438403382E+02  0.21336128728E+03  0.79606420994E+02 0.  0.
         13    1    4    4    0    0 -0.56786604957E+02  0.37149674540E+01 -0.96504710913E+01  0.57720456322E+02  0.00000000000E+00 0. -1.
        -14    1    4    4    0    0 -0.96449946592E+02 -0.98098893865E+02 -0.72787932290E+02  0.15564083096E+03  0.00000000000E+00 0.  1.
        -13    1    3    3    0    0  0.34927133782E+02 -0.35525313791E+02  0.24569582540E+02  0.55548330131E+02  0.00000000000E+00 0.  1.
         13    1    3    3    0    0  0.85817657995E+02  0.57320452503E+02  0.71366027297E+02  0.12547276418E+03  0.00000000000E+00 0. -1.
          4    1    1    2  501    0  0.32491759772E+02  0.72588787699E+02 -0.37084877388E+03  0.37928044986E+03  0.00000000000E+00 0. -1.
<scales pt_clust_5="13000.00000" pt_clust_6="13000.00000" pt_clust_7="13000.00000" pt_clust_8="13000.00000" pt_clust_9="79.52890"></scales>
<clustering>
<clus scale="   79.529">  2  9  1 -1</clus>
<clus scale="   79.606">  5  6 -1 -1</clus>
<clus scale="   92.253">  7  8 -1 -1</clus>
<clus scale="  155.457">  2  5  1 -1</clus>
<clus scale="   79.529">  2  5  1 -1</clus>
</clustering>
</event>
<event>
 9    1  0.6296820E-005  0.1172083E+03  0.7546771E-02  0.1250170E+00
          1   -1    0    0  502    0 -0.00000000000E+00  0.00000000000E+00  0.95432638053E+02  0.95432638053E+02  0.00000000000E+00 0. -1.
         21   -1    0    0  501  502  0.00000000000E+00 -0.00000000000E+00 -0.78294124466E+03  0.78294124466E+03  0.00000000000E+00 0. -1.
         23    2    1    2    0    0  0.10665508421E+03 -0.36861420661E+02  0.14534415507E+01  0.14296540671E+03  0.87766301641E+02 0.  0.
        -24    2    1    2    0    0 -0.28057517500E+02  0.17102245873E+02 -0.70866874419E+02  0.11202284392E+03  0.80295034519E+02 0.  0.
         13    1    4    4    0    0  0.27069520387E+02  0.87864384561E+01 -0.11824456980E+02  0.30818472019E+02  0.00000000000E+00 0. -1.
        -14    1    4    4    0    0 -0.55127037887E+02  0.83158074165E+01 -0.59042417439E+02  0.81204371903E+02  0.00000000000E+00 0.  1.
        -13    1    3    3    0    0  0.68551639833E+02 -0.29388387261E+02 -0.41262695731E+02  0.85238575121E+02  0.00000000000E+00 0.  1.
         13    1    3    3    0    0  0.38103444375E+02 -0.74730334004E+01  0.42716137282E+02  0.57726831592E+02  0.00000000000E+00 0. -1.
          2    1    1    2  501    0 -0.78597566709E+02  0.19759174788E+02 -0.61809517374E+03  0.62338563208E+03  0.00000000000E+00 0. -1.
<scales pt_clust_5="13000.00000" pt_clust_6="13000.00000" pt_clust_7="13000.00000" pt_clust_8="13000.00000" pt_clust_9="81.04321"></scales>
<clustering>
<clus scale="   80.295">  5  6 -1 -1</clus>
<clus scale="   81.043">  2  9  1 -1</clus>
<clus scale="   87.766">  7  8 -1 -1</clus>
<clus scale="  111.724">  2  5  1 -1</clus>
<clus scale="   81.043">  2  5  1 -1</clus>
</clustering>
</event>
<event>
 9    1  0.6296820E-005  0.9235814E+02  0.7546771E-02  0.1302665E+00
          3   -1    0    0  502    0 -0.00000000000E+00  0.00000000000E+00  0.67025836806E+02  0.67025836806E+02  0.00000000000E+00 0. -1.
         21   -1    0    0  501  502  0.00000000000E+00 -0.00000000000E+00 -0.72397074231E+03  0.72397074231E+03  0.00000000000E+00 0.  1.
         23    2    1    2    0    0 -0.21071721630E+02  0.19968606005E+01  0.27876959564E+02  0.96713474264E+02  0.90157452964E+02 0.  0.
        -24    2    1    2    0    0  0.21189776441E+01  0.17527903073E+02 -0.58324141369E+03  0.58912127241E+03  0.81127119427E+02 0.  0.
         13    1    4    4    0    0  0.22784882024E+02  0.17262678427E+02 -0.72069214915E+02  0.77531430103E+02  0.00000000000E+00 0. -1.
        -14    1    4    4    0    0 -0.20665904380E+02  0.26522464663E+00 -0.51117219878E+03  0.51158984230E+03  0.00000000000E+00 0.  1.
        -13    1    3    3    0    0  0.73468654492E+01  0.42495507506E+02  0.13616197866E+02  0.45224389819E+02  0.00000000000E+00 0.  1.
         13    1    3    3    0    0 -0.28418587079E+02 -0.40498646906E+02  0.14260761698E+02  0.51489084445E+02  0.00000000000E+00 0. -1.
          4    1    1    2  501    0  0.18952743986E+02 -0.19524763674E+02 -0.10158045137E+03  0.10516183244E+03  0.00000000000E+00 0. -1.
<scales pt_clust_5="13000.00000" pt_clust_6="13000.00000" pt_clust_7="13000.00000" pt_clust_8="13000.00000" pt_clust_9="27.21071"></scales>
<clustering>
<clus scale="   27.211">  2  9  1 -1</clus>
<clus scale="   81.127">  5  6 -1 -1</clus>
<clus scale="   83.566">  2  5  1 -1</clus>
<clus scale="   90.157">  7  8 -1 -1</clus>
<clus scale="   27.211">  2  5  1 -1</clus>
</clustering>
</event>
<event>
 9    1  0.6296820E-005  0.2183581E+03  0.7546771E-02  0.1164603E+00
         21   -1    0    0  501  502  0.00000000000E+00  0.00000000000E+00  0.32590080231E+03  0.32590080231E+03  0.00000000000E+00 0.  1.
          1   -1    0    0  502    0 -0.00000000000E+00 -0.00000000000E+00 -0.31185522915E+03  0.31185522915E+03  0.00000000000E+00 0. -1.
         23    2    1    2    0    0 -0.40578201872E+02 -0.54611468285E+02 -0.68812452637E+01  0.10875626201E+03  0.84566956041E+02 0.  0.
        -24    2    1    2    0    0 -0.45638680071E+00 -0.19134665125E+03  0.14252930270E+03  0.25157158377E+03  0.79749046375E+02 0.  0.
         13    1    4    4    0    0 -0.36126664511E+01 -0.51995992980E+02 -0.13030809293E+00  0.52121508277E+02  0.00000000000E+00 0. -1.
        -14    1    4    4    0    0  0.31562796504E+01 -0.13935065827E+03  0.14265961079E+03  0.19945007549E+03  0.00000000000E+00 0.  1.
        -11    1    3    3    0    0  0.85825423880E+01 -0.30607806334E+02  0.29246737958E+02  0.43195711866E+02  0.00000000000E+00 0.  1.
         11    1    3    3    0    0 -0.49160744260E+02 -0.24003661951E+02 -0.36127983221E+02  0.65560550142E+02  0.00000000000E+00 0. -1.
          2    1    1    2  501    0  0.41034588673E+02  0.24595811953E+03 -0.12160248428E+03  0.27742818569E+03  0.00000000000E+00 0. -1.
<scales pt_clust_5="13000.00000" pt_clust_6="13000.00000" pt_clust_7="13000.00000" pt_clust_8="13000.00000" pt_clust_9="203.27416"></scales>
<clustering>
<clus scale="   79.749">  5  6 -1 -1</clus>
<clus scale="   84.567">  7  8 -1 -1</clus>
<clus scale="  108.538">  2  7  1 -1</clus>
<clus scale="  203.274">  1  9  2 -1</clus>
<clus scale="  203.274">  1  5  2 -1</clus>
</clustering>
</event>
<event>
 9    1  0.6296820E-005  0.1110582E+03  0.7546771E-02  0.1263056E+00
          1   -1    0    0  502    0 -0.00000000000E+00  0.00000000000E+00  0.81696245466E+03  0.81696245466E+03  0.00000000000E+00 0. -1.
         21   -1    0    0  501  502  0.00000000000E+00 -0.00000000000E+00 -0.21484055193E+02  0.21484055193E+02  0.00000000000E+00 0. -1.
         23    2    1    2    0    0  0.23226381639E+02  0.60211321547E+02  0.39974378382E+03  0.41517080253E+03  0.91688791665E+02 0.  0.
        -24    2    1    2    0    0  0.63989070875E+01 -0.63626798162E+02  0.19505172461E+03  0.22038917262E+03  0.80230272832E+02 0.  0.
         13    1    4    4    0    0 -0.72406885971E+01 -0.78519939871E+02  0.12778189657E+03  0.15015332703E+03  0.00000000000E+00 0. -1.
        -14    1    4    4    0    0  0.13639595685E+02  0.14893141710E+02  0.67269828046E+02  0.70235845590E+02  0.00000000000E+00 0.  1.
        -11    1    3    3    0    0  0.40370976096E+02  0.77558772602E+02  0.29947743984E+03  0.31198063384E+03  0.00000000000E+00 0.  1.
         11    1    3    3    0    0 -0.17144594457E+02 -0.17347451055E+02  0.10026634399E+03  0.10319016869E+03  0.00000000000E+00 0. -1.
          2    1    1    2  501    0 -0.29625288726E+02  0.34154766154E+01  0.20068289103E+03  0.20288653470E+03  0.00000000000E+00 0. -1.
<scales pt_clust_5="13000.00000" pt_clust_6="13000.00000" pt_clust_7="13000.00000" pt_clust_8="13000.00000" pt_clust_9="29.82154"></scales>
<clustering>
<clus scale="   29.822">  2  9  1 -1</clus>
<clus scale="   80.230">  5  6 -1 -1</clus>
<clus scale="   91.689">  7  8 -1 -1</clus>
<clus scale="  101.804">  2  5  1 -1</clus>
<clus scale="   29.822">  2  5  1 -1</clus>
</clustering>
</event>
<event>
 9    1  0.6296820E-005  0.1870315E+03  0.7546771E-02  0.1162408E+00
          1   -1    0    0  502    0 -0.00000000000E+00  0.00000000000E+00  0.78141178703E+03  0.78141178703E+03  0.00000000000E+00 0. -1.
         21   -1    0    0  501  502  0.00000000000E+00 -0.00000000000E+00 -0.13484159134E+03  0.13484159134E+03  0.00000000000E+00 0.  1.
        -24    2    1    2    0    0 -0.14658222439E+03 -0.28543398672E+02  0.45542348405E+03  0.48586380171E+03  0.79699497300E+02 0.  0.
         23    2    1    2    0    0  0.23452003014E+03 -0.50875676325E+02  0.17527458597E+03  0.31083886973E+03  0.91168215224E+02 0.  0.
         13    1    3    3    0    0 -0.14641143490E+03 -0.14621090429E+02  0.44433736028E+03  0.46806599352E+03  0.00000000000E+00 0. -1.
        -14    1    3    3    0    0 -0.17078948944E+00 -0.13922308243E+02  0.11086123776E+02  0.17797808186E+02  0.00000000000E+00 0.  1.
        -11    1    4    4    0    0  0.23346588916E+02 -0.11425169968E+02  0.63628434582E+02  0.68732637154E+02  0.00000000000E+00 0. -1.
         11    1    4    4    0    0  0.21117344123E+03 -0.39450506357E+02  0.11164615139E+03  0.24210623257E+03  0.00000000000E+00 0.  1.
          2    1    1    2  501    0 -0.87937805752E+02  0.79419074997E+02  0.15872125665E+02  0.11955070693E+03  0.00000000000E+00 0. -1.
<scales pt_clust_5="13000.00000" pt_clust_6="13000.00000" pt_clust_7="13000.00000" pt_clust_8="13000.00000" pt_clust_9="118.49239"></scales>
<clustering>
<clus scale="   79.699">  5  6 -1 -1</clus>
<clus scale="   91.168">  7  8 -1 -1</clus>
<clus scale="  118.492">  2  9  1 -1</clus>
<clus scale="  181.717">  1  5  2 -1</clus>
<clus scale="  118.492">  2  5  1 -1</clus>
</clustering>
</event>
<event>
 9    1  0.6296820E-005  0.1051378E+03  0.7546771E-02  0.1274538E+00
         21   -1    0    0  501  502  0.00000000000E+00  0.00000000000E+00  0.19578813128E+03  0.19578813128E+03  0.00000000000E+00 0.  1.
         -2   -1    0    0    0  501 -0.00000000000E+00 -0.00000000000E+00 -0.28803228178E+03  0.28803228178E+03  0.00000000000E+00 0.  1.
         23    2    1    2    0    0  0.18885199350E+02  0.50393414766E+02 -0.24702509532E+03  0.26802933090E+03  0.89006614888E+02 0.  0.
        -24    2    1    2    0    0 -0.23479468761E+02 -0.83446759757E+02  0.12613844171E+03  0.17181354345E+03  0.78066254352E+02 0.  0.
         13    1    4    4    0    0 -0.29820090859E+02 -0.21527035961E+01  0.13615758823E+02  0.32852105563E+02  0.00000000000E+00 0. -1.
        -14    1    4    4    0    0  0.63406220974E+01 -0.81294056161E+02  0.11252268288E+03  0.13896143788E+03  0.00000000000E+00 0.  1.
        -13    1    3    3    0    0  0.42767696564E+02 -0.52932391412E+01 -0.92359550383E+02  0.10191850076E+03  0.00000000000E+00 0. -1.
         13    1    3    3    0    0 -0.23882497214E+02  0.55686653907E+02 -0.15466554494E+03  0.16611083014E+03  0.00000000000E+00 0.  1.
         -1    1    1    2    0  502  0.45942694113E+01  0.33053344991E+02  0.28642503123E+02  0.43977538718E+02  0.00000000000E+00 0.  1.
<scales pt_clust_5="13000.00000" pt_clust_6="13000.00000" pt_clust_7="13000.00000" pt_clust_8="13000.00000" pt_clust_9="33.37111"></scales>
<clustering>
<clus scale="   33.371">  1  9  2 -1</clus>
<clus scale="   78.066">  5  6 -1 -1</clus>
<clus scale="   89.007">  7  8 -1 -1</clus>
<clus scale="   96.053">  1  5  2 -1</clus>
<clus scale="   33.371">  1  5  2 -1</clus>
</clustering>
</event>
<event>
 9    1  0.6296820E-005  0.2645069E+03  0.7546771E-02  0.1104465E+00
          1   -1    0    0  502    0 -0.00000000000E+00  0.00000000000E+00  0.34651231935E+03  0.34651231935E+03  0.00000000000E+00 0. -1.
         21   -1    0    0  501  502  0.00000000000E+00 -0.00000000000E+00 -0.16622314248E+03  0.16622314248E+03  0.00000000000E+00 0. -1.
        -24    2    1    2    0    0 -0.51942363189E+02 -0.38253892133E+02  0.32490405967E+02  0.10896095605E+03  0.81581211728E+02 0.  0.
         23    2    1    2    0    0 -0.95852565516E+02 -0.77471769338E+02 -0.13593274627E+02  0.15622014400E+03  0.95028242736E+02 0.  0.
         11    1    3    3    0    0 -0.42967452262E+02  0.18128017495E+02  0.18572201052E+02  0.50197147569E+02  0.00000000000E+00 0. -1.
        -12    1    3    3    0    0 -0.89749109274E+01 -0.56381909627E+02  0.13918204915E+02  0.58763808483E+02  0.00000000000E+00 0.  1.
        -13    1    4    4    0    0 -0.48810748207E+02 -0.73267590218E+02  0.28929122647E+02  0.92668889354E+02  0.00000000000E+00 0.  1.
         13    1    4    4    0    0 -0.47041817309E+02 -0.42041791197E+01 -0.42522397274E+02  0.63551254651E+02  0.00000000000E+00 0. -1.
          2    1    1    2  501    0  0.14779492871E+03  0.11572566147E+03  0.16139204553E+03  0.24755436178E+03  0.00000000000E+00 0. -1.
<scales pt_clust_5="13000.00000" pt_clust_6="13000.00000" pt_clust_7="13000.00000" pt_clust_8="13000.00000" pt_clust_9="187.71203"></scales>
<clustering>
<clus scale="   81.581">  5  6 -1 -1</clus>
<clus scale="   95.028">  7  8 -1 -1</clus>
<clus scale="   99.821">  5  7 -1 -1</clus>
<clus scale="  187.712">  2  9  1 -1</clus>
<clus scale="  187.712">  2  5  1 -1</clus>
</clustering>
</event>
<event>
 9    1  0.6296820E-005  0.9122382E+02  0.7546771E-02  0.1306549E+00
          1   -1    0    0  502    0 -0.00000000000E+00  0.00000000000E+00  0.15972666666E+03  0.15972666666E+03  0.00000000000E+00 0. -1.
         21   -1    0    0  501  502  0.00000000000E+00 -0.00000000000E+00 -0.83121927082E+02  0.83121927082E+02  0.00000000000E+00 0. -1.
        -24    2    1    2    0    0  0.18675642427E+02  0.13842614132E+01  0.95231997438E+02  0.12549484229E+03  0.79555806240E+02 0.  0.
         23    2    1    2    0    0  0.47349004293E+01 -0.25162944628E+01 -0.23714327959E+02  0.93370146678E+02  0.90149120462E+02 0.  0.
         11    1    3    3    0    0  0.21152926742E+02 -0.29289963193E+02  0.86133191227E+02  0.93403826927E+02  0.00000000000E+00 0. -1.
        -12    1    3    3    0    0 -0.24772843146E+01  0.30674224607E+02  0.90988062109E+01  0.32091015367E+02  0.00000000000E+00 0.  1.
        -13    1    4    4    0    0 -0.41379426034E+02  0.95147066858E+01 -0.14208107044E+02  0.44773394421E+02  0.00000000000E+00 0.  1.
         13    1    4    4    0    0  0.46114326463E+02 -0.12031001149E+02 -0.95062209151E+01  0.48596752256E+02  0.00000000000E+00 0. -1.
          2    1    1    2  501    0 -0.23410542857E+02  0.11320330496E+01  0.50870701014E+01  0.23983604773E+02  0.00000000000E+00 0. -1.
<scales pt_clust_5="13000.00000" pt_clust_6="13000.00000" pt_clust_7="13000.00000" pt_clust_8="13000.00000" pt_clust_9="23.43790"></scales>
<clustering>
<clus scale="   23.438">  2  9  1 -1</clus>
<clus scale="   79.556">  5  6 -1 -1</clus>
<clus scale="   80.772">  1  5  2 -1</clus>
<clus scale="   90.149">  7  8 -1 -1</clus>
<clus scale="   23.438">  2  5  1 -1</clus>
</clustering>
</event>
<event>
 9    1  0.6296820E-005  0.2256708E+03  0.7546771E-02  0.1130542E+00
         21   -1    0    0  501  502  0.00000000000E+00  0.00000000000E+00  0.21801463050E+03  0.21801463050E+03  0.00000000000E+00 0. -1.
          1   -1    0    0  502    0 -0.00000000000E+00 -0.00000000000E+00 -0.38702353350E+03  0.38702353350E+03  0.00000000000E+00 0. -1.
         23    2    1    2    0    0 -0.12724771369E+03 -0.19673199713E+03 -0.13883202959E+03  0.28727021886E+03  0.91402335127E+02 0.  0.
        -24    2    1    2    0    0  0.21369772731E+02  0.17505757540E+03  0.27167734515E+02  0.19542284716E+03  0.79688026104E+02 0.  0.
         11    1    4    4    0    0  0.34564053118E+02  0.16130343616E+03  0.34568417834E+01  0.16500127891E+03  0.00000000000E+00 0. -1.
        -12    1    4    4    0    0 -0.13194280387E+02  0.13754139233E+02  0.23710892732E+02  0.30421568255E+02  0.00000000000E+00 0.  1.
        -11    1    3    3    0    0 -0.10874490397E+03 -0.18746415247E+03 -0.15017816142E+03  0.26366976081E+03  0.00000000000E+00 0. -1.
         11    1    3    3    0    0 -0.18502809721E+02 -0.92678446647E+01  0.11346131832E+02  0.23600458043E+02  0.00000000000E+00 0.  1.
          2    1    1    2  501    0  0.10587794096E+03  0.21674421736E+02 -0.57344607926E+02  0.12234509797E+03  0.00000000000E+00 0. -1.
<scales pt_clust_5="13000.00000" pt_clust_6="13000.00000" pt_clust_7="13000.00000" pt_clust_8="13000.00000" pt_clust_9="108.07373"></scales>
<clustering>
<clus scale="   79.688">  5  6 -1 -1</clus>
<clus scale="   91.402">  7  8 -1 -1</clus>
<clus scale="  108.074">  1  9  2 -1</clus>
<clus scale="  221.186">  1  5  2 -1</clus>
<clus scale="  108.074">  1  5  2 -1</clus>
</clustering>
</event>
<event>
 9    1  0.6296820E-005  0.1048232E+03  0.7546771E-02  0.1277286E+00
         21   -1    0    0  501  502  0.00000000000E+00  0.00000000000E+00  0.17431014056E+03  0.17431014056E+03  0.00000000000E+00 0. -1.
          1   -1    0    0  502    0 -0.00000000000E+00 -0.00000000000E+00 -0.34593791906E+03  0.34593791906E+03  0.00000000000E+00 0. -1.
         23    2    1    2    0    0  0.27400199208E+02 -0.42373670508E+02 -0.30820764098E+03  0.32596768574E+03  0.93363179661E+02 0.  0.
        -24    2    1    2    0    0 -0.39250715731E+01  0.29429913624E+02  0.38226228723E+02  0.92338921412E+02  0.78636542665E+02 0.  0.
         11    1    4    4    0    0 -0.72796670087E+01 -0.26767259383E+02  0.13525117502E+02  0.30861116799E+02  0.00000000000E+00 0. -1.
        -12    1    4    4    0    0  0.33545954357E+01  0.56197173007E+02  0.24701111222E+02  0.61477804614E+02  0.00000000000E+00 0.  1.
        -13    1    3    3    0    0 -0.27001754344E+02  0.81611544424E+01 -0.12782426920E+03  0.13089974399E+03  0.00000000000E+00 0.  1.
         13    1    3    3    0    0  0.54401953552E+02 -0.50534824950E+02 -0.18038337178E+03  0.19506794175E+03  0.00000000000E+00 0. -1.
          2    1    1    2  501    0 -0.23475127635E+02  0.12943756884E+02  0.98353633759E+02  0.10194145248E+03  0.00000000000E+00 0. -1.
<scales pt_clust_5="13000.00000" pt_clust_6="13000.00000" pt_clust_7="13000.00000" pt_clust_8="13000.00000" pt_clust_9="26.80713"></scales>
<clustering>
<clus scale="   26.807">  1  9  2 -1</clus>
<clus scale="   78.637">  5  6 -1 -1</clus>
<clus scale="   91.951">  1  5  2 -1</clus>
<clus scale="   93.363">  7  8 -1 -1</clus>
<clus scale="   26.807">  1  5  2 -1</clus>
</clustering>
</event>
<event>
 9    1  0.6296820E-005  0.9856334E+02  0.7546771E-02  0.1290772E+00
         21   -1    0    0  501  502  0.00000000000E+00  0.00000000000E+00  0.66933997851E+02  0.66933997851E+02  0.00000000000E+00 0. -1.
          1   -1    0    0  502    0 -0.00000000000E+00 -0.00000000000E+00 -0.50933453110E+03  0.50933453110E+03  0.00000000000E+00 0. -1.
         23    2    1    2    0    0 -0.34947475394E+02 -0.40975155398E+00 -0.44081763933E+03  0.45194359884E+03  0.93334513742E+02 0.  0.
        -24    2    1    2    0    0  0.98462372085E+01  0.25032704710E+02 -0.17279669243E+02  0.85818427589E+02  0.79640635686E+02 0.  0.
         13    1    4    4    0    0 -0.26985569758E+02 -0.12947884421E+02 -0.13328273667E+02  0.32764486339E+02  0.00000000000E+00 0. -1.
        -14    1    4    4    0    0  0.36831806966E+02  0.37980589131E+02 -0.39513955758E+01  0.53053941250E+02  0.00000000000E+00 0.  1.
        -13    1    3    3    0    0 -0.55537082659E+02  0.29707949973E+02 -0.29258999165E+03  0.29929222017E+03  0.00000000000E+00 0. -1.
         13    1    3    3    0    0  0.20589607265E+02 -0.30117701527E+02 -0.14822764769E+03  0.15265137867E+03  0.00000000000E+00 0.  1.
          2    1    1    2  501    0  0.25101238186E+02 -0.24622953156E+02  0.15696775326E+02  0.38506502519E+02  0.00000000000E+00 0. -1.
<scales pt_clust_5="13000.00000" pt_clust_6="13000.00000" pt_clust_7="13000.00000" pt_clust_8="13000.00000" pt_clust_9="35.16194"></scales>
<clustering>
<clus scale="   35.162">  1  9  2 -1</clus>
<clus scale="   79.641">  5  6 -1 -1</clus>
<clus scale="   85.709">  1  5  2 -1</clus>
<clus scale="   93.335">  7  8 -1 -1</clus>
<clus scale="   35.162">  1  5  2 -1</clus>
</clustering>
</event>
<event>
 9    1  0.6296820E-005  0.8994786E+02  0.7546771E-02  0.1308386E+00
          1   -1    0    0  502    0 -0.00000000000E+00  0.00000000000E+00  0.58663073015E+02  0.58663073015E+02  0.00000000000E+00 0. -1.
         21   -1    0    0  501  502  0.00000000000E+00 -0.00000000000E+00 -0.23592756396E+03  0.23592756396E+03  0.00000000000E+00 0.  1.
        -24    2    1    2    0    0 -0.20515321554E+01 -0.18305627546E+02 -0.24409524659E+02  0.85620884615E+02  0.79973784481E+02 0.  0.
         23    2    1    2    0    0  0.28824629764E+02 -0.44186283726E+01 -0.63125351567E+02  0.11261315258E+03  0.88580633137E+02 0.  0.
         13    1    3    3    0    0 -0.29216148772E+02  0.19716415639E+02 -0.12508210070E+02  0.37400210078E+02  0.00000000000E+00 0. -1.
        -14    1    3    3    0    0  0.27164616617E+02 -0.38022043185E+02 -0.11901314589E+02  0.48220674537E+02  0.00000000000E+00 0.  1.
        -11    1    4    4    0    0 -0.21768284456E+02  0.26244280462E+02 -0.22916349834E+02  0.41082594305E+02  0.00000000000E+00 0. -1.
         11    1    4    4    0    0  0.50592914220E+02 -0.30662908834E+02 -0.40209001733E+02  0.71530558280E+02  0.00000000000E+00 0.  1.
          2    1    1    2  501    0 -0.26773097609E+02  0.22724255919E+02 -0.89729614715E+02  0.96356599771E+02  0.00000000000E+00 0. -1.
<scales pt_clust_5="13000.00000" pt_clust_6="13000.00000" pt_clust_7="13000.00000" pt_clust_8="13000.00000" pt_clust_9="35.11681"></scales>
<clustering>
<clus scale="   35.117">  2  9  1 -1</clus>
<clus scale="   79.974">  5  6 -1 -1</clus>
<clus scale="   81.486">  1  5  2 -1</clus>
<clus scale="   88.581">  7  8 -1 -1</clus>
<clus scale="   35.117">  2  5  1 -1</clus>
</clustering>
</event>
<event>
 9    1  0.6296820E-005  0.1084135E+03  0.7546771E-02  0.1277291E+00
         21   -1    0    0  501  502  0.00000000000E+00  0.00000000000E+00  0.17850863036E+03  0.17850863036E+03  0.00000000000E+00 0.  1.
          1   -1    0    0  502    0 -0.00000000000E+00 -0.00000000000E+00 -0.13409690881E+03  0.13409690881E+03  0.00000000000E+00 0. -1.
         23    2    1    2    0    0  0.66759908534E+01 -0.24645509506E+02 -0.35148661248E+02  0.10947064680E+03  0.10048096402E+03 0.  0.
        -24    2    1    2    0    0 -0.57763910719E+02  0.30033342504E+02 -0.12003441138E+02  0.98144711138E+02  0.72454335148E+02 0.  0.
         13    1    4    4    0    0 -0.70800730159E+02  0.29444465360E+02 -0.24072553679E+02  0.80369196661E+02  0.00000000000E+00 0. -1.
        -14    1    4    4    0    0  0.13036819440E+02  0.58887714348E+00  0.12069112541E+02  0.17775514477E+02  0.00000000000E+00 0.  1.
        -13    1    3    3    0    0 -0.27912760733E+02  0.24843849139E+02 -0.31685204999E+02  0.48992767503E+02  0.00000000000E+00 0. -1.
         13    1    3    3    0    0  0.34588751586E+02 -0.49489358645E+02 -0.34634562496E+01  0.60477879299E+02  0.00000000000E+00 0.  1.
          2    1    1    2  501    0  0.51087919866E+02 -0.53878329978E+01  0.91563823939E+02  0.10499018123E+03  0.00000000000E+00 0. -1.
<scales pt_clust_5="13000.00000" pt_clust_6="13000.00000" pt_clust_7="13000.00000" pt_clust_8="13000.00000" pt_clust_9="51.37124"></scales>
<clustering>
<clus scale="   51.371">  1  9  2 -1</clus>
<clus scale="   72.454">  5  6 -1 -1</clus>
<clus scale="   83.106">  1  5  2 -1</clus>
<clus scale="  100.481">  7  8 -1 -1</clus>
<clus scale="   51.371">  1  5  2 -1</clus>
</clustering>
</event>
<event>
 9    1  0.6296820E-005  0.1416220E+03  0.7546771E-02  0.1215691E+00
          1   -1    0    0  502    0 -0.00000000000E+00  0.00000000000E+00  0.50425117643E+03  0.50425117643E+03  0.00000000000E+00 0. -1.
         21   -1    0    0  501  502  0.00000000000E+00 -0.00000000000E+00 -0.92924406961E+02  0.92924406961E+02  0.00000000000E+00 0. -1.
        -24    2    1    2    0    0  0.10687429299E+02  0.11443687011E+03  0.34916467670E+03  0.37629491291E+03  0.80447943674E+02 0.  0.
         23    2    1    2    0    0  0.51649351110E+00 -0.70202942949E+02  0.10292444134E+03  0.15969458333E+03  0.99900947719E+02 0.  0.
         13    1    3    3    0    0 -0.18896212331E+02  0.99119371855E+02  0.20706526831E+03  0.23034266226E+03  0.00000000000E+00 0. -1.
        -14    1    3    3    0    0  0.29583641630E+02  0.15317498260E+02  0.14209940839E+03  0.14595225065E+03  0.00000000000E+00 0.  1.
        -13    1    4    4    0    0  0.25816697552E+02 -0.17283585452E+02  0.95673946681E+02  0.10059188969E+03  0.00000000000E+00 0. -1.
         13    1    4    4    0    0 -0.25300204041E+02 -0.52919357497E+02  0.72504946633E+01  0.59102693638E+02  0.00000000000E+00 0.  1.
          2    1    1    2  501    0 -0.11203922810E+02 -0.44233927165E+02 -0.40762348577E+02  0.61186087147E+02  0.00000000000E+00 0. -1.
<scales pt_clust_5="13000.00000" pt_clust_6="13000.00000" pt_clust_7="13000.00000" pt_clust_8="13000.00000" pt_clust_9="45.63078"></scales>
<clustering>
<clus scale="   45.631">  2  9  1 -1</clus>
<clus scale="   80.448">  5  6 -1 -1</clus>
<clus scale="   99.901">  7  8 -1 -1</clus>
<clus scale="  128.641">  1  5  2 -1</clus>
<clus scale="   45.631">  2  5  1 -1</clus>
</clustering>
</event>
<event>
 9    1  0.6296820E-005  0.2439110E+03  0.7546771E-02  0.1117804E+00
          1   -1    0    0  502    0 -0.00000000000E+00  0.00000000000E+00  0.13522854633E+03  0.13522854633E+03  0.00000000000E+00 0. -1.
         21   -1    0    0  501  502  0.00000000000E+00 -0.00000000000E+00 -0.13293009189E+04  0.13293009189E+04  0.00000000000E+00 0. -1.
         23    2    1    2    0    0 -0.76015570032E+01 -0.28007091793E+03 -0.60915022531E+03  0.67642190420E+03  0.89359346112E+02 0.  0.
        -24    2    1    2    0    0  0.53669440766E+02  0.16948128881E+03 -0.63057158938E+03  0.65990386548E+03  0.79045975343E+02 0.  0.
         13    1    4    4    0    0  0.40282417331E+02  0.14986813353E+03 -0.41567114929E+03  0.44369543039E+03  0.00000000000E+00 0. -1.
        -14    1    4    4    0    0  0.13387023436E+02  0.19613155283E+02 -0.21490044009E+03  0.21620843509E+03  0.00000000000E+00 0.  1.
        -11    1    3    3    0    0 -0.35287091883E+02 -0.12524744810E+03 -0.20573663209E+03  0.24343307888E+03  0.00000000000E+00 0.  1.
         11    1    3    3    0    0  0.27685534880E+02 -0.15482346984E+03 -0.40341359322E+03  0.43298882532E+03  0.00000000000E+00 0. -1.
          2    1    1    2  501    0 -0.46067883763E+02  0.11058962912E+03  0.45649442127E+02  0.12820369554E+03  0.00000000000E+00 0. -1.
<scales pt_clust_5="13000.00000" pt_clust_6="13000.00000" pt_clust_7="13000.00000" pt_clust_8="13000.00000" pt_clust_9="119.80121"></scales>
<clustering>
<clus scale="   79.046">  5  6 -1 -1</clus>
<clus scale="   89.359">  7  8 -1 -1</clus>
<clus scale="  119.801">  2  9  1 -1</clus>
<clus scale="  240.324">  2  5  1 -1</clus>
<clus scale="  119.801">  2  5  1 -1</clus>
</clustering>
</event>
<event>
 9    1  0.6296820E-005  0.1010700E+03  0.7546771E-02  0.1282894E+00
         -2   -1    0    0    0  501 -0.00000000000E+00  0.00000000000E+00  0.44863979204E+03  0.44863979204E+03  0.00000000000E+00 0.  1.
         21   -1    0    0  501  502  0.00000000000E+00 -0.00000000000E+00 -0.79336642039E+02  0.79336642039E+02  0.00000000000E+00 0.  1.
         23    2    1    2    0    0 -0.15268141285E+02 -0.58262220547E+02  0.27525327089E+03  0.29588747977E+03  0.90318520057E+02 0.  0.
        -24    2    1    2    0    0  0.10034198700E+02  0.27141786801E+02  0.14727878749E+03  0.17020848697E+03  0.80265347794E+02 0.  0.
         13    1    4    4    0    0 -0.68739075458E+01  0.19228113587E+02 -0.13002585155E+01  0.20461222576E+02  0.00000000000E+00 0. -1.
        -14    1    4    4    0    0  0.16908106246E+02  0.79136732131E+01  0.14857904601E+03  0.14974726439E+03  0.00000000000E+00 0.  1.
        -13    1    3    3    0    0 -0.31512816313E+02 -0.39696998196E+02  0.26391462841E+03  0.26873749338E+03  0.00000000000E+00 0. -1.
         13    1    3    3    0    0  0.16244675028E+02 -0.18565222351E+02  0.11338642482E+02  0.27149986391E+02  0.00000000000E+00 0.  1.
         -1    1    1    2    0  502  0.52339425850E+01  0.31120433746E+02 -0.53228908381E+02  0.61880467346E+02  0.00000000000E+00 0.  1.
<scales pt_clust_5="13000.00000" pt_clust_6="13000.00000" pt_clust_7="13000.00000" pt_clust_8="13000.00000" pt_clust_9="31.55750"></scales>
<clustering>
<clus scale="   31.557">  2  9  1 -1</clus>
<clus scale="   80.265">  5  6 -1 -1</clus>
<clus scale="   90.319">  7  8 -1 -1</clus>
<clus scale="   92.197">  2  5  1 -1</clus>
<clus scale="   31.557">  2  5  1 -1</clus>
</clustering>
</event>
<event>
 9    1  0.6296820E-005  0.9631179E+02  0.7546771E-02  0.1299468E+00
         21   -1    0    0  501  502  0.00000000000E+00  0.00000000000E+00  0.93638732332E+02  0.93638732332E+02  0.00000000000E+00 0.  1.
         -2   -1    0    0    0  501 -0.00000000000E+00 -0.00000000000E+00 -0.16546929534E+03  0.16546929534E+03  0.00000000000E+00 0.  1.
         23    2    1    2    0    0  0.25992895335E+02  0.52692293903E+02 -0.10534429157E+03  0.14685670555E+03  0.83769706664E+02 0.  0.
        -24    2    1    2    0    0 -0.15002526962E+02 -0.24390519214E+02  0.18207513856E+01  0.68362559905E+02  0.62049586770E+02 0.  0.
         11    1    4    4    0    0 -0.30071413213E+02 -0.37431050698E+02  0.46319589313E+01  0.48237210663E+02  0.00000000000E+00 0. -1.
        -12    1    4    4    0    0  0.15068886251E+02  0.13040531484E+02 -0.28112075457E+01  0.20125349242E+02  0.00000000000E+00 0.  1.
        -13    1    3    3    0    0  0.90276486905E+01  0.30228811112E+02  0.59095474524E+01  0.32096763283E+02  0.00000000000E+00 0. -1.
         13    1    3    3    0    0  0.16965246645E+02  0.22463482791E+02 -0.11125383902E+03  0.11475994227E+03  0.00000000000E+00 0.  1.
         -1    1    1    2    0  502 -0.10990368374E+02 -0.28301774689E+02  0.31692977168E+02  0.43888762221E+02  0.00000000000E+00 0.  1.
<scales pt_clust_5="13000.00000" pt_clust_6="13000.00000" pt_clust_7="13000.00000" pt_clust_8="13000.00000" pt_clust_9="30.36081"></scales>
<clustering>
<clus scale="   30.361">  1  9  2 -1</clus>
<clus scale="   62.050">  5  6 -1 -1</clus>
<clus scale="   78.158">  1  5  2 -1</clus>
<clus scale="   83.770">  7  8 -1 -1</clus>
<clus scale="   30.361">  1  5  2 -1</clus>
</clustering>
</event>
<event>
 9    1  0.6296820E-005  0.1002105E+03  0.7546771E-02  0.1290380E+00
         21   -1    0    0  501  502  0.00000000000E+00  0.00000000000E+00  0.61653231885E+02  0.61653231885E+02  0.00000000000E+00 0.  1.
          3   -1    0    0  502    0 -0.00000000000E+00 -0.00000000000E+00 -0.17985083806E+03  0.17985083806E+03  0.00000000000E+00 0. -1.
         23    2    1    2    0    0 -0.31895960648E+01 -0.21775576919E+02 -0.46978957079E+02  0.11101179323E+03  0.98144009268E+02 0.  0.
        -24    2    1    2    0    0  0.20601409754E+02  0.10781880992E+02 -0.37601096957E+02  0.91069283193E+02  0.79618495386E+02 0.  0.
         11    1    4    4    0    0 -0.18637137675E+02  0.21992117015E+02 -0.40999636804E+02  0.50119520445E+02  0.00000000000E+00 0. -1.
        -12    1    4    4    0    0  0.39238547429E+02 -0.11210236023E+02  0.33985398479E+01  0.40949762748E+02  0.00000000000E+00 0.  1.
        -13    1    3    3    0    0 -0.44629633220E+02  0.11552156458E+02 -0.12978760768E+02  0.47892637339E+02  0.00000000000E+00 0.  1.
         13    1    3    3    0    0  0.41440037156E+02 -0.33327733377E+02 -0.34000196311E+02  0.63119155893E+02  0.00000000000E+00 0. -1.
          4    1    1    2  501    0 -0.17411813689E+02  0.10993695927E+02 -0.33617552136E+02  0.39422993515E+02  0.00000000000E+00 0. -1.
<scales pt_clust_5="13000.00000" pt_clust_6="13000.00000" pt_clust_7="13000.00000" pt_clust_8="13000.00000" pt_clust_9="20.59206"></scales>
<clustering>
<clus scale="   20.592">  1  9  2 -1</clus>
<clus scale="   79.618">  5  6 -1 -1</clus>
<clus scale="   82.152">  1  5  2 -1</clus>
<clus scale="   98.144">  7  8 -1 -1</clus>
<clus scale="   20.592">  1  5  2 -1</clus>
</clustering>
</event>
<event>
 9    1  0.6296820E-005  0.9449282E+02  0.7546771E-02  0.1298979E+00
          1   -1    0    0  502    0 -0.00000000000E+00  0.00000000000E+00  0.75777856539E+03  0.75777856539E+03  0.00000000000E+00 0. -1.
         21   -1    0    0  501  502  0.00000000000E+00 -0.00000000000E+00 -0.36057339085E+02  0.36057339085E+02  0.00000000000E+00 0. -1.
        -24    2    1    2    0    0 -0.17328592676E+02  0.12223761846E+02  0.45842620180E+03  0.46586418383E+03  0.80157063320E+02 0.  0.
         23    2    1    2    0    0  0.36976508997E+02  0.16690807649E+02  0.27374644712E+03  0.29148439161E+03  0.91543366578E+02 0.  0.
         11    1    3    3    0    0 -0.29330812651E+02  0.41506751828E+02  0.30534444016E+03  0.30954536688E+03  0.00000000000E+00 0. -1.
        -12    1    3    3    0    0  0.12002219975E+02 -0.29282989982E+02  0.15308176164E+03  0.15631881695E+03  0.00000000000E+00 0.  1.
        -13    1    4    4    0    0  0.58157102678E+02  0.38270692110E+02  0.20044622680E+03  0.21219232857E+03  0.00000000000E+00 0. -1.
         13    1    4    4    0    0 -0.21180593681E+02 -0.21579884461E+02  0.73300220327E+02  0.79292063046E+02  0.00000000000E+00 0.  1.
          2    1    1    2  501    0 -0.19647916322E+02 -0.28914569495E+02 -0.10451422622E+02  0.36487329029E+02  0.00000000000E+00 0. -1.
<scales pt_clust_5="13000.00000" pt_clust_6="13000.00000" pt_clust_7="13000.00000" pt_clust_8="13000.00000" pt_clust_9="34.95845"></scales>
<clustering>
<clus scale="   34.958">  2  9  1 -1</clus>
<clus scale="   80.157">  5  6 -1 -1</clus>
<clus scale="   83.510">  1  5  2 -1</clus>
<clus scale="   91.543">  7  8 -1 -1</clus>
<clus scale="   34.958">  2  5  1 -1</clus>
</clustering>
</event>
<event>
 9    1  0.6296820E-005  0.2638765E+03  0.7546771E-02  0.1104836E+00
         21   -1    0    0  501  502  0.00000000000E+00  0.00000000000E+00  0.14922014252E+03  0.14922014252E+03  0.00000000000E+00 0.  1.
         -2   -1    0    0    0  501 -0.00000000000E+00 -0.00000000000E+00 -0.36174801520E+03  0.36174801520E+03  0.00000000000E+00 0.  1.
        -24    2    1    2    0    0 -0.81297205266E+02 -0.58264724773E+02 -0.54250212595E+02  0.13944081320E+03  0.80601743667E+02 0.  0.
         23    2    1    2    0    0 -0.55401256044E+02 -0.74833502515E+02 -0.12043850127E+03  0.17701922291E+03  0.90338366278E+02 0.  0.
         13    1    3    3    0    0 -0.67137978086E+02 -0.39185248367E+02  0.26473297644E+01  0.77781746868E+02  0.00000000000E+00 0. -1.
        -14    1    3    3    0    0 -0.14159227180E+02 -0.19079476406E+02 -0.56897542359E+02  0.61659066331E+02  0.00000000000E+00 0.  1.
        -11    1    4    4    0    0 -0.77883798939E+02 -0.38783949492E+02 -0.85901260088E+02  0.12226654228E+03  0.00000000000E+00 0.  1.
         11    1    4    4    0    0  0.22482542895E+02 -0.36049553023E+02 -0.34537241179E+02  0.54752680633E+02  0.00000000000E+00 0. -1.
         -1    1    1    2    0  502  0.13669846131E+03  0.13309822729E+03 -0.37839158821E+02  0.19450812161E+03  0.00000000000E+00 0.  1.
<scales pt_clust_5="13000.00000" pt_clust_6="13000.00000" pt_clust_7="13000.00000" pt_clust_8="13000.00000" pt_clust_9="190.79205"></scales>
<clustering>
<clus scale="   80.602">  5  6 -1 -1</clus>
<clus scale="   90.338">  7  8 -1 -1</clus>
<clus scale="  109.002">  5  7 -1 -1</clus>
<clus scale="  190.792">  1  9  2 -1</clus>
<clus scale="  190.792">  1  5  2 -1</clus>
</clustering>
</event>
<event>
 9    1  0.6296820E-005  0.8972061E+02  0.7546771E-02  0.1309452E+00
          1   -1    0    0  502    0 -0.00000000000E+00  0.00000000000E+00  0.35708475492E+03  0.35708475492E+03  0.00000000000E+00 0. -1.
         21   -1    0    0  501  502  0.00000000000E+00 -0.00000000000E+00 -0.52734563554E+02  0.52734563554E+02  0.00000000000E+00 0.  1.
        -24    2    1    2    0    0  0.78747423025E+01  0.17986275674E+01  0.16211811696E+03  0.18098165550E+03  0.80042670835E+02 0.  0.
         23    2    1    2    0    0  0.13493336811E+02 -0.17251319366E+02  0.16829144164E+03  0.19176380277E+03  0.89284201093E+02 0.  0.
         13    1    3    3    0    0 -0.88731438376E+01 -0.33972433379E+02  0.11075768132E+03  0.11619002919E+03  0.00000000000E+00 0. -1.
        -14    1    3    3    0    0  0.16747886140E+02  0.35771060946E+02  0.51360435639E+02  0.64791626314E+02  0.00000000000E+00 0.  1.
        -11    1    4    4    0    0 -0.37298581682E+02 -0.11541105392E+02  0.54719276454E+02  0.67220387717E+02  0.00000000000E+00 0. -1.
         11    1    4    4    0    0  0.50791918492E+02 -0.57102139733E+01  0.11357216519E+03  0.12454341505E+03  0.00000000000E+00 0.  1.
          2    1    1    2  501    0 -0.21368079113E+02  0.15452691798E+02 -0.26059367241E+02  0.37073860196E+02  0.00000000000E+00 0. -1.
<scales pt_clust_5="13000.00000" pt_clust_6="13000.00000" pt_clust_7="13000.00000" pt_clust_8="13000.00000" pt_clust_9="26.37007"></scales>
<clustering>
<clus scale="   26.370">  2  9  1 -1</clus>
<clus scale="   80.043">  5  6 -1 -1</clus>
<clus scale="   80.529">  1  5  2 -1</clus>
<clus scale="   89.284">  7  8 -1 -1</clus>
<clus scale="   26.370">  2  5  1 -1</clus>
</clustering>
</event>
<event>
 9    1  0.6296820E-005  0.1072541E+03  0.7546771E-02  0.1269645E+00
          1   -1    0    0  502    0 -0.00000000000E+00  0.00000000000E+00  0.70086705957E+03  0.70086705957E+03  0.00000000000E+00 0. -1.
         21   -1    0    0  501  502  0.00000000000E+00 -0.00000000000E+00 -0.61038737927E+02  0.61038737927E+02  0.00000000000E+00 0. -1.
         23    2    1    2    0    0  0.57387361129E+02  0.11926052458E+02  0.50362666178E+03  0.51507455734E+03  0.90699753130E+02 0.  0.
        -24    2    1    2    0    0 -0.56376879715E+02  0.13368237720E+02  0.17443292777E+03  0.20097873712E+03  0.81292952587E+02 0.  0.
         11    1    4    4    0    0  0.59854339004E+01 -0.25587014726E+02  0.47747192695E+02  0.54500597720E+02  0.00000000000E+00 0. -1.
        -12    1    4    4    0    0 -0.62362313615E+02  0.38955252446E+02  0.12668573507E+03  0.14647813940E+03  0.00000000000E+00 0.  1.
        -13    1    3    3    0    0 -0.96700439538E+01  0.34699536107E+02  0.13605284278E+03  0.14074069626E+03  0.00000000000E+00 0.  1.
         13    1    3    3    0    0  0.67057405083E+02 -0.22773483648E+02  0.36757381900E+03  0.37433386108E+03  0.00000000000E+00 0. -1.
          2    1    1    2  501    0 -0.10104814144E+01 -0.25294290179E+02 -0.38231267908E+02  0.45852503031E+02  0.00000000000E+00 0. -1.
<scales pt_clust_5="13000.00000" pt_clust_6="13000.00000" pt_clust_7="13000.00000" pt_clust_8="13000.00000" pt_clust_9="25.31447"></scales>
<clustering>
<clus scale="   25.314">  2  9  1 -1</clus>
<clus scale="   81.293">  5  6 -1 -1</clus>
<clus scale="   90.700">  7  8 -1 -1</clus>
<clus scale="   99.426">  2  5  1 -1</clus>
<clus scale="   25.314">  2  5  1 -1</clus>
</clustering>
</event>
<event>
 9    1  0.6296820E-005  0.2082735E+03  0.7546771E-02  0.1172617E+00
         21   -1    0    0  501  502  0.00000000000E+00  0.00000000000E+00  0.32429652081E+03  0.32429652081E+03  0.00000000000E+00 0.  1.
          1   -1    0    0  502    0 -0.00000000000E+00 -0.00000000000E+00 -0.21572954989E+03  0.21572954989E+03  0.00000000000E+00 0. -1.
        -24    2    1    2    0    0 -0.55993018557E+02  0.34637296377E+02  0.51084994168E+02  0.11594415626E+03  0.80612718073E+02 0.  0.
         23    2    1    2    0    0  0.19042548334E+03 -0.95103191393E+02  0.12444110949E+03  0.26218152065E+03  0.89146387032E+02 0.  0.
         11    1    3    3    0    0  0.61412754680E+01  0.37623927314E+02  0.48319774802E+01  0.38426854897E+02  0.00000000000E+00 0. -1.
        -12    1    3    3    0    0 -0.62134294025E+02 -0.29866309372E+01  0.46253016688E+02  0.77517301367E+02  0.00000000000E+00 0.  1.
        -11    1    4    4    0    0  0.12350302571E+03 -0.13049436774E+02  0.77259528890E+02  0.14626113620E+03  0.00000000000E+00 0.  1.
         11    1    4    4    0    0  0.66922457638E+02 -0.82053754619E+02  0.47181580598E+02  0.11592038445E+03  0.00000000000E+00 0. -1.
          2    1    1    2  501    0 -0.13443246479E+03  0.60465895016E+02 -0.66959132736E+02  0.16190039378E+03  0.00000000000E+00 0. -1.
<scales pt_clust_5="13000.00000" pt_clust_6="13000.00000" pt_clust_7="13000.00000" pt_clust_8="13000.00000" pt_clust_9="188.23072"></scales>
<clustering>
<clus scale="   80.613">  5  6 -1 -1</clus>
<clus scale="   89.146">  7  8 -1 -1</clus>
<clus scale="  104.084">  2  5  1 -1</clus>
<clus scale="  188.231">  1  9  2 -1</clus>
<clus scale="  188.231">  1  5  2 -1</clus>
</clustering>
</event>
<event>
 9    1  0.6296820E-005  0.1002476E+03  0.7546771E-02  0.1284043E+00
          1   -1    0    0  502    0 -0.00000000000E+00  0.00000000000E+00  0.43984097749E+03  0.43984097749E+03  0.00000000000E+00 0. -1.
         21   -1    0    0  501  502  0.00000000000E+00 -0.00000000000E+00 -0.56210387924E+02  0.56210387924E+02  0.00000000000E+00 0.  1.
         23    2    1    2    0    0  0.98728251713E+01  0.54467308259E+02  0.75832911301E+02  0.13001156933E+03  0.89934517170E+02 0.  0.
        -24    2    1    2    0    0 -0.32018354184E+02 -0.23347582198E+02  0.45780574828E+02  0.10125342124E+03  0.81154850025E+02 0.  0.
         13    1    4    4    0    0  0.73634906863E+01 -0.34577258112E+02 -0.53389470413E+01  0.35753491146E+02  0.00000000000E+00 0. -1.
        -14    1    4    4    0    0 -0.39381844870E+02  0.11229675914E+02  0.51119521869E+02  0.65499930096E+02  0.00000000000E+00 0.  1.
        -11    1    3    3    0    0 -0.15794263992E+02  0.56423547477E+02  0.10150621556E+02  0.59465204976E+02  0.00000000000E+00 0.  1.
         11    1    3    3    0    0  0.25667089163E+02 -0.19562392173E+01  0.65682289745E+02  0.70546364358E+02  0.00000000000E+00 0. -1.
          2    1    1    2  501    0  0.22145529013E+02 -0.31119726062E+02  0.26201710344E+03  0.26478637484E+03  0.00000000000E+00 0. -1.
<scales pt_clust_5="13000.00000" pt_clust_6="13000.00000" pt_clust_7="13000.00000" pt_clust_8="13000.00000" pt_clust_9="38.19507"></scales>
<clustering>
<clus scale="   38.195">  2  9  1 -1</clus>
<clus scale="   81.155">  5  6 -1 -1</clus>
<clus scale="   89.935">  7  8 -1 -1</clus>
<clus scale="   92.453">  2  5  1 -1</clus>
<clus scale="   38.195">  2  5  1 -1</clus>
</clustering>
</event>
<event>
 9    1  0.6296820E-005  0.9499618E+02  0.7546771E-02  0.1298276E+00
          1   -1    0    0  502    0 -0.00000000000E+00  0.00000000000E+00  0.87628378634E+02  0.87628378634E+02  0.00000000000E+00 0. -1.
         21   -1    0    0  501  502  0.00000000000E+00 -0.00000000000E+00 -0.13877686116E+03  0.13877686116E+03  0.00000000000E+00 0.  1.
        -24    2    1    2    0    0  0.71239321892E+01 -0.33503809414E+02 -0.80463164201E+01  0.88557524598E+02  0.81267682998E+02 0.  0.
         23    2    1    2    0    0  0.49102827385E+01 -0.13393677348E+01 -0.24465280301E+02  0.96541507004E+02  0.93251315551E+02 0.  0.
         11    1    3    3    0    0  0.12131701049E+02 -0.19252311894E+02  0.35666903676E+02  0.42307891716E+02  0.00000000000E+00 0. -1.
        -12    1    3    3    0    0 -0.50077688601E+01 -0.14251497520E+02 -0.43713220096E+02  0.46249632882E+02  0.00000000000E+00 0.  1.
        -13    1    4    4    0    0 -0.33294406837E+02  0.18839138460E+02  0.11905855221E+02  0.40064698340E+02  0.00000000000E+00 0. -1.
         13    1    4    4    0    0  0.38204689576E+02 -0.20178506195E+02 -0.36371135521E+02  0.56476808665E+02  0.00000000000E+00 0.  1.
          2    1    1    2  501    0 -0.12034214928E+02  0.34843177148E+02 -0.18636885805E+02  0.41306208192E+02  0.00000000000E+00 0. -1.
<scales pt_clust_5="13000.00000" pt_clust_6="13000.00000" pt_clust_7="13000.00000" pt_clust_8="13000.00000" pt_clust_9="36.86284"></scales>
<clustering>
<clus scale="   36.863">  2  9  1 -1</clus>
<clus scale="   81.268">  5  6 -1 -1</clus>
<clus scale="   83.264">  1  5  2 -1</clus>
<clus scale="   93.251">  7  8 -1 -1</clus>
<clus scale="   36.863">  2  5  1 -1</clus>
</clustering>
</event>
<event>
 9    1  0.6296820E-005  0.9364934E+02  0.7546771E-02  0.1299406E+00
         -4   -1    0    0    0  501 -0.00000000000E+00  0.00000000000E+00  0.13913086025E+03  0.13913086025E+03  0.00000000000E+00 0.  1.
         21   -1    0    0  501  502  0.00000000000E+00 -0.00000000000E+00 -0.12862099147E+03  0.12862099147E+03  0.00000000000E+00 0. -1.
        -24    2    1    2    0    0 -0.10031771038E+02 -0.79106167352E+01  0.69202581210E+02  0.10836611274E+03  0.82407541259E+02 0.  0.
         23    2    1    2    0    0  0.41848535121E+02  0.35045456155E+02 -0.39686986110E+02  0.11345292261E+03  0.91197724170E+02 0.  0.
         13    1    3    3    0    0 -0.22503302479E+02  0.33275457086E+02  0.29775262119E+02  0.50002208961E+02  0.00000000000E+00 0. -1.
        -14    1    3    3    0    0  0.12471531441E+02 -0.41186073821E+02  0.39427319091E+02  0.58363903776E+02  0.00000000000E+00 0.  1.
        -11    1    4    4    0    0  0.47696805236E+02 -0.13309565910E+02  0.16830824928E+01  0.49547578560E+02  0.00000000000E+00 0.  1.
         11    1    4    4    0    0 -0.58482701152E+01  0.48355022065E+02 -0.41370068602E+02  0.63905344052E+02  0.00000000000E+00 0. -1.
         -3    1    1    2    0  502 -0.31816764083E+02 -0.27134839420E+02 -0.19005726321E+02  0.45932816374E+02  0.00000000000E+00 0.  1.
<scales pt_clust_5="13000.00000" pt_clust_6="13000.00000" pt_clust_7="13000.00000" pt_clust_8="13000.00000" pt_clust_9="41.81634"></scales>
<clustering>
<clus scale="   41.816">  2  9  1 -1</clus>
<clus scale="   82.408">  5  6 -1 -1</clus>
<clus scale="   85.113">  1  5  2 -1</clus>
<clus scale="   91.198">  7  8 -1 -1</clus>
<clus scale="   41.816">  2  5  1 -1</clus>
</clustering>
</event>
<event>
 9    1  0.6296820E-005  0.9541430E+02  0.7546771E-02  0.1294713E+00
         21   -1    0    0  501  502  0.00000000000E+00  0.00000000000E+00  0.21502435415E+03  0.21502435415E+03  0.00000000000E+00 0. -1.
          1   -1    0    0  502    0 -0.00000000000E+00 -0.00000000000E+00 -0.35298843524E+03  0.35298843524E+03  0.00000000000E+00 0. -1.
         23    2    1    2    0    0  0.28054598462E+02  0.88876196862E+01 -0.28013366781E+03  0.29542161208E+03  0.89067428181E+02 0.  0.
        -24    2    1    2    0    0 -0.52056541201E+02 -0.30514960355E+02 -0.23683129448E+02  0.10362088826E+03  0.80841521366E+02 0.  0.
         11    1    4    4    0    0 -0.27803133788E+02 -0.13617893913E+02 -0.53387897360E+02  0.61714899883E+02  0.00000000000E+00 0. -1.
        -12    1    4    4    0    0 -0.24253407412E+02 -0.16897066442E+02  0.29704767911E+02  0.41905988380E+02  0.00000000000E+00 0.  1.
        -11    1    3    3    0    0  0.16180627929E+02 -0.35890933523E+02 -0.19048333396E+03  0.19450931172E+03  0.00000000000E+00 0. -1.
         11    1    3    3    0    0  0.11873970532E+02  0.44778553209E+02 -0.89650333845E+02  0.10091230035E+03  0.00000000000E+00 0.  1.
          2    1    1    2  501    0  0.24001942739E+02  0.21627340668E+02  0.16585271617E+03  0.16897028905E+03  0.00000000000E+00 0. -1.
<scales pt_clust_5="13000.00000" pt_clust_6="13000.00000" pt_clust_7="13000.00000" pt_clust_8="13000.00000" pt_clust_9="32.30844"></scales>
<clustering>
<clus scale="   32.308">  1  9  2 -1</clus>
<clus scale="   80.842">  5  6 -1 -1</clus>
<clus scale="   87.785">  1  5  2 -1</clus>
<clus scale="   89.067">  7  8 -1 -1</clus>
<clus scale="   32.308">  1  5  2 -1</clus>
</clustering>
</event>
<event>
 9    1  0.6296820E-005  0.9855153E+02  0.7546771E-02  0.1287885E+00
         21   -1    0    0  501  502  0.00000000000E+00  0.00000000000E+00  0.19856575923E+02  0.19856575923E+02  0.00000000000E+00 0.  1.
         -2   -1    0    0    0  501 -0.00000000000E+00 -0.00000000000E+00 -0.75461304536E+03  0.75461304536E+03  0.00000000000E+00 0.  1.
         23    2    1    2    0    0 -0.47725902570E+02 -0.24393503668E+02 -0.41066568239E+03  0.42391397079E+03  0.90465170859E+02 0.  0.
        -24    2    1    2    0    0  0.27962135049E+02 -0.17476545973E+01 -0.29276338985E+03  0.30521943454E+03  0.81630665130E+02 0.  0.
         11    1    4    4    0    0  0.54177983657E+02 -0.90386117436E+01 -0.23548751637E+03  0.24180843820E+03  0.00000000000E+00 0. -1.
        -12    1    4    4    0    0 -0.26215848609E+02  0.72909571463E+01 -0.57275873478E+02  0.63410996342E+02  0.00000000000E+00 0.  1.
        -11    1    3    3    0    0  0.12711272105E+02  0.24114018037E+02 -0.91459722927E+02  0.95435544858E+02  0.00000000000E+00 0. -1.
         11    1    3    3    0    0 -0.60437174675E+02 -0.48507521704E+02 -0.31920595947E+03  0.32847842593E+03  0.00000000000E+00 0.  1.
         -1    1    1    2    0  502  0.19763767521E+02  0.26141158265E+02 -0.31327397191E+02  0.45336215952E+02  0.00000000000E+00 0.  1.
<scales pt_clust_5="13000.00000" pt_clust_6="13000.00000" pt_clust_7="13000.00000" pt_clust_8="13000.00000" pt_clust_9="32.77143"></scales>
<clustering>
<clus scale="   32.771">  1  9  2 -1</clus>
<clus scale="   81.631">  5  6 -1 -1</clus>
<clus scale="   90.465">  7  8 -1 -1</clus>
<clus scale="   90.510">  1  5  2 -1</clus>
<clus scale="   32.771">  1  5  2 -1</clus>
</clustering>
</event>
<event>
 9    1  0.6296820E-005  0.2451165E+03  0.7546771E-02  0.1116974E+00
         -4   -1    0    0    0  501 -0.00000000000E+00  0.00000000000E+00  0.13014768335E+04  0.13014768335E+04  0.00000000000E+00 0.  1.
         21   -1    0    0  501  502  0.00000000000E+00 -0.00000000000E+00 -0.72365220876E+02  0.72365220876E+02  0.00000000000E+00 0.  1.
        -24    2    1    2    0    0  0.18817291476E+03 -0.45571166729E+02  0.38133437636E+03  0.43517587758E+03  0.80475839518E+02 0.  0.
         23    2    1    2    0    0 -0.27418508614E+03 -0.27115526265E+02  0.63093000383E+03  0.69432180674E+03  0.89985489677E+02 0.  0.
         13    1    3    3    0    0  0.62753226455E+02  0.20800609645E+02  0.14778647561E+03  0.16189958359E+03  0.00000000000E+00 0. -1.
        -14    1    3    3    0    0  0.12541968830E+03 -0.66371776374E+02  0.23354790075E+03  0.27327629399E+03  0.00000000000E+00 0.  1.
        -11    1    4    4    0    0 -0.84433425083E+02 -0.26096075539E+02  0.11804890717E+03  0.14746373424E+03  0.00000000000E+00 0. -1.
         11    1    4    4    0    0 -0.18975166106E+03 -0.10194507264E+01  0.51288109665E+03  0.54685807250E+03  0.00000000000E+00 0.  1.
         -3    1    1    2    0  502  0.86012171386E+02  0.72686692995E+02  0.21684723243E+03  0.24434437006E+03  0.00000000000E+00 0.  1.
<scales pt_clust_5="13000.00000" pt_clust_6="13000.00000" pt_clust_7="13000.00000" pt_clust_8="13000.00000" pt_clust_9="112.61194"></scales>
<clustering>
<clus scale="   80.476">  5  6 -1 -1</clus>
<clus scale="   89.985">  7  8 -1 -1</clus>
<clus scale="  112.612">  2  9  1 -1</clus>
<clus scale="  241.787">  1  5  2 -1</clus>
<clus scale="  112.612">  2  5  1 -1</clus>
</clustering>
</event>
<event>
 9    1  0.6296820E-005  0.1458501E+03  0.7546771E-02  0.1221731E+00
         21   -1    0    0  501  502  0.00000000000E+00  0.00000000000E+00  0.13167913540E+03  0.13167913540E+03  0.00000000000E+00 0. -1.
          3   -1    0    0  502    0 -0.00000000000E+00 -0.00000000000E+00 -0.38169820958E+03  0.38169820958E+03  0.00000000000E+00 0. -1.
        -24    2    1    2    0    0 -0.18728213726E+02  0.70098974550E+02 -0.38174130764E+01  0.10378852589E+03  0.74113920695E+02 0.  0.
         23    2    1    2    0    0 -0.32328802527E+01 -0.17325259809E+03 -0.23344365570E+03  0.30335451954E+03  0.86608948039E+02 0.  0.
         11    1    3    3    0    0 -0.31175605979E+02  0.27273224872E+02  0.27120418556E+02  0.49510244452E+02  0.00000000000E+00 0. -1.
        -12    1    3    3    0    0  0.12447392253E+02  0.42825749678E+02 -0.30937831633E+02  0.54278281434E+02  0.00000000000E+00 0.  1.
        -13    1    4    4    0    0  0.26629772018E+02 -0.24850887906E+02 -0.79530728328E+02  0.87474842874E+02  0.00000000000E+00 0.  1.
         13    1    4    4    0    0 -0.29862652271E+02 -0.14840171018E+03 -0.15391292738E+03  0.21587967667E+03  0.00000000000E+00 0. -1.
          4    1    1    2  501    0  0.21961093979E+02  0.10315362354E+03 -0.12758005396E+02  0.10623429954E+03  0.00000000000E+00 0. -1.
<scales pt_clust_5="13000.00000" pt_clust_6="13000.00000" pt_clust_7="13000.00000" pt_clust_8="13000.00000" pt_clust_9="117.35046"></scales>
<clustering>
<clus scale="   74.114">  5  6 -1 -1</clus>
<clus scale="   86.609">  7  8 -1 -1</clus>
<clus scale="  103.718">  2  5  1 -1</clus>
<clus scale="  117.350">  1  9  2 -1</clus>
<clus scale="  117.350">  1  5  2 -1</clus>
</clustering>
</event>
<event>
 9    1  0.6296820E-005  0.9204826E+02  0.7546771E-02  0.1304198E+00
          1   -1    0    0  502    0 -0.00000000000E+00  0.00000000000E+00  0.80303641963E+03  0.80303641963E+03  0.00000000000E+00 0. -1.
         21   -1    0    0  501  502  0.00000000000E+00 -0.00000000000E+00 -0.27811878941E+02  0.27811878941E+02  0.00000000000E+00 0. -1.
         23    2    1    2    0    0  0.16851676011E+02  0.19588625138E+02  0.42082189203E+03  0.43153467867E+03  0.91996852448E+02 0.  0.
        -24    2    1    2    0    0  0.34663727199E+02  0.44304575787E+02  0.23267233990E+03  0.25249929511E+03  0.80343057332E+02 0.  0.
         13    1    4    4    0    0  0.15566778688E+02  0.50581819244E+02  0.65901619601E+02  0.84521408547E+02  0.00000000000E+00 0. -1.
        -14    1    4    4    0    0  0.19096948510E+02 -0.62772434563E+01  0.16677072029E+03  0.16797788657E+03  0.00000000000E+00 0.  1.
        -11    1    3    3    0    0  0.51521245706E+02 -0.39960427735E+01  0.18829207011E+03  0.19525447699E+03  0.00000000000E+00 0. -1.
         11    1    3    3    0    0 -0.34669569696E+02  0.23584667911E+02  0.23252982192E+03  0.23628020168E+03  0.00000000000E+00 0.  1.
          2    1    1    2  501    0 -0.51515403209E+02 -0.63893200925E+02  0.12173030877E+03  0.14681432479E+03  0.00000000000E+00 0. -1.
<scales pt_clust_5="13000.00000" pt_clust_6="13000.00000" pt_clust_7="13000.00000" pt_clust_8="13000.00000" pt_clust_9="82.07422"></scales>
<clustering>
<clus scale="   80.343">  5  6 -1 -1</clus>
<clus scale="   82.074">  2  9  1 -1</clus>
<clus scale="   82.074">  2  5  1 -1</clus>
<clus scale="   91.997">  7  8 -1 -1</clus>
<clus scale="   82.074">  2  5  1 -1</clus>
</clustering>
</event>
<event>
 9    1  0.6296820E-005  0.1037428E+03  0.7546771E-02  0.1276542E+00
          1   -1    0    0  502    0 -0.00000000000E+00  0.00000000000E+00  0.10692670288E+04  0.10692670288E+04  0.00000000000E+00 0. -1.
         21   -1    0    0  501  502  0.00000000000E+00 -0.00000000000E+00 -0.19604152482E+02  0.19604152482E+02  0.00000000000E+00 0.  1.
         23    2    1    2    0    0 -0.52296769781E+02 -0.37872065816E+02  0.60586265322E+03  0.61569234916E+03  0.88533997711E+02 0.  0.
        -24    2    1    2    0    0  0.27527783011E+02  0.48476630540E+01  0.11953258616E+03  0.14629412118E+03  0.79577962165E+02 0.  0.
         13    1    4    4    0    0  0.32700310453E+02  0.15903314359E+01  0.13006187875E+03  0.13411909544E+03  0.00000000000E+00 0. -1.
        -14    1    4    4    0    0 -0.51725274422E+01  0.32573316180E+01 -0.10529292586E+02  0.12175025740E+02  0.00000000000E+00 0.  1.
        -13    1    3    3    0    0  0.23955616867E+02 -0.18597688825E+02  0.14117985745E+03  0.14440047700E+03  0.00000000000E+00 0.  1.
         13    1    3    3    0    0 -0.76252386649E+02 -0.19274376991E+02  0.46468279577E+03  0.47129187216E+03  0.00000000000E+00 0. -1.
          2    1    1    2  501    0  0.24768986771E+02  0.33024402762E+02  0.32426763692E+03  0.32688471093E+03  0.00000000000E+00 0. -1.
<scales pt_clust_5="13000.00000" pt_clust_6="13000.00000" pt_clust_7="13000.00000" pt_clust_8="13000.00000" pt_clust_9="41.28093"></scales>
<clustering>
<clus scale="   41.281">  2  9  1 -1</clus>
<clus scale="   79.578">  5  6 -1 -1</clus>
<clus scale="   88.534">  7  8 -1 -1</clus>
<clus scale="   96.213">  2  5  1 -1</clus>
<clus scale="   41.281">  2  5  1 -1</clus>
</clustering>
</event>
<event>
 9    1  0.6296820E-005  0.9453556E+02  0.7546771E-02  0.1298280E+00
         21   -1    0    0  501  502  0.00000000000E+00  0.00000000000E+00  0.98925264159E+03  0.98925264159E+03  0.00000000000E+00 0.  1.
          3   -1    0    0  502    0 -0.00000000000E+00 -0.00000000000E+00 -0.73555000874E+02  0.73555000874E+02  0.00000000000E+00 0. -1.
         23    2    1    2    0    0  0.74739791292E+01 -0.25278935233E+02 -0.31386877723E+02  0.99882538033E+02  0.91085127108E+02 0.  0.
        -24    2    1    2    0    0 -0.21859596685E+01 -0.37511408828E+01  0.91783366884E+03  0.92137608915E+03  0.80600276108E+02 0.  0.
         11    1    4    4    0    0 -0.86282658046E+00 -0.26096768139E+02  0.10376837174E+03  0.10700308757E+03  0.00000000000E+00 0. -1.
        -12    1    4    4    0    0 -0.13231330880E+01  0.22345627256E+02  0.81406529711E+03  0.81437300158E+03  0.00000000000E+00 0.  1.
        -11    1    3    3    0    0  0.28731547417E+02 -0.43650750624E+02 -0.44722261970E+02  0.68782051167E+02  0.00000000000E+00 0. -1.
         11    1    3    3    0    0 -0.21257568288E+02  0.18371815391E+02  0.13335384248E+02  0.31100486866E+02  0.00000000000E+00 0.  1.
          4    1    1    2  501    0 -0.52880194607E+01  0.29030076115E+02  0.29250849594E+02  0.41549015284E+02  0.00000000000E+00 0. -1.
<scales pt_clust_5="13000.00000" pt_clust_6="13000.00000" pt_clust_7="13000.00000" pt_clust_8="13000.00000" pt_clust_9="29.50778"></scales>
<clustering>
<clus scale="   29.508">  1  9  2 -1</clus>
<clus scale="   80.600">  5  6 -1 -1</clus>
<clus scale="   84.480">  1  5  2 -1</clus>
<clus scale="   91.085">  7  8 -1 -1</clus>
<clus scale="   29.508">  1  5  2 -1</clus>
</clustering>
</event>
<event>
 9    1  0.6296820E-005  0.1122679E+03  0.7546771E-02  0.1260493E+00
         21   -1    0    0  501  502  0.00000000000E+00  0.00000000000E+00  0.49939329413E+03  0.49939329413E+03  0.00000000000E+00 0. -1.
          1   -1    0    0  502    0 -0.00000000000E+00 -0.00000000000E+00 -0.41224544370E+02  0.41224544370E+02  0.00000000000E+00 0. -1.
         23    2    1    2    0    0 -0.24453419073E+02  0.78144722809E+02  0.18539779256E+03  0.22178782540E+03  0.90071808029E+02 0.  0.
        -24    2    1    2    0    0 -0.55207022591E+01 -0.50103414404E+02  0.25914977260E+03  0.27558305256E+03  0.79035333427E+02 0.  0.
         11    1    4    4    0    0 -0.26311022101E+01 -0.53978880658E+02  0.26355740749E+03  0.26904116655E+03  0.00000000000E+00 0. -1.
        -12    1    4    4    0    0 -0.28896000490E+01  0.38754662544E+01 -0.44076348934E+01  0.65418860038E+01  0.00000000000E+00 0.  1.
        -11    1    3    3    0    0  0.20481271244E+02  0.53087043882E+02  0.14688392036E+03  0.15752016620E+03  0.00000000000E+00 0. -1.
         11    1    3    3    0    0 -0.44934690316E+02  0.25057678927E+02  0.38513872206E+02  0.64267659203E+02  0.00000000000E+00 0.  1.
          2    1    1    2  501    0  0.29974121332E+02 -0.28041308405E+02  0.13621184605E+02  0.43246960549E+02  0.00000000000E+00 0. -1.
<scales pt_clust_5="13000.00000" pt_clust_6="13000.00000" pt_clust_7="13000.00000" pt_clust_8="13000.00000" pt_clust_9="41.04588"></scales>
<clustering>
<clus scale="   41.046">  1  9  2 -1</clus>
<clus scale="   79.035">  5  6 -1 -1</clus>
<clus scale="   90.072">  7  8 -1 -1</clus>
<clus scale="  103.623">  1  5  2 -1</clus>
<clus scale="   41.046">  1  5  2 -1</clus>
</clustering>
</event>
<event>
 9    1  0.6296820E-005  0.1015291E+03  0.7546771E-02  0.1289927E+00
         21   -1    0    0  501  502  0.00000000000E+00  0.00000000000E+00  0.47120849067E+03  0.47120849067E+03  0.00000000000E+00 0.  1.
          1   -1    0    0  502    0 -0.00000000000E+00 -0.00000000000E+00 -0.57208184373E+02  0.57208184373E+02  0.00000000000E+00 0. -1.
         23    2    1    2    0    0 -0.17736570481E+02  0.40657537829E+02  0.25982057673E+01  0.10035714005E+03  0.89984351808E+02 0.  0.
        -24    2    1    2    0    0  0.76345337196E+01 -0.64611745225E+02  0.29851979512E+03  0.31222227815E+03  0.64309557378E+02 0.  0.
         13    1    4    4    0    0  0.20323046276E+02 -0.54616721870E+02  0.12460238733E+03  0.13755641551E+03  0.00000000000E+00 0. -1.
        -14    1    4    4    0    0 -0.12688512557E+02 -0.99950233552E+01  0.17391740778E+03  0.17466586264E+03  0.00000000000E+00 0.  1.
        -13    1    3    3    0    0  0.13284413767E+01 -0.28027354941E+02  0.70681147848E+01  0.28935369846E+02  0.00000000000E+00 0.  1.
         13    1    3    3    0    0 -0.19065011858E+02  0.68684892770E+02 -0.44699090175E+01  0.71421770200E+02  0.00000000000E+00 0. -1.
          2    1    1    2  501    0  0.10102036762E+02  0.23954207397E+02  0.11288230542E+03  0.11583725685E+03  0.00000000000E+00 0. -1.
<scales pt_clust_5="13000.00000" pt_clust_6="13000.00000" pt_clust_7="13000.00000" pt_clust_8="13000.00000" pt_clust_9="25.99722"></scales>
<clustering>
<clus scale="   25.997">  1  9  2 -1</clus>
<clus scale="   64.310">  5  6 -1 -1</clus>
<clus scale="   79.666">  1  5  2 -1</clus>
<clus scale="   89.984">  7  8 -1 -1</clus>
<clus scale="   25.997">  1  5  2 -1</clus>
</clustering>
</event>
<event>
 9    1  0.6296820E-005  0.1247641E+03  0.7546771E-02  0.1237728E+00
         21   -1    0    0  501  502  0.00000000000E+00  0.00000000000E+00  0.93197284895E+02  0.93197284895E+02  0.00000000000E+00 0. -1.
         -2   -1    0    0    0  501 -0.00000000000E+00 -0.00000000000E+00 -0.53884171053E+03  0.53884171053E+03  0.00000000000E+00 0.  1.
        -24    2    1    2    0    0  0.50248926904E+02  0.92681812967E+02 -0.25955560482E+03  0.29148612426E+03  0.80499537444E+02 0.  0.
         23    2    1    2    0    0  0.39331574677E+02 -0.81603834389E+02 -0.21166646571E+03  0.24673600813E+03  0.88711929575E+02 0.  0.
         13    1    3    3    0    0  0.35074632949E+02  0.28177097529E+02 -0.33986317112E+02  0.56384824665E+02  0.00000000000E+00 0. -1.
        -14    1    3    3    0    0  0.15174293955E+02  0.64504715439E+02 -0.22556928771E+03  0.23510129959E+03  0.00000000000E+00 0.  1.
        -11    1    4    4    0    0  0.28540687835E+02 -0.10079614086E+03 -0.17349080696E+03  0.20266596402E+03  0.00000000000E+00 0.  1.
         11    1    4    4    0    0  0.10790886843E+02  0.19192306472E+02 -0.38175658753E+02  0.44070044109E+02  0.00000000000E+00 0. -1.
         -1    1    1    2    0  502 -0.89580501582E+02 -0.11077978579E+02  0.25577644893E+02  0.93816863043E+02  0.00000000000E+00 0.  1.
<scales pt_clust_5="13000.00000" pt_clust_6="13000.00000" pt_clust_7="13000.00000" pt_clust_8="13000.00000" pt_clust_9="90.26288"></scales>
<clustering>
<clus scale="   80.500">  5  6 -1 -1</clus>
<clus scale="   88.712">  7  8 -1 -1</clus>
<clus scale="   90.263">  1  9  2 -1</clus>
<clus scale="  119.065">  2  5  1 -1</clus>
<clus scale="   90.263">  1  5  2 -1</clus>
</clustering>
</event>
<event>
 9    1  0.6296820E-005  0.1157600E+03  0.7546771E-02  0.1253830E+00
          1   -1    0    0  502    0 -0.00000000000E+00  0.00000000000E+00  0.49263662020E+03  0.49263662020E+03  0.00000000000E+00 0. -1.
         21   -1    0    0  501  502  0.00000000000E+00 -0.00000000000E+00 -0.79620503964E+02  0.79620503964E+02  0.00000000000E+00 0.  1.
         23    2    1    2    0    0  0.71087190988E+01 -0.73555067095E+02  0.41102709347E+03  0.42755951146E+03  0.91667783276E+02 0.  0.
        -24    2    1    2    0    0 -0.47948669766E+00  0.45200651406E+02 -0.33350076835E+02  0.98907094340E+02  0.81406737380E+02 0.  0.
         13    1    4    4    0    0  0.12381399142E+02  0.60446288861E+02 -0.19801042832E+01  0.61733084281E+02  0.00000000000E+00 0. -1.
        -14    1    4    4    0    0 -0.12860885840E+02 -0.15245637455E+02 -0.31369972552E+02  0.37174010059E+02  0.00000000000E+00 0.  1.
        -13    1    3    3    0    0 -0.15264076827E+02 -0.66467855286E+02  0.39040813506E+03  0.39631992096E+03  0.00000000000E+00 0.  1.
         13    1    3    3    0    0  0.22372795926E+02 -0.70872118095E+01  0.20618958410E+02  0.31239590502E+02  0.00000000000E+00 0. -1.
          2    1    1    2  501    0 -0.66292324011E+01  0.28354415689E+02  0.35339099595E+02  0.45790518358E+02  0.00000000000E+00 0. -1.
<scales pt_clust_5="13000.00000" pt_clust_6="13000.00000" pt_clust_7="13000.00000" pt_clust_8="13000.00000" pt_clust_9="29.11907"></scales>
<clustering>
<clus scale="   29.119">  2  9  1 -1</clus>
<clus scale="   81.407">  5  6 -1 -1</clus>
<clus scale="   91.668">  7  8 -1 -1</clus>
<clus scale="  107.817">  2  5  1 -1</clus>
<clus scale="   29.119">  2  5  1 -1</clus>
</clustering>
</event>
<event>
 9    1  0.6296820E-005  0.1052608E+03  0.7546771E-02  0.1274022E+00
         21   -1    0    0  501  502  0.00000000000E+00  0.00000000000E+00  0.25546530688E+03  0.25546530688E+03  0.00000000000E+00 0. -1.
          1   -1    0    0  502    0 -0.00000000000E+00 -0.00000000000E+00 -0.29712483732E+03  0.29712483732E+03  0.00000000000E+00 0. -1.
         23    2    1    2    0    0  0.29085864891E+02  0.35536544585E+02 -0.19165696027E+03  0.21694826054E+03  0.90693570843E+02 0.  0.
        -24    2    1    2    0    0  0.57581749372E+01 -0.97964257005E+02 -0.39611294507E+02  0.13300231512E+03  0.80563074330E+02 0.  0.
         13    1    4    4    0    0 -0.29285753886E+02 -0.75951046788E+02 -0.97800070435E+01  0.81986983276E+02  0.00000000000E+00 0. -1.
        -14    1    4    4    0    0  0.35043928823E+02 -0.22013210217E+02 -0.29831287463E+02  0.51015331844E+02  0.00000000000E+00 0.  1.
        -13    1    3    3    0    0 -0.27346723272E+02 -0.51126773909E+00 -0.23907850850E+02  0.36327537774E+02  0.00000000000E+00 0.  1.
         13    1    3    3    0    0  0.56432588163E+02  0.36047812324E+02 -0.16774910942E+03  0.18062072276E+03  0.00000000000E+00 0. -1.
          2    1    1    2  501    0 -0.34844039829E+02  0.62427712420E+02  0.18960872434E+03  0.20263956853E+03  0.00000000000E+00 0. -1.
<scales pt_clust_5="13000.00000" pt_clust_6="13000.00000" pt_clust_7="13000.00000" pt_clust_8="13000.00000" pt_clust_9="71.49354"></scales>
<clustering>
<clus scale="   71.494">  1  9  2 -1</clus>
<clus scale="   80.563">  5  6 -1 -1</clus>
<clus scale="   90.694">  7  8 -1 -1</clus>
<clus scale="   96.669">  1  5  2 -1</clus>
<clus scale="   71.494">  1  5  2 -1</clus>
</clustering>
</event>
<event>
 9    1  0.6296820E-005  0.1109107E+03  0.7546771E-02  0.1262826E+00
         21   -1    0    0  501  502  0.00000000000E+00  0.00000000000E+00  0.46233369107E+03  0.46233369107E+03  0.00000000000E+00 0.  1.
          3   -1    0    0  502    0 -0.00000000000E+00 -0.00000000000E+00 -0.17148403933E+03  0.17148403933E+03  0.00000000000E+00 0. -1.
         23    2    1    2    0    0 -0.40795364732E+01  0.56212892510E+02 -0.14144284665E+03  0.17938431571E+03  0.94847888505E+02 0.  0.
        -24    2    1    2    0    0 -0.11629953374E-01 -0.77066630548E+02  0.31568587122E+03  0.33590611179E+03  0.85065157198E+02 0.  0.
         13    1    4    4    0    0 -0.61961357145E+01 -0.39335097024E+02  0.36194534005E+02  0.53811580980E+02  0.00000000000E+00 0. -1.
        -14    1    4    4    0    0  0.61845057611E+01 -0.37731533524E+02  0.27949133721E+03  0.28209453081E+03  0.00000000000E+00 0.  1.
        -13    1    3    3    0    0  0.14944068372E+02  0.13351983401E+02  0.88784183548E+01  0.21918643953E+02  0.00000000000E+00 0.  1.
         13    1    3    3    0    0 -0.19023604845E+02  0.42860909109E+02 -0.15032126500E+03  0.15746567176E+03  0.00000000000E+00 0. -1.
          4    1    1    2  501    0  0.40911664266E+01  0.20853738038E+02  0.11660662717E+03  0.11852730290E+03  0.00000000000E+00 0. -1.
<scales pt_clust_5="13000.00000" pt_clust_6="13000.00000" pt_clust_7="13000.00000" pt_clust_8="13000.00000" pt_clust_9="21.25126"></scales>
<clustering>
<clus scale="   21.251">  1  9  2 -1</clus>
<clus scale="   85.065">  5  6 -1 -1</clus>
<clus scale="   94.848">  7  8 -1 -1</clus>
<clus scale="  102.670">  1  5  2 -1</clus>
<clus scale="   21.251">  1  5  2 -1</clus>
</clustering>
</event>
<event>
 9    1  0.6296820E-005  0.9237750E+02  0.7546771E-02  0.1303970E+00
         21   -1    0    0  501  502  0.00000000000E+00  0.00000000000E+00  0.58020792888E+03  0.58020792888E+03  0.00000000000E+00 0. -1.
          1   -1    0    0  502    0 -0.00000000000E+00 -0.00000000000E+00 -0.26956991632E+02  0.26956991632E+02  0.00000000000E+00 0. -1.
        -24    2    1    2    0    0 -0.81510330861E+00  0.10382856798E+02  0.63096021459E+02  0.10314071279E+03  0.80922373922E+02 0.  0.
         23    2    1    2    0    0  0.22110490847E+02 -0.21141029338E+01  0.40266348532E+03  0.41359956381E+03  0.91833401021E+02 0.  0.
         13    1    3    3    0    0  0.19889098875E+02 -0.98801923686E+01 -0.10117430283E+02  0.24404033495E+02  0.00000000000E+00 0. -1.
        -14    1    3    3    0    0 -0.20704202184E+02  0.20263049167E+02  0.73213451742E+02  0.78736679290E+02  0.00000000000E+00 0.  1.
        -11    1    4    4    0    0 -0.19549653592E+02  0.30572651789E+02  0.10094480456E+03  0.10726942510E+03  0.00000000000E+00 0. -1.
         11    1    4    4    0    0  0.41660144439E+02 -0.32686754723E+02  0.30171868075E+03  0.30633013871E+03  0.00000000000E+00 0.  1.
          2    1    1    2  501    0 -0.21295387538E+02 -0.82687538642E+01  0.87491430467E+02  0.90424643909E+02  0.00000000000E+00 0. -1.
<scales pt_clust_5="13000.00000" pt_clust_6="13000.00000" pt_clust_7="13000.00000" pt_clust_8="13000.00000" pt_clust_9="22.84438"></scales>
<clustering>
<clus scale="   22.844">  1  9  2 -1</clus>
<clus scale="   80.922">  5  6 -1 -1</clus>
<clus scale="   81.539">  2  5  1 -1</clus>
<clus scale="   91.833">  7  8 -1 -1</clus>
<clus scale="   22.844">  1  5  2 -1</clus>
</clustering>
</event>
<event>
 9    1  0.6296820E-005  0.9203621E+02  0.7546771E-02  0.1305110E+00
         21   -1    0    0  501  502  0.00000000000E+00  0.00000000000E+00  0.65266143930E+02  0.65266143930E+02  0.00000000000E+00 0.  1.
          3   -1    0    0  502    0 -0.00000000000E+00 -0.00000000000E+00 -0.20003955420E+03  0.20003955420E+03  0.00000000000E+00 0. -1.
         23    2    1    2    0    0 -0.97235971667E+00 -0.15821346144E+02 -0.10395552091E+03  0.13927904678E+03  0.91327115723E+02 0.  0.
        -24    2    1    2    0    0  0.23108078878E+02 -0.91402017981E+01 -0.37947504713E+02  0.91910667510E+02  0.79937670030E+02 0.  0.
         11    1    4    4    0    0  0.11347884294E+02  0.35330480358E+02 -0.22450497541E+02  0.43370982928E+02  0.00000000000E+00 0. -1.
        -12    1    4    4    0    0  0.11760194585E+02 -0.44470682156E+02 -0.15497007172E+02  0.48539684582E+02  0.00000000000E+00 0.  1.
        -13    1    3    3    0    0 -0.33705802493E+02 -0.49858626648E+01 -0.98681032905E+02  0.10439773083E+03  0.00000000000E+00 0. -1.
         13    1    3    3    0    0  0.32733442776E+02 -0.10835483480E+02 -0.52744880054E+01  0.34881315943E+02  0.00000000000E+00 0.  1.
          4    1    1    2  501    0 -0.22135719162E+02  0.24961547942E+02  0.71296153521E+01  0.34115983843E+02  0.00000000000E+00 0. -1.
<scales pt_clust_5="13000.00000" pt_clust_6="13000.00000" pt_clust_7="13000.00000" pt_clust_8="13000.00000" pt_clust_9="33.36269"></scales>
<clustering>
<clus scale="   33.363">  1  9  2 -1</clus>
<clus scale="   79.938">  5  6 -1 -1</clus>
<clus scale="   80.747">  1  5  2 -1</clus>
<clus scale="   91.327">  7  8 -1 -1</clus>
<clus scale="   33.363">  1  5  2 -1</clus>
</clustering>
</event>
<event>
 9    1  0.6296820E-005  0.1201428E+03  0.7546771E-02  0.1248308E+00
         21   -1    0    0  501  502  0.00000000000E+00  0.00000000000E+00  0.54675284548E+02  0.54675284548E+02  0.00000000000E+00 0. -1.
         -4   -1    0    0    0  501 -0.00000000000E+00 -0.00000000000E+00 -0.38322654071E+03  0.38322654071E+03  0.00000000000E+00 0.  1.
         23    2    1    2    0    0 -0.65402712328E+02 -0.39953044956E+02 -0.26083982593E+03  0.28859573002E+03  0.96831399930E+02 0.  0.
        -24    2    1    2    0    0  0.46676055977E+02  0.30695137225E+02 -0.24444811289E+02  0.10126031677E+03  0.80840938288E+02 0.  0.
         11    1    4    4    0    0  0.25670559313E+02 -0.10404974835E+02  0.22305524571E+02  0.35563711043E+02  0.00000000000E+00 0. -1.
        -12    1    4    4    0    0  0.21005496664E+02  0.41100112061E+02 -0.46750335860E+02  0.65696605731E+02  0.00000000000E+00 0.  1.
        -13    1    3    3    0    0 -0.33745769600E+02 -0.52460830314E+02 -0.24154459758E+03  0.24946885237E+03  0.00000000000E+00 0.  1.
         13    1    3    3    0    0 -0.31656942728E+02  0.12507785358E+02 -0.19295228354E+02  0.39126877651E+02  0.00000000000E+00 0. -1.
         -3    1    1    2    0  502  0.18726656351E+02  0.92579077306E+01 -0.43266618940E+02  0.48045778463E+02  0.00000000000E+00 0.  1.
<scales pt_clust_5="13000.00000" pt_clust_6="13000.00000" pt_clust_7="13000.00000" pt_clust_8="13000.00000" pt_clust_9="20.89012"></scales>
<clustering>
<clus scale="   20.890">  1  9  2 -1</clus>
<clus scale="   80.841">  5  6 -1 -1</clus>
<clus scale="   96.831">  7  8 -1 -1</clus>
<clus scale="  107.672">  1  5  2 -1</clus>
<clus scale="   20.890">  1  5  2 -1</clus>
</clustering>
</event>
<event>
 9    1  0.6296820E-005  0.9805018E+02  0.7546771E-02  0.1289090E+00
         21   -1    0    0  501  502  0.00000000000E+00  0.00000000000E+00  0.11785972544E+02  0.11785972544E+02  0.00000000000E+00 0. -1.
         -2   -1    0    0    0  501 -0.00000000000E+00 -0.00000000000E+00 -0.20712465091E+04  0.20712465091E+04  0.00000000000E+00 0.  1.
        -24    2    1    2    0    0 -0.13314291586E+02  0.36442745039E+02 -0.16647562743E+04  0.16671592852E+04  0.80630548753E+02 0.  0.
         23    2    1    2    0    0 -0.83873397116E+01 -0.50993146958E+02 -0.28858206678E+03  0.30658186389E+03  0.89678210836E+02 0.  0.
         11    1    3    3    0    0 -0.21897729429E+02 -0.67188765392E+00 -0.12322236881E+03  0.12515476084E+03  0.00000000000E+00 0. -1.
        -12    1    3    3    0    0  0.85834378423E+01  0.37114632693E+02 -0.15415339054E+04  0.15420045243E+04  0.00000000000E+00 0.  1.
        -11    1    4    4    0    0 -0.15357810978E+02 -0.76003197439E+02 -0.21591646195E+03  0.22941723327E+03  0.00000000000E+00 0. -1.
         11    1    4    4    0    0  0.69704712665E+01  0.25010050481E+02 -0.72665604823E+02  0.77164630622E+02  0.00000000000E+00 0.  1.
         -1    1    1    2    0  502  0.21701631298E+02  0.14550401919E+02 -0.10612219551E+03  0.10929133258E+03  0.00000000000E+00 0.  1.
<scales pt_clust_5="13000.00000" pt_clust_6="13000.00000" pt_clust_7="13000.00000" pt_clust_8="13000.00000" pt_clust_9="26.12805"></scales>
<clustering>
<clus scale="   26.128">  1  9  2 -1</clus>
<clus scale="   80.631">  5  6 -1 -1</clus>
<clus scale="   89.678">  7  8 -1 -1</clus>
<clus scale="   89.850">  2  5  1 -1</clus>
<clus scale="   26.128">  1  5  2 -1</clus>
</clustering>
</event>
<event>
 9    1  0.6296820E-005  0.1105432E+03  0.7546771E-02  0.1264301E+00
         21   -1    0    0  501  502  0.00000000000E+00  0.00000000000E+00  0.23010736230E+03  0.23010736230E+03  0.00000000000E+00 0. -1.
         -4   -1    0    0    0  501 -0.00000000000E+00 -0.00000000000E+00 -0.11490071896E+03  0.11490071896E+03  0.00000000000E+00 0.  1.
         23    2    1    2    0    0  0.51156012573E+02  0.13878245304E+02  0.66990838907E+02  0.12743821228E+03  0.94568399245E+02 0.  0.
        -24    2    1    2    0    0 -0.65136012795E+02  0.10753419884E+02  0.10806174907E+03  0.15136038004E+03  0.82911319067E+02 0.  0.
         11    1    4    4    0    0 -0.52844955726E+02  0.35550954130E+02  0.10592901420E+03  0.12360184357E+03  0.00000000000E+00 0. -1.
        -12    1    4    4    0    0 -0.12291057069E+02 -0.24797534246E+02  0.21327348755E+01  0.27758536463E+02  0.00000000000E+00 0.  1.
        -13    1    3    3    0    0  0.59903537573E+02  0.45660224448E+02  0.49382493829E+02  0.90066201248E+02  0.00000000000E+00 0.  1.
         13    1    3    3    0    0 -0.87475249999E+01 -0.31781979145E+02  0.17608345078E+02  0.37372011029E+02  0.00000000000E+00 0. -1.
         -3    1    1    2    0  502  0.13980000221E+02 -0.24631665188E+02 -0.59845944646E+02  0.66209488948E+02  0.00000000000E+00 0.  1.
<scales pt_clust_5="13000.00000" pt_clust_6="13000.00000" pt_clust_7="13000.00000" pt_clust_8="13000.00000" pt_clust_9="28.32243"></scales>
<clustering>
<clus scale="   28.322">  1  9  2 -1</clus>
<clus scale="   82.911">  5  6 -1 -1</clus>
<clus scale="   94.568">  7  8 -1 -1</clus>
<clus scale="  100.752">  1  5  2 -1</clus>
<clus scale="   28.322">  1  5  2 -1</clus>
</clustering>
</event>
<event>
 9    1  0.6296820E-005  0.1109980E+03  0.7546771E-02  0.1261689E+00
         21   -1    0    0  501  502  0.00000000000E+00  0.00000000000E+00  0.92797711285E+02  0.92797711285E+02  0.00000000000E+00 0.  1.
          1   -1    0    0  502    0 -0.00000000000E+00 -0.00000000000E+00 -0.19148772886E+03  0.19148772886E+03  0.00000000000E+00 0. -1.
         23    2    1    2    0    0 -0.19302995573E+02 -0.50914996262E+02 -0.69376514645E+02  0.12515805799E+03  0.88805946946E+02 0.  0.
        -24    2    1    2    0    0  0.34685704344E+02  0.76498198586E+02 -0.45532961319E+02  0.12515388071E+03  0.80840403373E+02 0.  0.
         13    1    4    4    0    0  0.34380934844E+02  0.93283253951E+02 -0.35328149663E+02  0.10550778316E+03  0.00000000000E+00 0. -1.
        -14    1    4    4    0    0  0.30476949981E+00 -0.16785055365E+02 -0.10204811656E+02  0.19646097551E+02  0.00000000000E+00 0.  1.
        -13    1    3    3    0    0  0.25344883548E+02 -0.32269468813E+02 -0.56271219373E+00  0.41036549375E+02  0.00000000000E+00 0.  1.
         13    1    3    3    0    0 -0.44647879121E+02 -0.18645527448E+02 -0.68813802451E+02  0.84121508615E+02  0.00000000000E+00 0. -1.
          2    1    1    2  501    0 -0.15382708771E+02 -0.25583202324E+02  0.16219458387E+02  0.33973501449E+02  0.00000000000E+00 0. -1.
<scales pt_clust_5="13000.00000" pt_clust_6="13000.00000" pt_clust_7="13000.00000" pt_clust_8="13000.00000" pt_clust_9="29.85177"></scales>
<clustering>
<clus scale="   29.852">  1  9  2 -1</clus>
<clus scale="   80.840">  5  6 -1 -1</clus>
<clus scale="   88.806">  7  8 -1 -1</clus>
<clus scale="  104.734">  1  5  2 -1</clus>
<clus scale="   29.852">  1  5  2 -1</clus>
</clustering>
</event>
<event>
 9    1  0.6296820E-005  0.1451315E+03  0.7546771E-02  0.1230315E+00
         21   -1    0    0  501  502  0.00000000000E+00  0.00000000000E+00  0.28088964066E+02  0.28088964066E+02  0.00000000000E+00 0. -1.
          3   -1    0    0  502    0 -0.00000000000E+00 -0.00000000000E+00 -0.11937062461E+04  0.11937062461E+04  0.00000000000E+00 0. -1.
        -24    2    1    2    0    0 -0.34794645415E+02 -0.21074126573E+01 -0.21141929494E+03  0.22902707666E+03  0.80871348661E+02 0.  0.
         23    2    1    2    0    0  0.17417346133E+01 -0.10881532626E+03 -0.36661394754E+03  0.39389306100E+03  0.94351195576E+02 0.  0.
         11    1    3    3    0    0  0.97494304764E+01  0.30569884042E+02 -0.63922909642E+02  0.71524174808E+02  0.00000000000E+00 0. -1.
        -12    1    3    3    0    0 -0.44544075892E+02 -0.32677296699E+02 -0.14749638530E+03  0.15750290185E+03  0.00000000000E+00 0.  1.
        -11    1    4    4    0    0 -0.36724600397E+02 -0.85460265636E+02 -0.18875763043E+03  0.21043192800E+03  0.00000000000E+00 0. -1.
         11    1    4    4    0    0  0.38466335011E+02 -0.23355060624E+02 -0.17785631712E+03  0.18346113301E+03  0.00000000000E+00 0.  1.
          4    1    1    2  501    0  0.33052910802E+02  0.11092273892E+03 -0.58758403951E+03  0.59887507245E+03  0.00000000000E+00 0. -1.
<scales pt_clust_5="13000.00000" pt_clust_6="13000.00000" pt_clust_7="13000.00000" pt_clust_8="13000.00000" pt_clust_9="110.27703"></scales>
<clustering>
<clus scale="   80.871">  5  6 -1 -1</clus>
<clus scale="   88.064">  2  5  1 -1</clus>
<clus scale="   94.351">  7  8 -1 -1</clus>
<clus scale="  110.277">  1  9  2 -1</clus>
<clus scale="  110.277">  1  5  2 -1</clus>
</clustering>
</event>
<event>
 9    1  0.6296820E-005  0.9709699E+02  0.7546771E-02  0.1291382E+00
          3   -1    0    0  502    0 -0.00000000000E+00  0.00000000000E+00  0.12418082898E+03  0.12418082898E+03  0.00000000000E+00 0. -1.
         21   -1    0    0  501  502  0.00000000000E+00 -0.00000000000E+00 -0.20800345330E+03  0.20800345330E+03  0.00000000000E+00 0.  1.
         23    2    1    2    0    0  0.59406025312E+01  0.36025780318E+02  0.85004219171E+02  0.12972899211E+03  0.90943644692E+02 0.  0.
        -24    2    1    2    0    0 -0.11466783976E+02 -0.13844528529E+02 -0.15365111131E+03  0.17501718784E+03  0.81848603698E+02 0.  0.
         13    1    4    4    0    0 -0.25432388143E+02 -0.29522555561E+02 -0.28906017782E+02  0.48517476413E+02  0.00000000000E+00 0. -1.
        -14    1    4    4    0    0  0.13965604167E+02  0.15678027032E+02 -0.12474509353E+03  0.12649971142E+03  0.00000000000E+00 0.  1.
        -11    1    3    3    0    0 -0.36126673002E+02  0.27755824544E+02  0.15607452906E+02  0.48157189334E+02  0.00000000000E+00 0.  1.
         11    1    3    3    0    0  0.42067275534E+02  0.82699557744E+01  0.69396766265E+02  0.81571802771E+02  0.00000000000E+00 0. -1.
          4    1    1    2  501    0  0.55261814448E+01 -0.22181251789E+02 -0.15175732188E+02  0.27438102334E+02  0.00000000000E+00 0. -1.
<scales pt_clust_5="13000.00000" pt_clust_6="13000.00000" pt_clust_7="13000.00000" pt_clust_8="13000.00000" pt_clust_9="22.85928"></scales>
<clustering>
<clus scale="   22.859">  2  9  1 -1</clus>
<clus scale="   81.849">  5  6 -1 -1</clus>
<clus scale="   88.636">  2  5  1 -1</clus>
<clus scale="   90.944">  7  8 -1 -1</clus>
<clus scale="   22.859">  2  5  1 -1</clus>
</clustering>
</event>
<event>
 9    1  0.6296820E-005  0.9875137E+02  0.7546771E-02  0.1288071E+00
          1   -1    0    0  502    0 -0.00000000000E+00  0.00000000000E+00  0.33726214450E+03  0.33726214450E+03  0.00000000000E+00 0. -1.
         21   -1    0    0  501  502  0.00000000000E+00 -0.00000000000E+00 -0.77903375339E+02  0.77903375339E+02  0.00000000000E+00 0.  1.
        -24    2    1    2    0    0 -0.40658398647E+02  0.62977259262E+01  0.25500682040E+03  0.27066970884E+03  0.80875497553E+02 0.  0.
         23    2    1    2    0    0  0.20853932833E+02 -0.31584311445E+02  0.30534494451E+02  0.10305725441E+03  0.90862462493E+02 0.  0.
         13    1    3    3    0    0 -0.47727018182E+02 -0.27985792588E+02  0.16841973155E+03  0.17727458596E+03  0.00000000000E+00 0. -1.
        -14    1    3    3    0    0  0.70686195354E+01  0.34283518514E+02  0.86587088847E+02  0.93395122886E+02  0.00000000000E+00 0.  1.
        -13    1    4    4    0    0 -0.15849007624E+02 -0.40081079887E+02 -0.13443723088E+02  0.45148839388E+02  0.00000000000E+00 0.  1.
         13    1    4    4    0    0  0.36702940457E+02  0.84967684418E+01  0.43978217538E+02  0.57908415019E+02  0.00000000000E+00 0. -1.
          2    1    1    2  501    0  0.19804465814E+02  0.25286585519E+02 -0.26182545687E+02  0.41438556587E+02  0.00000000000E+00 0. -1.
<scales pt_clust_5="13000.00000" pt_clust_6="13000.00000" pt_clust_7="13000.00000" pt_clust_8="13000.00000" pt_clust_9="32.11897"></scales>
<clustering>
<clus scale="   32.119">  2  9  1 -1</clus>
<clus scale="   80.875">  5  6 -1 -1</clus>
<clus scale="   89.648">  1  5  2 -1</clus>
<clus scale="   90.862">  7  8 -1 -1</clus>
<clus scale="   32.119">  2  5  1 -1</clus>
</clustering>
</event>
<event>
 9    1  0.6296820E-005  0.1051471E+03  0.7546771E-02  0.1274272E+00
         21   -1    0    0  501  502  0.00000000000E+00  0.00000000000E+00  0.35511508786E+02  0.35511508786E+02  0.00000000000E+00 0. -1.
          3   -1    0    0  502    0 -0.00000000000E+00 -0.00000000000E+00 -0.55182429446E+03  0.55182429446E+03  0.00000000000E+00 0. -1.
         23    2    1    2    0    0 -0.38768139818E+01 -0.41522947880E+02 -0.32590200823E+03  0.34090510284E+03  0.90911964493E+02 0.  0.
        -24    2    1    2    0    0  0.18039182595E+02  0.76459656338E+02 -0.16887361014E+03  0.20301416141E+03  0.80777239222E+02 0.  0.
         11    1    4    4    0    0  0.33503652869E+02  0.25191848834E+02 -0.23420946395E+02  0.48017337840E+02  0.00000000000E+00 0. -1.
        -12    1    4    4    0    0 -0.15464470273E+02  0.51267807503E+02 -0.14545266374E+03  0.15499682357E+03  0.00000000000E+00 0.  1.
        -11    1    3    3    0    0  0.41080565530E+02 -0.76376632760E+01 -0.17281303764E+03  0.17779283659E+03  0.00000000000E+00 0. -1.
         11    1    3    3    0    0 -0.44957379512E+02 -0.33885284604E+02 -0.15308897059E+03  0.16311226625E+03  0.00000000000E+00 0.  1.
          4    1    1    2  501    0 -0.14162368613E+02 -0.34936708457E+02 -0.21537167307E+02  0.43416538993E+02  0.00000000000E+00 0. -1.
<scales pt_clust_5="13000.00000" pt_clust_6="13000.00000" pt_clust_7="13000.00000" pt_clust_8="13000.00000" pt_clust_9="37.69809"></scales>
<clustering>
<clus scale="   37.698">  1  9  2 -1</clus>
<clus scale="   80.777">  5  6 -1 -1</clus>
<clus scale="   90.912">  7  8 -1 -1</clus>
<clus scale="   96.519">  1  5  2 -1</clus>
<clus scale="   37.698">  1  5  2 -1</clus>
</clustering>
</event>
<event>
 9    1  0.6296820E-005  0.8920674E+02  0.7546771E-02  0.1308759E+00
          3   -1    0    0  502    0 -0.00000000000E+00  0.00000000000E+00  0.44683026864E+02  0.44683026864E+02  0.00000000000E+00 0. -1.
         21   -1    0    0  501  502  0.00000000000E+00 -0.00000000000E+00 -0.24580521872E+03  0.24580521872E+03  0.00000000000E+00 0.  1.
         23    2    1    2    0    0  0.92788618645E+00  0.13554106881E+02 -0.65494568168E+02  0.10975479767E+03  0.87017253265E+02 0.  0.
        -24    2    1    2    0    0 -0.22945557406E+02 -0.23380474806E+02 -0.12922276303E+03  0.15578635204E+03  0.80608434977E+02 0.  0.
         13    1    4    4    0    0  0.12227510385E+02  0.19700856950E+02 -0.12156213899E+02  0.26180322976E+02  0.00000000000E+00 0. -1.
        -14    1    4    4    0    0 -0.35173067791E+02 -0.43081331756E+02 -0.11706654913E+03  0.12960602906E+03  0.00000000000E+00 0.  1.
        -11    1    3    3    0    0  0.22192369971E+02 -0.30411338720E+02 -0.38944443234E+02  0.54166599178E+02  0.00000000000E+00 0.  1.
         11    1    3    3    0    0 -0.21264483784E+02  0.43965445601E+02 -0.26550124935E+02  0.55588198492E+02  0.00000000000E+00 0. -1.
          4    1    1    2  501    0  0.22017671219E+02  0.98263679247E+01 -0.64048606531E+01  0.24947095873E+02  0.00000000000E+00 0. -1.
<scales pt_clust_5="13000.00000" pt_clust_6="13000.00000" pt_clust_7="13000.00000" pt_clust_8="13000.00000" pt_clust_9="24.11091"></scales>
<clustering>
<clus scale="   24.111">  2  9  1 -1</clus>
<clus scale="   80.608">  5  6 -1 -1</clus>
<clus scale="   82.967">  2  5  1 -1</clus>
<clus scale="   87.017">  7  8 -1 -1</clus>
<clus scale="   24.111">  2  5  1 -1</clus>
</clustering>
</event>
<event>
 9    1  0.6296820E-005  0.9827575E+02  0.7546771E-02  0.1289977E+00
         21   -1    0    0  501  502  0.00000000000E+00  0.00000000000E+00  0.93338888104E+02  0.93338888104E+02  0.00000000000E+00 0. -1.
          1   -1    0    0  502    0 -0.00000000000E+00 -0.00000000000E+00 -0.19619083098E+03  0.19619083098E+03  0.00000000000E+00 0. -1.
         23    2    1    2    0    0 -0.28008437301E+02 -0.26731324664E+02 -0.10110858534E+03  0.14228997853E+03  0.92327978865E+02 0.  0.
        -24    2    1    2    0    0  0.39750539322E+01  0.19290385331E+02  0.44546611427E+02  0.94554521370E+02  0.81044659922E+02 0.  0.
         11    1    4    4    0    0 -0.25825755350E+02  0.38666770885E+02  0.33576968566E+02  0.57354177077E+02  0.00000000000E+00 0. -1.
        -12    1    4    4    0    0  0.29800809282E+02 -0.19376385554E+02  0.10969642861E+02  0.37200344293E+02  0.00000000000E+00 0.  1.
        -13    1    3    3    0    0  0.63555750713E+01 -0.54941749609E+02 -0.61913272677E+02  0.83019530944E+02  0.00000000000E+00 0. -1.
         13    1    3    3    0    0 -0.34364012372E+02  0.28210424945E+02 -0.39195312663E+02  0.59270447583E+02  0.00000000000E+00 0.  1.
          2    1    1    2  501    0  0.24033383369E+02  0.74409393324E+01 -0.46289968958E+02  0.52685219183E+02  0.00000000000E+00 0. -1.
<scales pt_clust_5="13000.00000" pt_clust_6="13000.00000" pt_clust_7="13000.00000" pt_clust_8="13000.00000" pt_clust_9="25.15893"></scales>
<clustering>
<clus scale="   25.159">  1  9  2 -1</clus>
<clus scale="   81.045">  5  6 -1 -1</clus>
<clus scale="   87.760">  1  5  2 -1</clus>
<clus scale="   92.328">  7  8 -1 -1</clus>
<clus scale="   25.159">  1  5  2 -1</clus>
</clustering>
</event>
<event>
 9    1  0.6296820E-005  0.9263764E+02  0.7546771E-02  0.1303085E+00
         21   -1    0    0  501  502  0.00000000000E+00  0.00000000000E+00  0.10890036783E+03  0.10890036783E+03  0.00000000000E+00 0. -1.
          1   -1    0    0  502    0 -0.00000000000E+00 -0.00000000000E+00 -0.14310965754E+03  0.14310965754E+03  0.00000000000E+00 0. -1.
        -24    2    1    2    0    0 -0.19033147846E+02  0.26462685438E+01 -0.57966820328E+02  0.10103406432E+03  0.80488921225E+02 0.  0.
         23    2    1    2    0    0 -0.86462991539E+01 -0.37502063629E+02  0.35212556773E+02  0.10501624106E+03  0.91144519672E+02 0.  0.
         11    1    3    3    0    0 -0.50368624925E+02 -0.37426651973E+01 -0.31526969079E+02  0.59539530557E+02  0.00000000000E+00 0. -1.
        -12    1    3    3    0    0  0.31335477079E+02  0.63889337411E+01 -0.26439851249E+02  0.41494533763E+02  0.00000000000E+00 0.  1.
        -13    1    4    4    0    0 -0.22737048519E+02  0.63220087392E+01  0.51125732337E+02  0.56309694342E+02  0.00000000000E+00 0. -1.
         13    1    4    4    0    0  0.14090749365E+02 -0.43824072368E+02 -0.15913175565E+02  0.48706546718E+02  0.00000000000E+00 0.  1.
          2    1    1    2  501    0  0.27679447000E+02  0.34855795085E+02 -0.11455026158E+02  0.45959719990E+02  0.00000000000E+00 0. -1.
<scales pt_clust_5="13000.00000" pt_clust_6="13000.00000" pt_clust_7="13000.00000" pt_clust_8="13000.00000" pt_clust_9="44.50933"></scales>
<clustering>
<clus scale="   44.509">  1  9  2 -1</clus>
<clus scale="   80.489">  5  6 -1 -1</clus>
<clus scale="   82.176">  2  5  1 -1</clus>
<clus scale="   91.145">  7  8 -1 -1</clus>
<clus scale="   44.509">  1  5  2 -1</clus>
</clustering>
</event>
<event>
 9    1  0.6296820E-005  0.9716430E+02  0.7546771E-02  0.1295974E+00
         -4   -1    0    0    0  501 -0.00000000000E+00  0.00000000000E+00  0.17359930224E+03  0.17359930224E+03  0.00000000000E+00 0.  1.
         21   -1    0    0  501  502  0.00000000000E+00 -0.00000000000E+00 -0.72099556657E+02  0.72099556657E+02  0.00000000000E+00 0. -1.
         23    2    1    2    0    0 -0.53730370103E+01  0.90261622230E+01  0.28867242103E+02  0.99633080335E+02  0.94779174396E+02 0.  0.
        -24    2    1    2    0    0  0.35339336430E+02  0.23708361043E+01  0.26639564536E+02  0.90001341487E+02  0.78333169907E+02 0.  0.
         11    1    4    4    0    0  0.98910211663E+01 -0.35319761270E+02 -0.11659069045E+01  0.36697100359E+02  0.00000000000E+00 0. -1.
        -12    1    4    4    0    0  0.25448315264E+02  0.37690597374E+02  0.27805471440E+02  0.53304241128E+02  0.00000000000E+00 0.  1.
        -13    1    3    3    0    0 -0.20831322357E+02 -0.22561891253E+02 -0.22012250295E+02  0.37782563321E+02  0.00000000000E+00 0. -1.
         13    1    3    3    0    0  0.15458285347E+02  0.31588053476E+02  0.50879492398E+02  0.61850517014E+02  0.00000000000E+00 0.  1.
         -3    1    1    2    0  502 -0.29966299420E+02 -0.11396998327E+02  0.45992938946E+02  0.56064437076E+02  0.00000000000E+00 0.  1.
<scales pt_clust_5="13000.00000" pt_clust_6="13000.00000" pt_clust_7="13000.00000" pt_clust_8="13000.00000" pt_clust_9="32.06044"></scales>
<clustering>
<clus scale="   32.060">  2  9  1 -1</clus>
<clus scale="   78.333">  5  6 -1 -1</clus>
<clus scale="   81.203">  2  5  1 -1</clus>
<clus scale="   94.779">  7  8 -1 -1</clus>
<clus scale="   32.060">  2  5  1 -1</clus>
</clustering>
</event>
<event>
 9    1  0.6296820E-005  0.1384941E+03  0.7546771E-02  0.1216311E+00
          1   -1    0    0  502    0 -0.00000000000E+00  0.00000000000E+00  0.38128745970E+03  0.38128745970E+03  0.00000000000E+00 0. -1.
         21   -1    0    0  501  502  0.00000000000E+00 -0.00000000000E+00 -0.90984854607E+02  0.90984854607E+02  0.00000000000E+00 0.  1.
        -24    2    1    2    0    0  0.18967440384E+02 -0.11061297546E+03  0.15375583784E+03  0.20838488908E+03  0.84784492647E+02 0.  0.
         23    2    1    2    0    0  0.37449894701E+01  0.93374904258E+02  0.49189721496E+01  0.12920675841E+03  0.89091483553E+02 0.  0.
         13    1    3    3    0    0 -0.33712141355E+02 -0.36494727780E+02  0.52003822494E+02  0.71921979842E+02  0.00000000000E+00 0. -1.
        -14    1    3    3    0    0  0.52679581739E+02 -0.74118247680E+02  0.10175201534E+03  0.13646290924E+03  0.00000000000E+00 0.  1.
        -13    1    4    4    0    0  0.29496176735E+02  0.88849307757E+02  0.24230462551E+02  0.96702322859E+02  0.00000000000E+00 0. -1.
         13    1    4    4    0    0 -0.25751187265E+02  0.45255965001E+01 -0.19311490401E+02  0.32504435555E+02  0.00000000000E+00 0.  1.
          2    1    1    2  501    0 -0.22712429854E+02  0.17238071202E+02  0.13162779510E+03  0.13468066681E+03  0.00000000000E+00 0. -1.
<scales pt_clust_5="13000.00000" pt_clust_6="13000.00000" pt_clust_7="13000.00000" pt_clust_8="13000.00000" pt_clust_9="28.51327"></scales>
<clustering>
<clus scale="   28.513">  2  9  1 -1</clus>
<clus scale="   84.784">  5  6 -1 -1</clus>
<clus scale="   89.091">  7  8 -1 -1</clus>
<clus scale="  135.764">  1  5  2 -1</clus>
<clus scale="   28.513">  2  5  1 -1</clus>
</clustering>
</event>
<event>
 9    1  0.6296820E-005  0.1177728E+03  0.7546771E-02  0.1251344E+00
          3   -1    0    0  502    0 -0.00000000000E+00  0.00000000000E+00  0.14744515013E+03  0.14744515013E+03  0.00000000000E+00 0. -1.
         21   -1    0    0  501  502  0.00000000000E+00 -0.00000000000E+00 -0.12860471180E+03  0.12860471180E+03  0.00000000000E+00 0. -1.
         23    2    1    2    0    0  0.50841518308E+02  0.35212007901E+02  0.27104887897E+02  0.11441285590E+03  0.92362769350E+02 0.  0.
        -24    2    1    2    0    0 -0.55253834468E+02 -0.74348376198E+02 -0.10680084974E+02  0.12217868433E+03  0.78948713882E+02 0.  0.
         11    1    4    4    0    0 -0.49970904823E+02 -0.30565679307E+02  0.26692421754E+02  0.64372645273E+02  0.00000000000E+00 0. -1.
        -12    1    4    4    0    0 -0.52829296444E+01 -0.43782696891E+02 -0.37372506728E+02  0.57806039060E+02  0.00000000000E+00 0.  1.
        -13    1    3    3    0    0  0.51672253868E+02  0.64013833215E+02  0.18217167904E+02  0.84259467534E+02  0.00000000000E+00 0. -1.
         13    1    3    3    0    0 -0.83073555979E+00 -0.28801825314E+02  0.88877199927E+01  0.30153388361E+02  0.00000000000E+00 0.  1.
          4    1    1    2  501    0  0.44123161598E+01  0.39136368298E+02  0.24156354018E+01  0.39458321706E+02  0.00000000000E+00 0. -1.
<scales pt_clust_5="13000.00000" pt_clust_6="13000.00000" pt_clust_7="13000.00000" pt_clust_8="13000.00000" pt_clust_9="39.38431"></scales>
<clustering>
<clus scale="   39.384">  2  9  1 -1</clus>
<clus scale="   78.949">  5  6 -1 -1</clus>
<clus scale="   92.363">  7  8 -1 -1</clus>
<clus scale="  107.575">  2  5  1 -1</clus>
<clus scale="   39.384">  2  5  1 -1</clus>
</clustering>
</event>
<event>
 9    1  0.6296820E-005  0.9410881E+02  0.7546771E-02  0.1296369E+00
          1   -1    0    0  502    0 -0.00000000000E+00  0.00000000000E+00  0.51147885157E+03  0.51147885157E+03  0.00000000000E+00 0. -1.
         21   -1    0    0  501  502  0.00000000000E+00 -0.00000000000E+00 -0.34404573228E+02  0.34404573228E+02  0.00000000000E+00 0.  1.
         23    2    1    2    0    0 -0.35576489927E+02 -0.15026912115E+02  0.30042296515E+03  0.31574383690E+03  0.89155582155E+02 0.  0.
        -24    2    1    2    0    0  0.12230828539E+02  0.18437413395E+02  0.18576690199E+03  0.20484639941E+03  0.83445635590E+02 0.  0.
         11    1    4    4    0    0 -0.26290271335E+02  0.27396068280E+02  0.13642657697E+03  0.14161191274E+03  0.00000000000E+00 0. -1.
        -12    1    4    4    0    0  0.38521099874E+02 -0.89586548852E+01  0.49340325015E+02  0.63234486678E+02  0.00000000000E+00 0.  1.
        -11    1    3    3    0    0  0.26330581737E+02 -0.22214231131E+02  0.12079891583E+03  0.12561508534E+03  0.00000000000E+00 0.  1.
         11    1    3    3    0    0 -0.61907071664E+02  0.71873190157E+01  0.17962404932E+03  0.19012875156E+03  0.00000000000E+00 0. -1.
          2    1    1    2  501    0  0.23345661388E+02 -0.34105012803E+01 -0.91155887945E+01  0.25293188484E+02  0.00000000000E+00 0. -1.
<scales pt_clust_5="13000.00000" pt_clust_6="13000.00000" pt_clust_7="13000.00000" pt_clust_8="13000.00000" pt_clust_9="23.59346"></scales>
<clustering>
<clus scale="   23.593">  2  9  1 -1</clus>
<clus scale="   83.446">  5  6 -1 -1</clus>
<clus scale="   88.718">  2  5  1 -1</clus>
<clus scale="   89.156">  7  8 -1 -1</clus>
<clus scale="   23.593">  2  5  1 -1</clus>
</clustering>
</event>
<event>
 9    1  0.6296820E-005  0.1629014E+03  0.7546771E-02  0.1212941E+00
         21   -1    0    0  501  502  0.00000000000E+00  0.00000000000E+00  0.12217006666E+03  0.12217006666E+03  0.00000000000E+00 0. -1.
          1   -1    0    0  502    0 -0.00000000000E+00 -0.00000000000E+00 -0.56241002063E+03  0.56241002063E+03  0.00000000000E+00 0. -1.
        -24    2    1    2    0    0  0.86678307241E+00  0.42716314842E+02 -0.20601688091E+03  0.22465861064E+03  0.78759769230E+02 0.  0.
         23    2    1    2    0    0 -0.10089234749E+03  0.58460552185E+02 -0.27571525548E+03  0.31172069001E+03  0.86913661377E+02 0.  0.
         11    1    3    3    0    0 -0.32344961756E+02  0.25091861455E+02 -0.16041296061E+03  0.16555396701E+03  0.00000000000E+00 0. -1.
        -12    1    3    3    0    0  0.33211744828E+02  0.17624453388E+02 -0.45603920299E+02  0.59104643628E+02  0.00000000000E+00 0.  1.
        -11    1    4    4    0    0 -0.89922845665E+02  0.78731154429E+01 -0.20582697817E+03  0.22475063752E+03  0.00000000000E+00 0. -1.
         11    1    4    4    0    0 -0.10969501820E+02  0.50587436742E+02 -0.69888277302E+02  0.86970052492E+02  0.00000000000E+00 0.  1.
          2    1    1    2  501    0  0.10002556441E+03 -0.10117686703E+03  0.41492182425E+02  0.14820078664E+03  0.00000000000E+00 0. -1.
<scales pt_clust_5="13000.00000" pt_clust_6="13000.00000" pt_clust_7="13000.00000" pt_clust_8="13000.00000" pt_clust_9="137.77838"></scales>
<clustering>
<clus scale="   78.760">  5  6 -1 -1</clus>
<clus scale="   86.914">  7  8 -1 -1</clus>
<clus scale="   89.602">  2  5  1 -1</clus>
<clus scale="  137.778">  1  9  2 -1</clus>
<clus scale="  137.778">  1  5  2 -1</clus>
</clustering>
</event>
<event>
 9    1  0.6296820E-005  0.1882164E+03  0.7546771E-02  0.1177088E+00
          1   -1    0    0  502    0 -0.00000000000E+00  0.00000000000E+00  0.96943045189E+02  0.96943045189E+02  0.00000000000E+00 0. -1.
         21   -1    0    0  501  502  0.00000000000E+00 -0.00000000000E+00 -0.67640943019E+03  0.67640943019E+03  0.00000000000E+00 0. -1.
         23    2    1    2    0    0 -0.75412179995E+02 -0.48614774367E+02 -0.10600228970E+03  0.16575598583E+03  0.90488497816E+02 0.  0.
        -24    2    1    2    0    0  0.13015448813E+03  0.18164148925E+03 -0.28299872373E+03  0.36891283921E+03  0.77939617045E+02 0.  0.
         13    1    4    4    0    0  0.15991455328E+02  0.83960977803E+02 -0.87109735195E+02  0.12203802032E+03  0.00000000000E+00 0. -1.
        -14    1    4    4    0    0  0.11416303280E+03  0.97680511448E+02 -0.19588898853E+03  0.24687481889E+03  0.00000000000E+00 0.  1.
        -13    1    3    3    0    0 -0.62331728162E+02 -0.33525052125E+01 -0.16429100314E+02  0.64547648787E+02  0.00000000000E+00 0.  1.
         13    1    3    3    0    0 -0.13080451833E+02 -0.45262269154E+02 -0.89573189389E+02  0.10120833704E+03  0.00000000000E+00 0. -1.
          2    1    1    2  501    0 -0.54742308137E+02 -0.13302671488E+03 -0.19046537158E+03  0.23868365035E+03  0.00000000000E+00 0. -1.
<scales pt_clust_5="13000.00000" pt_clust_6="13000.00000" pt_clust_7="13000.00000" pt_clust_8="13000.00000" pt_clust_9="171.32080"></scales>
<clustering>
<clus scale="   77.940">  5  6 -1 -1</clus>
<clus scale="   90.488">  7  8 -1 -1</clus>
<clus scale="  127.431">  1  7  2 -1</clus>
<clus scale="  171.321">  2  9  1 -1</clus>
<clus scale="  171.321">  2  5  1 -1</clus>
</clustering>
</event>
<event>
 9    1  0.6296820E-005  0.9508923E+02  0.7546771E-02  0.1297826E+00
         21   -1    0    0  501  502  0.00000000000E+00  0.00000000000E+00  0.25003508038E+03  0.25003508038E+03  0.00000000000E+00 0. -1.
         -4   -1    0    0    0  501 -0.00000000000E+00 -0.00000000000E+00 -0.48638778990E+02  0.48638778990E+02  0.00000000000E+00 0.  1.
        -24    2    1    2    0    0  0.19950649008E+02  0.74566360497E+01  0.29385261204E+02  0.87142943878E+02  0.79226064365E+02 0.  0.
         23    2    1    2    0    0 -0.36143760891E+02 -0.19726303286E+02  0.12344686213E+03  0.15888833769E+03  0.91164014795E+02 0.  0.
         11    1    3    3    0    0 -0.10752493166E+02 -0.27156989360E+02  0.28583629175E+02  0.40867371302E+02  0.00000000000E+00 0. -1.
        -12    1    3    3    0    0  0.30703142173E+02  0.34613625410E+02  0.80163202919E+00  0.46275572576E+02  0.00000000000E+00 0.  1.
        -13    1    4    4    0    0  0.22503858177E+02  0.18960108624E+02  0.30575786918E+02  0.42435693673E+02  0.00000000000E+00 0.  1.
         13    1    4    4    0    0 -0.58647619068E+02 -0.38686411910E+02  0.92871075209E+02  0.11645264402E+03  0.00000000000E+00 0. -1.
         -3    1    1    2    0  502  0.16193111883E+02  0.12269667236E+02  0.48564178060E+02  0.52642577797E+02  0.00000000000E+00 0.  1.
<scales pt_clust_5="13000.00000" pt_clust_6="13000.00000" pt_clust_7="13000.00000" pt_clust_8="13000.00000" pt_clust_9="20.31654"></scales>
<clustering>
<clus scale="   20.317">  1  9  2 -1</clus>
<clus scale="   79.226">  5  6 -1 -1</clus>
<clus scale="   83.713">  2  5  1 -1</clus>
<clus scale="   91.164">  7  8 -1 -1</clus>
<clus scale="   20.317">  1  5  2 -1</clus>
</clustering>
</event>
<event>
 9    1  0.6296820E-005  0.1019467E+03  0.7546771E-02  0.1282121E+00
         21   -1    0    0  501  502  0.00000000000E+00  0.00000000000E+00  0.32932425115E+02  0.32932425115E+02  0.00000000000E+00 0. -1.
          1   -1    0    0  502    0 -0.00000000000E+00 -0.00000000000E+00 -0.38955034550E+03  0.38955034550E+03  0.00000000000E+00 0. -1.
        -24    2    1    2    0    0  0.27113892620E+02  0.25195371742E+02 -0.16486597379E+03  0.18744821757E+03  0.81154636502E+02 0.  0.
         23    2    1    2    0    0 -0.51629549337E+02 -0.97084264429E+01 -0.15213633808E+03  0.18594016093E+03  0.93104318777E+02 0.  0.
         11    1    3    3    0    0  0.24933071018E+02  0.51966285124E+01 -0.45464935009E+01  0.25871482010E+02  0.00000000000E+00 0. -1.
        -12    1    3    3    0    0  0.21808216021E+01  0.19998743230E+02 -0.16031948029E+03  0.16157673555E+03  0.00000000000E+00 0.  1.
        -11    1    4    4    0    0 -0.30690305425E+02 -0.22057469119E+02 -0.65741504021E+01  0.38362041715E+02  0.00000000000E+00 0. -1.
         11    1    4    4    0    0 -0.20939243912E+02  0.12349042677E+02 -0.14556218768E+03  0.14757811922E+03  0.00000000000E+00 0.  1.
          2    1    1    2  501    0  0.24515656718E+02 -0.15486945299E+02 -0.39615608522E+02  0.49094392119E+02  0.00000000000E+00 0. -1.
<scales pt_clust_5="13000.00000" pt_clust_6="13000.00000" pt_clust_7="13000.00000" pt_clust_8="13000.00000" pt_clust_9="28.99764"></scales>
<clustering>
<clus scale="   28.998">  1  9  2 -1</clus>
<clus scale="   81.155">  5  6 -1 -1</clus>
<clus scale="   91.164">  2  5  1 -1</clus>
<clus scale="   93.104">  7  8 -1 -1</clus>
<clus scale="   28.998">  1  5  2 -1</clus>
</clustering>
</event>
<event>
 9    1  0.6296820E-005  0.1388555E+03  0.7546771E-02  0.1236340E+00
         21   -1    0    0  501  502  0.00000000000E+00  0.00000000000E+00  0.38251091880E+03  0.38251091880E+03  0.00000000000E+00 0. -1.
          1   -1    0    0  502    0 -0.00000000000E+00 -0.00000000000E+00 -0.21539690671E+03  0.21539690671E+03  0.00000000000E+00 0. -1.
        -24    2    1    2    0    0 -0.12975580137E+02 -0.34913449235E+02 -0.41419855752E+02  0.98030930785E+02  0.80666872523E+02 0.  0.
         23    2    1    2    0    0  0.36061864662E+02 -0.69300660890E+02 -0.11073623017E+03  0.16323620681E+03  0.90997290383E+02 0.  0.
         13    1    3    3    0    0  0.15772046218E+02 -0.42238920008E+02 -0.49825104953E+02  0.67196911305E+02  0.00000000000E+00 0. -1.
        -14    1    3    3    0    0 -0.28747626356E+02  0.73254707736E+01  0.84052492010E+01  0.30834019480E+02  0.00000000000E+00 0.  1.
        -11    1    4    4    0    0  0.44272447220E+02 -0.16856457236E+02 -0.97694719326E+02  0.10857461912E+03  0.00000000000E+00 0.  1.
         11    1    4    4    0    0 -0.82105825586E+01 -0.52444203654E+02 -0.13041510845E+02  0.54661587682E+02  0.00000000000E+00 0. -1.
          2    1    1    2  501    0 -0.23086284524E+02  0.10421411012E+03  0.31927009801E+03  0.33664068792E+03  0.00000000000E+00 0. -1.
<scales pt_clust_5="13000.00000" pt_clust_6="13000.00000" pt_clust_7="13000.00000" pt_clust_8="13000.00000" pt_clust_9="104.88251"></scales>
<clustering>
<clus scale="   80.667">  5  6 -1 -1</clus>
<clus scale="   88.851">  2  5  1 -1</clus>
<clus scale="   90.997">  7  8 -1 -1</clus>
<clus scale="  104.883">  1  9  2 -1</clus>
<clus scale="  104.883">  1  5  2 -1</clus>
</clustering>
</event>
<event>
 9    1  0.6296820E-005  0.1491450E+03  0.7546771E-02  0.1202267E+00
          1   -1    0    0  502    0 -0.00000000000E+00  0.00000000000E+00  0.85820951426E+02  0.85820951426E+02  0.00000000000E+00 0. -1.
         21   -1    0    0  501  502  0.00000000000E+00 -0.00000000000E+00 -0.59441080076E+03  0.59441080076E+03  0.00000000000E+00 0. -1.
        -24    2    1    2    0    0  0.27213988574E+02  0.13218304148E+03 -0.32199229515E+02  0.16144645359E+03  0.82554281336E+02 0.  0.
         23    2    1    2    0    0 -0.65362101314E+02 -0.68376797588E+02 -0.25910537907E+03  0.28913471377E+03  0.86693105294E+02 0.  0.
         11    1    3    3    0    0  0.11721046415E+02  0.12401746024E+03 -0.52021337937E+02  0.13499604800E+03  0.00000000000E+00 0. -1.
        -12    1    3    3    0    0  0.15492942159E+02  0.81655812336E+01  0.19822108422E+02  0.26450405591E+02  0.00000000000E+00 0.  1.
        -11    1    4    4    0    0 -0.17736356199E+02 -0.77088419637E+02 -0.17590733660E+03  0.19287455468E+03  0.00000000000E+00 0.  1.
         11    1    4    4    0    0 -0.47625745115E+02  0.87116220493E+01 -0.83198042464E+02  0.96260159081E+02  0.00000000000E+00 0. -1.
          2    1    1    2  501    0  0.38148112741E+02 -0.63806243889E+02 -0.21728524075E+03  0.22965058483E+03  0.00000000000E+00 0. -1.
<scales pt_clust_5="13000.00000" pt_clust_6="13000.00000" pt_clust_7="13000.00000" pt_clust_8="13000.00000" pt_clust_9="74.34054"></scales>
<clustering>
<clus scale="   74.341">  2  9  1 -1</clus>
<clus scale="   82.554">  5  6 -1 -1</clus>
<clus scale="   86.693">  7  8 -1 -1</clus>
<clus scale="  146.778">  1  5  2 -1</clus>
<clus scale="   74.341">  2  5  1 -1</clus>
</clustering>
</event>
<event>
 9    1  0.6296820E-005  0.1470792E+03  0.7546771E-02  0.1228022E+00
         -4   -1    0    0    0  501 -0.00000000000E+00  0.00000000000E+00  0.19095465391E+03  0.19095465391E+03  0.00000000000E+00 0.  1.
         21   -1    0    0  501  502  0.00000000000E+00 -0.00000000000E+00 -0.37119333224E+03  0.37119333224E+03  0.00000000000E+00 0. -1.
        -24    2    1    2    0    0  0.35655696240E+02 -0.85289477430E+01  0.12696565840E+03  0.15489189390E+03  0.80790771498E+02 0.  0.
         23    2    1    2    0    0 -0.88509156467E+02  0.99730637192E+02 -0.20924734753E+03  0.26335748854E+03  0.88275951137E+02 0.  0.
         13    1    3    3    0    0  0.27714876835E+02 -0.32947693151E+01  0.34257190437E+00  0.27912134607E+02  0.00000000000E+00 0. -1.
        -14    1    3    3    0    0  0.79408194050E+01 -0.52341784279E+01  0.12662308649E+03  0.12697975929E+03  0.00000000000E+00 0.  1.
        -13    1    4    4    0    0 -0.23423937930E+02 -0.13688838800E+01 -0.93721009778E+02  0.96613572469E+02  0.00000000000E+00 0.  1.
         13    1    4    4    0    0 -0.65085218537E+02  0.10109952107E+03 -0.11552633775E+03  0.16674391607E+03  0.00000000000E+00 0. -1.
         -3    1    1    2    0  502  0.52853460227E+02 -0.91201689449E+02 -0.97956989200E+02  0.14389860371E+03  0.00000000000E+00 0.  1.
<scales pt_clust_5="13000.00000" pt_clust_6="13000.00000" pt_clust_7="13000.00000" pt_clust_8="13000.00000" pt_clust_9="117.64207"></scales>
<clustering>
<clus scale="   80.791">  5  6 -1 -1</clus>
<clus scale="   88.276">  7  8 -1 -1</clus>
<clus scale="   88.720">  1  5  2 -1</clus>
<clus scale="  117.642">  2  9  1 -1</clus>
<clus scale="  117.642">  2  5  1 -1</clus>
</clustering>
</event>
<event>
 9    1  0.6296820E-005  0.1199983E+03  0.7546771E-02  0.1251079E+00
         21   -1    0    0  501  502  0.00000000000E+00  0.00000000000E+00  0.28889377138E+02  0.28889377138E+02  0.00000000000E+00 0. -1.
         -2   -1    0    0    0  501 -0.00000000000E+00 -0.00000000000E+00 -0.10875091970E+04  0.10875091970E+04  0.00000000000E+00 0.  1.
        -24    2    1    2    0    0 -0.22960843588E+02  0.56422500544E+02 -0.18101729196E+03  0.20789376085E+03  0.82108811380E+02 0.  0.
         23    2    1    2    0    0 -0.53619017889E+02  0.26216772712E+02 -0.29094395033E+03  0.31112552732E+03  0.92673584499E+02 0.  0.
         11    1    3    3    0    0 -0.21247090607E+02  0.70171570151E+02 -0.91213040821E+02  0.11702694960E+03  0.00000000000E+00 0. -1.
        -12    1    3    3    0    0 -0.17137529810E+01 -0.13749069607E+02 -0.89804251137E+02  0.90866811250E+02  0.00000000000E+00 0.  1.
        -13    1    4    4    0    0 -0.46972431462E+02 -0.11464606248E+02 -0.60116204913E+02  0.77147939746E+02  0.00000000000E+00 0. -1.
         13    1    4    4    0    0 -0.66465864266E+01  0.37681378960E+02 -0.23082774541E+03  0.23397758757E+03  0.00000000000E+00 0.  1.
         -1    1    1    2    0  502  0.76579861477E+02 -0.82639273256E+02 -0.58665857758E+03  0.59737928597E+03  0.00000000000E+00 0.  1.
<scales pt_clust_5="13000.00000" pt_clust_6="13000.00000" pt_clust_7="13000.00000" pt_clust_8="13000.00000" pt_clust_9="76.23119"></scales>
<clustering>
<clus scale="   82.109">  5  6 -1 -1</clus>
<clus scale="   92.674">  7  8 -1 -1</clus>
<clus scale="  102.238">  2  5  1 -1</clus>
<clus scale="   76.231">  1  9  2 -1</clus>
<clus scale="   76.231">  1  5  2 -1</clus>
</clustering>
</event>
<event>
 9    1  0.6296820E-005  0.9593171E+02  0.7546771E-02  0.1294461E+00
         -4   -1    0    0    0  501 -0.00000000000E+00  0.00000000000E+00  0.56531323720E+03  0.56531323720E+03  0.00000000000E+00 0.  1.
         21   -1    0    0  501  502  0.00000000000E+00 -0.00000000000E+00 -0.45565610508E+02  0.45565610508E+02  0.00000000000E+00 0.  1.
        -24    2    1    2    0    0  0.76048317481E+01 -0.28518961878E+02  0.37332375138E+03  0.38287791333E+03  0.79710153134E+02 0.  0.
         23    2    1    2    0    0  0.19326472659E+02  0.53915362852E+02  0.15689373315E+03  0.18953159253E+03  0.89589073926E+02 0.  0.
         13    1    3    3    0    0 -0.18568639361E+02 -0.11150575590E+02  0.24739408673E+02  0.32881119890E+02  0.00000000000E+00 0. -1.
        -14    1    3    3    0    0  0.26173471109E+02 -0.17368386287E+02  0.34858434271E+03  0.34999679344E+03  0.00000000000E+00 0.  1.
        -11    1    4    4    0    0 -0.24874283780E+02  0.55368493703E+02  0.10562784674E+03  0.12182627834E+03  0.00000000000E+00 0. -1.
         11    1    4    4    0    0  0.44200756439E+02 -0.14531308501E+01  0.51265886412E+02  0.67705314183E+02  0.00000000000E+00 0.  1.
         -3    1    1    2    0  502 -0.26931304407E+02 -0.25396400975E+02 -0.10469857843E+02  0.38469341855E+02  0.00000000000E+00 0.  1.
<scales pt_clust_5="13000.00000" pt_clust_6="13000.00000" pt_clust_7="13000.00000" pt_clust_8="13000.00000" pt_clust_9="37.01719"></scales>
<clustering>
<clus scale="   37.017">  2  9  1 -1</clus>
<clus scale="   79.710">  5  6 -1 -1</clus>
<clus scale="   86.778">  1  5  2 -1</clus>
<clus scale="   89.589">  7  8 -1 -1</clus>
<clus scale="   37.017">  2  5  1 -1</clus>
</clustering>
</event>
<event>
 9    1  0.6296820E-005  0.2781057E+03  0.7546771E-02  0.1097279E+00
         21   -1    0    0  501  502  0.00000000000E+00  0.00000000000E+00  0.27365865053E+03  0.27365865053E+03  0.00000000000E+00 0. -1.
          1   -1    0    0  502    0 -0.00000000000E+00 -0.00000000000E+00 -0.58971926330E+03  0.58971926330E+03  0.00000000000E+00 0. -1.
         23    2    1    2    0    0  0.14373590350E+03 -0.30522567363E+03 -0.33878156548E+03  0.48691699268E+03  0.92154689797E+02 0.  0.
        -24    2    1    2    0    0 -0.11768397990E+03  0.13609129567E+03 -0.26427076783E+02  0.19841410334E+03  0.79368798242E+02 0.  0.
         13    1    4    4    0    0 -0.66616115600E+02  0.48996783292E+02 -0.47372042856E+02  0.95302161964E+02  0.00000000000E+00 0. -1.
        -14    1    4    4    0    0 -0.51067864302E+02  0.87094512377E+02  0.20944966073E+02  0.10311194138E+03  0.00000000000E+00 0.  1.
        -11    1    3    3    0    0  0.86836352947E+02 -0.82219177364E+02 -0.11568025506E+03  0.16638048783E+03  0.00000000000E+00 0. -1.
         11    1    3    3    0    0  0.56899550557E+02 -0.22300649626E+03 -0.22310131042E+03  0.32053650485E+03  0.00000000000E+00 0.  1.
          2    1    1    2  501    0 -0.26051923602E+02  0.16913437796E+03  0.49148029496E+02  0.17804681782E+03  0.00000000000E+00 0. -1.
<scales pt_clust_5="13000.00000" pt_clust_6="13000.00000" pt_clust_7="13000.00000" pt_clust_8="13000.00000" pt_clust_9="171.12902"></scales>
<clustering>
<clus scale="   79.369">  5  6 -1 -1</clus>
<clus scale="   92.155">  7  8 -1 -1</clus>
<clus scale="  171.129">  1  9  2 -1</clus>
<clus scale="  274.134">  1  5  2 -1</clus>
<clus scale="  171.129">  1  5  2 -1</clus>
</clustering>
</event>
<event>
 9    1  0.6296820E-005  0.1151778E+03  0.7546771E-02  0.1254997E+00
         21   -1    0    0  501  502  0.00000000000E+00  0.00000000000E+00  0.27319131205E+03  0.27319131205E+03  0.00000000000E+00 0.  1.
          1   -1    0    0  502    0 -0.00000000000E+00 -0.00000000000E+00 -0.13094384432E+03  0.13094384432E+03  0.00000000000E+00 0. -1.
        -24    2    1    2    0    0 -0.19563588447E+01  0.74671607207E+02  0.17702757954E+02  0.11055287960E+03  0.79554228585E+02 0.  0.
         23    2    1    2    0    0  0.70626579480E+02 -0.51577364627E+02  0.16744508859E+03  0.20938378661E+03  0.90307110090E+02 0.  0.
         11    1    3    3    0    0  0.18766418971E+02  0.31874973126E+02 -0.26601819396E+02  0.45561487991E+02  0.00000000000E+00 0. -1.
        -12    1    3    3    0    0 -0.20722777816E+02  0.42796634080E+02  0.44304577350E+02  0.64991391608E+02  0.00000000000E+00 0.  1.
        -11    1    4    4    0    0  0.76866065048E+02 -0.71394914302E+02  0.14139697278E+03  0.17606456104E+03  0.00000000000E+00 0.  1.
         11    1    4    4    0    0 -0.62394855690E+01  0.19817549675E+02  0.26048115809E+02  0.33319225569E+02  0.00000000000E+00 0. -1.
          2    1    1    2  501    0 -0.68670220635E+02 -0.23094242580E+02 -0.42900378814E+02  0.84198490157E+02  0.00000000000E+00 0. -1.
<scales pt_clust_5="13000.00000" pt_clust_6="13000.00000" pt_clust_7="13000.00000" pt_clust_8="13000.00000" pt_clust_9="72.44963"></scales>
<clustering>
<clus scale="   72.450">  1  9  2 -1</clus>
<clus scale="   79.554">  5  6 -1 -1</clus>
<clus scale="   90.307">  7  8 -1 -1</clus>
<clus scale="  106.955">  2  5  1 -1</clus>
<clus scale="   72.450">  1  5  2 -1</clus>
</clustering>
</event>
<event>
 9    1  0.9557480E-005  0.1279742E+03  0.7546771E-02  0.1234188E+00
         21   -1    0    0  501  502  0.00000000000E+00  0.00000000000E+00  0.26011200474E+03  0.26011200474E+03  0.00000000000E+00 0.  1.
          1   -1    0    0  502    0 -0.00000000000E+00 -0.00000000000E+00 -0.84030023742E+03  0.84030023742E+03  0.00000000000E+00 0. -1.
        -24    2    1    2    0    0 -0.78016407227E+02  0.36663339308E+02 -0.81726511951E+03  0.82588004855E+03  0.82004992392E+02 0.  0.
         23    2    1    2    0    0  0.56577565882E+02 -0.25636705095E+02  0.18361684485E+03  0.21588761440E+03  0.95047644537E+02 0.  0.
         13    1    3    3    0    0 -0.26891443953E+02 -0.25868418172E+02 -0.21350783188E+03  0.21674390208E+03  0.00000000000E+00 0. -1.
        -14    1    3    3    0    0 -0.51124963275E+02  0.62531757480E+02 -0.60375728763E+03  0.60913614647E+03  0.00000000000E+00 0.  1.
        -13    1    4    4    0    0  0.49765484506E+02 -0.59038809759E+02  0.14572503459E+03  0.16491807121E+03  0.00000000000E+00 0.  1.
         13    1    4    4    0    0  0.68120813754E+01  0.33402104664E+02  0.37891810258E+02  0.50969543193E+02  0.00000000000E+00 0. -1.
          2    1    1    2  501    0  0.21438841346E+02 -0.11026634214E+02  0.53460041994E+02  0.58644579206E+02  0.00000000000E+00 0. -1.
<scales pt_clust_5="13000.00000" pt_clust_6="13000.00000" pt_clust_7="13000.00000" pt_clust_8="13000.00000" pt_clust_9="24.10831"></scales>
<clustering>
<clus scale="   24.108">  1  9  2 -1</clus>
<clus scale="   82.005">  5  6 -1 -1</clus>
<clus scale="   95.048">  7  8 -1 -1</clus>
<clus scale="  118.609">  2  5  1 -1</clus>
<clus scale="   24.108">  1  5  2 -1</clus>
</clustering>
</event>
<event>
 9    1  0.6296820E-005  0.2169716E+03  0.7546771E-02  0.1136859E+00
          1   -1    0    0  502    0 -0.00000000000E+00  0.00000000000E+00  0.12589744281E+04  0.12589744281E+04  0.00000000000E+00 0. -1.
         21   -1    0    0  501  502  0.00000000000E+00 -0.00000000000E+00 -0.91837464907E+02  0.91837464907E+02  0.00000000000E+00 0.  1.
         23    2    1    2    0    0  0.19745589570E+03  0.29339689143E+02  0.10787160894E+04  0.11008348390E+04  0.91429170278E+02 0.  0.
        -24    2    1    2    0    0 -0.18091173427E+03 -0.13456765731E+02  0.10145585339E+03  0.22359737950E+03  0.82415761783E+02 0.  0.
         13    1    4    4    0    0 -0.48924914831E+02 -0.41681989185E+02  0.31647995541E+02  0.71642383652E+02  0.00000000000E+00 0. -1.
        -14    1    4    4    0    0 -0.13198681944E+03  0.28225223454E+02  0.69807857852E+02  0.15195499585E+03  0.00000000000E+00 0.  1.
        -13    1    3    3    0    0  0.29774673114E+02 -0.10352699889E+02  0.61306008724E+02  0.68935740075E+02  0.00000000000E+00 0.  1.
         13    1    3    3    0    0  0.16768122259E+03  0.39692389032E+02  0.10174100807E+04  0.10318990990E+04  0.00000000000E+00 0. -1.
          2    1    1    2  501    0 -0.16544161427E+02 -0.15882923412E+02 -0.13034979588E+02  0.26379674492E+02  0.00000000000E+00 0. -1.
<scales pt_clust_5="13000.00000" pt_clust_6="13000.00000" pt_clust_7="13000.00000" pt_clust_8="13000.00000" pt_clust_9="22.93418"></scales>
<clustering>
<clus scale="   22.934">  2  9  1 -1</clus>
<clus scale="   82.416">  5  6 -1 -1</clus>
<clus scale="   91.429">  7  8 -1 -1</clus>
<clus scale="  213.330">  2  5  1 -1</clus>
<clus scale="   22.934">  2  5  1 -1</clus>
</clustering>
</event>
<event>
 9    1  0.6296820E-005  0.2093645E+03  0.7546771E-02  0.1156702E+00
         21   -1    0    0  501  502  0.00000000000E+00  0.00000000000E+00  0.41599955522E+03  0.41599955522E+03  0.00000000000E+00 0. -1.
          1   -1    0    0  502    0 -0.00000000000E+00 -0.00000000000E+00 -0.20915377733E+03  0.20915377733E+03  0.00000000000E+00 0. -1.
         23    2    1    2    0    0  0.11598135601E+03 -0.70349165600E+01  0.20381397589E+02  0.14936464671E+03  0.91614580313E+02 0.  0.
        -24    2    1    2    0    0  0.79248738521E+02 -0.14630144452E+03  0.11024451230E+03  0.21610368876E+03  0.82840066258E+02 0.  0.
         13    1    4    4    0    0  0.43421801384E+02 -0.14342750915E+03  0.86552934408E+02  0.17305581085E+03  0.00000000000E+00 0. -1.
        -14    1    4    4    0    0  0.35826937137E+02 -0.28739353709E+01  0.23691577889E+02  0.43047877904E+02  0.00000000000E+00 0.  1.
        -11    1    3    3    0    0  0.39350404537E+02 -0.47101492932E+02  0.11406224672E+02  0.62426812629E+02  0.00000000000E+00 0.  1.
         11    1    3    3    0    0  0.76630951468E+02  0.40066576372E+02  0.89751729168E+01  0.86937834077E+02  0.00000000000E+00 0. -1.
          2    1    1    2  501    0 -0.19523009453E+03  0.15333636108E+03  0.76219868002E+02  0.25968499709E+03  0.00000000000E+00 0. -1.
<scales pt_clust_5="13000.00000" pt_clust_6="13000.00000" pt_clust_7="13000.00000" pt_clust_8="13000.00000" pt_clust_9="192.27854"></scales>
<clustering>
<clus scale="   82.840">  5  6 -1 -1</clus>
<clus scale="   91.615">  7  8 -1 -1</clus>
<clus scale="  147.968">  2  7  1 -1</clus>
<clus scale="  192.279">  1  9  2 -1</clus>
<clus scale="  192.279">  1  5  2 -1</clus>
</clustering>
</event>
<event>
 9    1  0.6296820E-005  0.1116056E+03  0.7546771E-02  0.1270015E+00
         21   -1    0    0  501  502  0.00000000000E+00  0.00000000000E+00  0.73873178088E+02  0.73873178088E+02  0.00000000000E+00 0. -1.
          1   -1    0    0  502    0 -0.00000000000E+00 -0.00000000000E+00 -0.31114395010E+03  0.31114395010E+03  0.00000000000E+00 0. -1.
        -24    2    1    2    0    0  0.24910657126E+02 -0.23517697536E+02 -0.29546537228E+02  0.92462362813E+02  0.80639120400E+02 0.  0.
         23    2    1    2    0    0  0.27636393823E+02 -0.54854542930E+02 -0.68277968920E+02  0.12418415719E+03  0.83588472365E+02 0.  0.
         11    1    3    3    0    0 -0.49192435789E+01 -0.38955933725E+02 -0.41196263023E+02  0.56911297796E+02  0.00000000000E+00 0. -1.
        -12    1    3    3    0    0  0.29829900705E+02  0.15438236190E+02  0.11649725795E+02  0.35551065016E+02  0.00000000000E+00 0.  1.
        -11    1    4    4    0    0  0.55512643667E+02 -0.19958531803E+02 -0.41184670561E+02  0.71945630082E+02  0.00000000000E+00 0. -1.
         11    1    4    4    0    0 -0.27876249844E+02 -0.34896011127E+02 -0.27093298359E+02  0.52238527103E+02  0.00000000000E+00 0.  1.
          2    1    1    2  501    0 -0.52547050949E+02  0.78372240466E+02 -0.13944626587E+03  0.16837060819E+03  0.00000000000E+00 0. -1.
<scales pt_clust_5="13000.00000" pt_clust_6="13000.00000" pt_clust_7="13000.00000" pt_clust_8="13000.00000" pt_clust_9="73.95124"></scales>
<clustering>
<clus scale="   80.639">  5  6 -1 -1</clus>
<clus scale="   83.588">  7  8 -1 -1</clus>
<clus scale="   87.614">  2  5  1 -1</clus>
<clus scale="   73.951">  1  9  2 -1</clus>
<clus scale="   73.951">  1  5  2 -1</clus>
</clustering>
</event>
<event>
 9    1  0.6296820E-005  0.9993161E+02  0.7546771E-02  0.1281175E+00
         21   -1    0    0  501  502  0.00000000000E+00  0.00000000000E+00  0.14175091874E+03  0.14175091874E+03  0.00000000000E+00 0. -1.
          1   -1    0    0  502    0 -0.00000000000E+00 -0.00000000000E+00 -0.31349609602E+03  0.31349609602E+03  0.00000000000E+00 0. -1.
        -24    2    1    2    0    0  0.51276299594E+02 -0.20261089169E+02 -0.25786674735E+03  0.27583009450E+03  0.80914837997E+02 0.  0.
         23    2    1    2    0    0 -0.46320871035E+02  0.58543359979E+02  0.37814773475E+02  0.11758137120E+03  0.82598266745E+02 0.  0.
         11    1    3    3    0    0  0.44520018991E+02  0.22084607520E+02 -0.18221364872E+03  0.18886920278E+03  0.00000000000E+00 0. -1.
        -12    1    3    3    0    0  0.67562806029E+01 -0.42345696689E+02 -0.75653098633E+02  0.86960891718E+02  0.00000000000E+00 0.  1.
        -11    1    4    4    0    0 -0.19589792683E+02  0.73731908382E+02  0.41108546385E+02  0.86660642029E+02  0.00000000000E+00 0. -1.
         11    1    4    4    0    0 -0.26731078352E+02 -0.15188548403E+02 -0.32937729100E+01  0.30920729171E+02  0.00000000000E+00 0.  1.
          2    1    1    2  501    0 -0.49554285581E+01 -0.38282270810E+02  0.48306796591E+02  0.61835549059E+02  0.00000000000E+00 0. -1.
<scales pt_clust_5="13000.00000" pt_clust_6="13000.00000" pt_clust_7="13000.00000" pt_clust_8="13000.00000" pt_clust_9="38.60166"></scales>
<clustering>
<clus scale="   38.602">  1  9  2 -1</clus>
<clus scale="   80.915">  5  6 -1 -1</clus>
<clus scale="   82.598">  7  8 -1 -1</clus>
<clus scale="   98.545">  2  5  1 -1</clus>
<clus scale="   38.602">  1  5  2 -1</clus>
</clustering>
</event>
<event>
 9    1  0.6296820E-005  0.1190587E+03  0.7546771E-02  0.1247715E+00
         21   -1    0    0  501  502  0.00000000000E+00  0.00000000000E+00  0.14029412062E+03  0.14029412062E+03  0.00000000000E+00 0.  1.
         -4   -1    0    0    0  501 -0.00000000000E+00 -0.00000000000E+00 -0.21227658732E+03  0.21227658732E+03  0.00000000000E+00 0.  1.
         23    2    1    2    0    0 -0.43948343945E+02  0.60579210033E+02 -0.12136514731E+03  0.16860830462E+03  0.89988686967E+02 0.  0.
        -24    2    1    2    0    0  0.11729891245E+02 -0.98107290687E+02  0.40978638999E+02  0.13379255732E+03  0.80365220752E+02 0.  0.
         11    1    4    4    0    0 -0.27002987072E+02 -0.49358683201E+02 -0.48662964182E+01  0.56472309666E+02  0.00000000000E+00 0. -1.
        -12    1    4    4    0    0  0.38732878317E+02 -0.48748607485E+02  0.45844935417E+02  0.77320247658E+02  0.00000000000E+00 0.  1.
        -11    1    3    3    0    0 -0.71312693592E+02  0.34496001861E+02 -0.83677558946E+02  0.11522763680E+03  0.00000000000E+00 0.  1.
         11    1    3    3    0    0  0.27364349647E+02  0.26083208171E+02 -0.37687588363E+02  0.53380667819E+02  0.00000000000E+00 0. -1.
         -3    1    1    2    0  502  0.32218452700E+02  0.37528080654E+02  0.84040416030E+01  0.50169845996E+02  0.00000000000E+00 0.  1.
<scales pt_clust_5="13000.00000" pt_clust_6="13000.00000" pt_clust_7="13000.00000" pt_clust_8="13000.00000" pt_clust_9="49.46095"></scales>
<clustering>
<clus scale="   49.461">  1  9  2 -1</clus>
<clus scale="   80.365">  5  6 -1 -1</clus>
<clus scale="   89.989">  7  8 -1 -1</clus>
<clus scale="  111.962">  1  5  2 -1</clus>
<clus scale="   49.461">  1  5  2 -1</clus>
</clustering>
</event>
<event>
 9    1  0.6296820E-005  0.1030380E+03  0.7546771E-02  0.1277964E+00
         -2   -1    0    0    0  501 -0.00000000000E+00  0.00000000000E+00  0.11844498578E+03  0.11844498578E+03  0.00000000000E+00 0.  1.
         21   -1    0    0  501  502  0.00000000000E+00 -0.00000000000E+00 -0.14711854733E+03  0.14711854733E+03  0.00000000000E+00 0. -1.
        -24    2    1    2    0    0 -0.11246557789E+02  0.49267697526E+02  0.57226623506E+02  0.11369821663E+03  0.84253231069E+02 0.  0.
         23    2    1    2    0    0  0.61985620891E+01 -0.29472855518E+02 -0.47518232751E+02  0.10838552469E+03  0.92641071531E+02 0.  0.
         13    1    3    3    0    0  0.28979722307E+02 -0.22988233704E+01  0.32940282001E+02  0.43933712251E+02  0.00000000000E+00 0. -1.
        -14    1    3    3    0    0 -0.40226280095E+02  0.51566520896E+02  0.24286341504E+02  0.69764504380E+02  0.00000000000E+00 0.  1.
        -11    1    4    4    0    0 -0.24588921665E+02 -0.17994952855E+02  0.17785818691E+02  0.35281280354E+02  0.00000000000E+00 0.  1.
         11    1    4    4    0    0  0.30787483754E+02 -0.11477902663E+02 -0.65304051442E+02  0.73104244338E+02  0.00000000000E+00 0. -1.
         -1    1    1    2    0  502  0.50479956995E+01 -0.19794842008E+02 -0.38381952307E+02  0.43479791784E+02  0.00000000000E+00 0.  1.
<scales pt_clust_5="13000.00000" pt_clust_6="13000.00000" pt_clust_7="13000.00000" pt_clust_8="13000.00000" pt_clust_9="20.42836"></scales>
<clustering>
<clus scale="   20.428">  2  9  1 -1</clus>
<clus scale="   84.253">  5  6 -1 -1</clus>
<clus scale="   92.641">  7  8 -1 -1</clus>
<clus scale="   95.567">  1  5  2 -1</clus>
<clus scale="   20.428">  2  5  1 -1</clus>
</clustering>
</event>
<event>
 9    1  0.6296820E-005  0.2648931E+03  0.7546771E-02  0.1137908E+00
          1   -1    0    0  502    0 -0.00000000000E+00  0.00000000000E+00  0.54111717435E+03  0.54111717435E+03  0.00000000000E+00 0. -1.
         21   -1    0    0  501  502  0.00000000000E+00 -0.00000000000E+00 -0.19203063997E+03  0.19203063997E+03  0.00000000000E+00 0. -1.
         23    2    1    2    0    0  0.68135623888E+02 -0.71568869571E+01  0.10948914658E+03  0.15827207738E+03  0.91479467566E+02 0.  0.
        -24    2    1    2    0    0 -0.26498807191E+03  0.10977917989E+03  0.10493295144E+03  0.31522841513E+03  0.78024885871E+02 0.  0.
         13    1    4    4    0    0 -0.23850853817E+03  0.93113518725E+02  0.11724239107E+03  0.28160651344E+03  0.00000000000E+00 0. -1.
        -14    1    4    4    0    0 -0.26479533742E+02  0.16665661163E+02 -0.12309439628E+02  0.33621901688E+02  0.00000000000E+00 0.  1.
        -11    1    3    3    0    0  0.51822731367E+02 -0.46737486449E+02  0.54282325574E+02  0.88411305813E+02  0.00000000000E+00 0. -1.
         11    1    3    3    0    0  0.16312892521E+02  0.39580599492E+02  0.55206821003E+02  0.69860771566E+02  0.00000000000E+00 0.  1.
          2    1    1    2  501    0  0.19685244802E+03 -0.10262229293E+03  0.13466443636E+03  0.25964732181E+03  0.00000000000E+00 0. -1.
<scales pt_clust_5="13000.00000" pt_clust_6="13000.00000" pt_clust_7="13000.00000" pt_clust_8="13000.00000" pt_clust_9="253.14119"></scales>
<clustering>
<clus scale="   78.025">  5  6 -1 -1</clus>
<clus scale="   91.479">  7  8 -1 -1</clus>
<clus scale="  114.290">  1  7  2 -1</clus>
<clus scale="  253.141">  2  9  1 -1</clus>
<clus scale="  253.141">  2  5  1 -1</clus>
</clustering>
</event>
<event>
 9    1  0.6296820E-005  0.3961072E+03  0.7546771E-02  0.1093720E+00
          1   -1    0    0  502    0 -0.00000000000E+00  0.00000000000E+00  0.72852719588E+03  0.72852719588E+03  0.00000000000E+00 0. -1.
         21   -1    0    0  501  502  0.00000000000E+00 -0.00000000000E+00 -0.50798208933E+03  0.50798208933E+03  0.00000000000E+00 0. -1.
         23    2    1    2    0    0 -0.39349945116E+02 -0.30273633912E+02  0.40910783926E+03  0.42215350041E+03  0.91539295791E+02 0.  0.
        -24    2    1    2    0    0 -0.35275321145E+03 -0.82982728127E+02 -0.15687737526E+02  0.37112034748E+03  0.78506342731E+02 0.  0.
         11    1    4    4    0    0 -0.34609589720E+03 -0.69511499287E+02 -0.24225699207E+02  0.35383767902E+03  0.00000000000E+00 0. -1.
        -12    1    4    4    0    0 -0.66573142512E+01 -0.13471228839E+02  0.85379616804E+01  0.17282668461E+02  0.00000000000E+00 0.  1.
        -13    1    3    3    0    0 -0.57753531060E+02  0.70591549366E+01  0.29520110647E+03  0.30088036706E+03  0.00000000000E+00 0.  1.
         13    1    3    3    0    0  0.18403585944E+02 -0.37332788849E+02  0.11390673279E+03  0.12127313335E+03  0.00000000000E+00 0. -1.
          2    1    1    2  501    0  0.39210315657E+03  0.11325636204E+03 -0.17287499518E+03  0.44323543732E+03  0.00000000000E+00 0. -1.
<scales pt_clust_5="13000.00000" pt_clust_6="13000.00000" pt_clust_7="13000.00000" pt_clust_8="13000.00000" pt_clust_9="388.24946"></scales>
<clustering>
<clus scale="   78.506">  5  6 -1 -1</clus>
<clus scale="   91.539">  7  8 -1 -1</clus>
<clus scale="  104.136">  1  7  2 -1</clus>
<clus scale="  388.249">  2  9  1 -1</clus>
<clus scale="  388.249">  2  5  1 -1</clus>
</clustering>
</event>
<event>
 9    1  0.6296820E-005  0.9415063E+02  0.7546771E-02  0.1299606E+00
         21   -1    0    0  501  502  0.00000000000E+00  0.00000000000E+00  0.61287421120E+03  0.61287421120E+03  0.00000000000E+00 0.  1.
          3   -1    0    0  502    0 -0.00000000000E+00 -0.00000000000E+00 -0.21267219924E+02  0.21267219924E+02  0.00000000000E+00 0. -1.
         23    2    1    2    0    0  0.17943071165E+01  0.32262412432E+02  0.17486517208E+03  0.19985809932E+03  0.91221426557E+02 0.  0.
        -24    2    1    2    0    0  0.62134775053E+01 -0.50388426365E+01  0.37666355665E+03  0.38517615824E+03  0.80132644587E+02 0.  0.
         13    1    4    4    0    0  0.51060313901E+01  0.35316424316E+02  0.11476933379E+03  0.12018869065E+03  0.00000000000E+00 0. -1.
        -14    1    4    4    0    0  0.11074461152E+01 -0.40355266952E+02  0.26189422286E+03  0.26498746758E+03  0.00000000000E+00 0.  1.
        -13    1    3    3    0    0 -0.96320696845E+01  0.63065823411E+02  0.11056835570E+03  0.12765357860E+03  0.00000000000E+00 0. -1.
         13    1    3    3    0    0  0.11426376801E+02 -0.30803410979E+02  0.64296816379E+02  0.72204520712E+02  0.00000000000E+00 0.  1.
          4    1    1    2  501    0 -0.80077846218E+01 -0.27223569796E+02  0.40078262545E+02  0.49107173566E+02  0.00000000000E+00 0. -1.
<scales pt_clust_5="13000.00000" pt_clust_6="13000.00000" pt_clust_7="13000.00000" pt_clust_8="13000.00000" pt_clust_9="28.37690"></scales>
<clustering>
<clus scale="   28.377">  1  9  2 -1</clus>
<clus scale="   80.133">  5  6 -1 -1</clus>
<clus scale="   83.452">  1  5  2 -1</clus>
<clus scale="   91.221">  7  8 -1 -1</clus>
<clus scale="   28.377">  1  5  2 -1</clus>
</clustering>
</event>
<event>
 9    1  0.6296820E-005  0.1337005E+03  0.7546771E-02  0.1226074E+00
          1   -1    0    0  502    0 -0.00000000000E+00  0.00000000000E+00  0.38127074425E+03  0.38127074425E+03  0.00000000000E+00 0. -1.
         21   -1    0    0  501  502  0.00000000000E+00 -0.00000000000E+00 -0.10014731252E+03  0.10014731252E+03  0.00000000000E+00 0.  1.
        -24    2    1    2    0    0 -0.53991488570E+02 -0.82028911669E+02  0.26845818336E+03  0.29559429634E+03  0.75248711817E+02 0.  0.
         23    2    1    2    0    0  0.79328759271E+02  0.58615233334E+02  0.41411534288E+02  0.14091800830E+03  0.91728797362E+02 0.  0.
         13    1    3    3    0    0 -0.65692621564E+02 -0.56262023500E+02  0.24145445060E+03  0.25647843483E+03  0.00000000000E+00 0. -1.
        -14    1    3    3    0    0  0.11701132994E+02 -0.25766888169E+02  0.27003732760E+02  0.39115861517E+02  0.00000000000E+00 0.  1.
        -13    1    4    4    0    0  0.31886091144E+02 -0.11883532190E+02 -0.16766278875E+02  0.37934802663E+02  0.00000000000E+00 0. -1.
         13    1    4    4    0    0  0.47442668127E+02  0.70498765524E+02  0.58177813163E+02  0.10298320564E+03  0.00000000000E+00 0.  1.
          2    1    1    2  501    0 -0.25337270701E+02  0.23413678335E+02 -0.28746285923E+02  0.44905752127E+02  0.00000000000E+00 0. -1.
<scales pt_clust_5="13000.00000" pt_clust_6="13000.00000" pt_clust_7="13000.00000" pt_clust_8="13000.00000" pt_clust_9="34.49895"></scales>
<clustering>
<clus scale="   34.499">  2  9  1 -1</clus>
<clus scale="   75.249">  5  6 -1 -1</clus>
<clus scale="   91.729">  7  8 -1 -1</clus>
<clus scale="  122.980">  1  5  2 -1</clus>
<clus scale="   34.499">  2  5  1 -1</clus>
</clustering>
</event>
<event>
 9    1  0.6296820E-005  0.1043390E+03  0.7546771E-02  0.1276213E+00
          1   -1    0    0  502    0 -0.00000000000E+00  0.00000000000E+00  0.54334507256E+03  0.54334507256E+03  0.00000000000E+00 0. -1.
         21   -1    0    0  501  502  0.00000000000E+00 -0.00000000000E+00 -0.46742414983E+02  0.46742414983E+02  0.00000000000E+00 0.  1.
         23    2    1    2    0    0 -0.33759459761E+02 -0.68735766495E+01  0.21676657846E+03  0.23772629772E+03  0.91318650422E+02 0.  0.
        -24    2    1    2    0    0  0.94375788777E+02  0.25446157258E+02  0.99282326972E+02  0.16100043755E+03  0.80683728323E+02 0.  0.
         11    1    4    4    0    0  0.91390686849E+02  0.39733440657E+02  0.10550940366E+03  0.14513179600E+03  0.00000000000E+00 0. -1.
        -12    1    4    4    0    0  0.29851019277E+01 -0.14287283399E+02 -0.62270766926E+01  0.15868641548E+02  0.00000000000E+00 0.  1.
        -13    1    3    3    0    0 -0.68939494817E+01 -0.46359193781E+02  0.78308158827E+02  0.91262638174E+02  0.00000000000E+00 0. -1.
         13    1    3    3    0    0 -0.26865510279E+02  0.39485617132E+02  0.13845841963E+03  0.14646365955E+03  0.00000000000E+00 0.  1.
          2    1    1    2  501    0 -0.60616329016E+02 -0.18572580608E+02  0.18055375215E+03  0.19136075227E+03  0.00000000000E+00 0. -1.
<scales pt_clust_5="13000.00000" pt_clust_6="13000.00000" pt_clust_7="13000.00000" pt_clust_8="13000.00000" pt_clust_9="63.39782"></scales>
<clustering>
<clus scale="   63.398">  2  9  1 -1</clus>
<clus scale="   80.684">  5  6 -1 -1</clus>
<clus scale="   91.319">  7  8 -1 -1</clus>
<clus scale="   95.170">  2  5  1 -1</clus>
<clus scale="   63.398">  2  5  1 -1</clus>
</clustering>
</event>
<event>
 9    1  0.6296820E-005  0.1200763E+03  0.7546771E-02  0.1246176E+00
          3   -1    0    0  502    0 -0.00000000000E+00  0.00000000000E+00  0.81575660884E+02  0.81575660884E+02  0.00000000000E+00 0. -1.
         21   -1    0    0  501  502  0.00000000000E+00 -0.00000000000E+00 -0.37285332339E+03  0.37285332339E+03  0.00000000000E+00 0. -1.
         23    2    1    2    0    0 -0.45160840137E+02 -0.86787401701E+02 -0.30850652076E+02  0.13625779501E+03  0.89682046087E+02 0.  0.
        -24    2    1    2    0    0  0.34293686203E+02  0.49628287445E+02 -0.65108095178E+02  0.11905219605E+03  0.79343162892E+02 0.  0.
         13    1    4    4    0    0 -0.18763227748E+01  0.32407807780E+02  0.99669156865E+01  0.33957709001E+02  0.00000000000E+00 0. -1.
        -14    1    4    4    0    0  0.36170008977E+02  0.17220479665E+02 -0.75075010865E+02  0.85094487046E+02  0.00000000000E+00 0.  1.
        -13    1    3    3    0    0  0.13273090977E+02 -0.17951653181E+02  0.22240075845E+02  0.31512819131E+02  0.00000000000E+00 0. -1.
         13    1    3    3    0    0 -0.58433931114E+02 -0.68835748519E+02 -0.53090727921E+02  0.10474497587E+03  0.00000000000E+00 0.  1.
          4    1    1    2  501    0  0.10867153935E+02  0.37159114255E+02 -0.19531891526E+03  0.19911899323E+03  0.00000000000E+00 0. -1.
<scales pt_clust_5="13000.00000" pt_clust_6="13000.00000" pt_clust_7="13000.00000" pt_clust_8="13000.00000" pt_clust_9="38.71556"></scales>
<clustering>
<clus scale="   38.716">  2  9  1 -1</clus>
<clus scale="   79.343">  5  6 -1 -1</clus>
<clus scale="   89.682">  7  8 -1 -1</clus>
<clus scale="  112.565">  2  5  1 -1</clus>
<clus scale="   38.716">  2  5  1 -1</clus>
</clustering>
</event>
<event>
 9    1  0.6296820E-005  0.8789078E+02  0.7546771E-02  0.1311887E+00
          1   -1    0    0  502    0 -0.00000000000E+00  0.00000000000E+00  0.17359248876E+03  0.17359248876E+03  0.00000000000E+00 0. -1.
         21   -1    0    0  501  502  0.00000000000E+00 -0.00000000000E+00 -0.74325746969E+02  0.74325746969E+02  0.00000000000E+00 0. -1.
        -24    2    1    2    0    0  0.30519272495E+02  0.32597062752E+01  0.48461252675E+02  0.98190624364E+02  0.79692245693E+02 0.  0.
         23    2    1    2    0    0  0.45959226807E+01  0.31222071232E+02  0.37109844105E+02  0.98642969795E+02  0.85775023889E+02 0.  0.
         13    1    3    3    0    0  0.41465940027E+02 -0.29230374682E+02  0.24331860672E+02  0.56266139286E+02  0.00000000000E+00 0. -1.
        -14    1    3    3    0    0 -0.10946667532E+02  0.32490080957E+02  0.24129392003E+02  0.41924485078E+02  0.00000000000E+00 0.  1.
        -13    1    4    4    0    0 -0.40217042002E+02  0.10410638142E+02  0.12127779106E+02  0.43276724460E+02  0.00000000000E+00 0.  1.
         13    1    4    4    0    0  0.44812964683E+02  0.20811433090E+02  0.24982064998E+02  0.55366245335E+02  0.00000000000E+00 0. -1.
          2    1    1    2  501    0 -0.35115195176E+02 -0.34481777507E+02  0.13695645016E+02  0.51084641574E+02  0.00000000000E+00 0. -1.
<scales pt_clust_5="13000.00000" pt_clust_6="13000.00000" pt_clust_7="13000.00000" pt_clust_8="13000.00000" pt_clust_9="49.21453"></scales>
<clustering>
<clus scale="   49.215">  2  9  1 -1</clus>
<clus scale="   79.692">  5  6 -1 -1</clus>
<clus scale="   81.965">  1  5  2 -1</clus>
<clus scale="   85.775">  7  8 -1 -1</clus>
<clus scale="   49.215">  2  5  1 -1</clus>
</clustering>
</event>
<event>
 9    1  0.6296820E-005  0.9688408E+02  0.7546771E-02  0.1292469E+00
         21   -1    0    0  501  502  0.00000000000E+00  0.00000000000E+00  0.43274155238E+03  0.43274155238E+03  0.00000000000E+00 0.  1.
         -4   -1    0    0    0  501 -0.00000000000E+00 -0.00000000000E+00 -0.36505966933E+02  0.36505966933E+02  0.00000000000E+00 0.  1.
         23    2    1    2    0    0  0.25759688865E+02 -0.63633786954E+01  0.90112396085E+02  0.13069442281E+03  0.90866572875E+02 0.  0.
        -24    2    1    2    0    0 -0.26835529036E+02  0.41998513497E+02  0.14315167596E+03  0.17172763548E+03  0.80709093071E+02 0.  0.
         13    1    4    4    0    0 -0.26564876748E+02  0.28295987706E+02  0.15101784654E+03  0.15592544876E+03  0.00000000000E+00 0. -1.
        -14    1    4    4    0    0 -0.27065228798E+00  0.13702525792E+02 -0.78661705802E+01  0.15802186726E+02  0.00000000000E+00 0.  1.
        -11    1    3    3    0    0  0.37364256136E+02  0.13143729231E+02  0.19495240970E+01  0.39656599688E+02  0.00000000000E+00 0.  1.
         11    1    3    3    0    0 -0.11604567271E+02 -0.19507107926E+02  0.88162871987E+02  0.91037823119E+02  0.00000000000E+00 0. -1.
         -3    1    1    2    0  502  0.10758401706E+01 -0.35635134802E+02  0.16297151341E+03  0.16682546103E+03  0.00000000000E+00 0.  1.
<scales pt_clust_5="13000.00000" pt_clust_6="13000.00000" pt_clust_7="13000.00000" pt_clust_8="13000.00000" pt_clust_9="35.65137"></scales>
<clustering>
<clus scale="   35.651">  1  9  2 -1</clus>
<clus scale="   80.709">  5  6 -1 -1</clus>
<clus scale="   87.429">  1  5  2 -1</clus>
<clus scale="   90.867">  7  8 -1 -1</clus>
<clus scale="   35.651">  1  5  2 -1</clus>
</clustering>
</event>
<event>
 9    1  0.6296820E-005  0.1042713E+03  0.7546771E-02  0.1276753E+00
         -2   -1    0    0    0  501 -0.00000000000E+00  0.00000000000E+00  0.65052098656E+03  0.65052098656E+03  0.00000000000E+00 0.  1.
         21   -1    0    0  501  502  0.00000000000E+00 -0.00000000000E+00 -0.31201657667E+02  0.31201657667E+02  0.00000000000E+00 0. -1.
        -24    2    1    2    0    0  0.12184131423E+02  0.43407835548E+02  0.40860474235E+03  0.41877835391E+03  0.79904824570E+02 0.  0.
         23    2    1    2    0    0 -0.35549748173E+01 -0.65270942330E+02  0.21142977610E+03  0.23942899151E+03  0.91382481867E+02 0.  0.
         11    1    3    3    0    0 -0.33491335142E+02  0.26078828135E+02  0.16951041532E+03  0.17474425801E+03  0.00000000000E+00 0. -1.
        -12    1    3    3    0    0  0.45675466565E+02  0.17329007413E+02  0.23909432703E+03  0.24403409590E+03  0.00000000000E+00 0.  1.
        -13    1    4    4    0    0  0.42784997808E+02 -0.43532795007E+02  0.12074617265E+03  0.13529707495E+03  0.00000000000E+00 0.  1.
         13    1    4    4    0    0 -0.46339972625E+02 -0.21738147323E+02  0.90683603451E+02  0.10413191656E+03  0.00000000000E+00 0. -1.
         -1    1    1    2    0  502 -0.86291566061E+01  0.21863106782E+02 -0.71518955993E+00  0.23515298807E+02  0.00000000000E+00 0.  1.
<scales pt_clust_5="13000.00000" pt_clust_6="13000.00000" pt_clust_7="13000.00000" pt_clust_8="13000.00000" pt_clust_9="23.50442"></scales>
<clustering>
<clus scale="   23.504">  2  9  1 -1</clus>
<clus scale="   79.905">  5  6 -1 -1</clus>
<clus scale="   91.382">  7  8 -1 -1</clus>
<clus scale="   94.374">  1  5  2 -1</clus>
<clus scale="   23.504">  2  5  1 -1</clus>
</clustering>
</event>
<event>
 9    1  0.6296820E-005  0.9190553E+02  0.7546771E-02  0.1306169E+00
         21   -1    0    0  501  502  0.00000000000E+00  0.00000000000E+00  0.34223974387E+03  0.34223974387E+03  0.00000000000E+00 0.  1.
          1   -1    0    0  502    0 -0.00000000000E+00 -0.00000000000E+00 -0.31390345626E+02  0.31390345626E+02  0.00000000000E+00 0. -1.
        -24    2    1    2    0    0  0.10296142498E+01 -0.12887479941E+02  0.81967573364E+02  0.11404439754E+03  0.78232309712E+02 0.  0.
         23    2    1    2    0    0  0.19813623231E+02  0.14353556247E+02  0.21455724966E+03  0.23425224798E+03  0.90778290688E+02 0.  0.
         11    1    3    3    0    0  0.25254500405E+02  0.21482656254E+02  0.18664368245E+02  0.38048034803E+02  0.00000000000E+00 0. -1.
        -12    1    3    3    0    0 -0.24224886155E+02 -0.34370136195E+02  0.63303205118E+02  0.75996362739E+02  0.00000000000E+00 0.  1.
        -13    1    4    4    0    0  0.45886015535E+02  0.37067224388E+02  0.14606963667E+03  0.15753045516E+03  0.00000000000E+00 0.  1.
         13    1    4    4    0    0 -0.26072392304E+02 -0.22713668141E+02  0.68487612983E+02  0.76721792817E+02  0.00000000000E+00 0. -1.
          2    1    1    2  501    0 -0.20843237481E+02 -0.14660763057E+01  0.14324575228E+02  0.25333443979E+02  0.00000000000E+00 0. -1.
<scales pt_clust_5="13000.00000" pt_clust_6="13000.00000" pt_clust_7="13000.00000" pt_clust_8="13000.00000" pt_clust_9="20.89474"></scales>
<clustering>
<clus scale="   20.895">  1  9  2 -1</clus>
<clus scale="   78.232">  5  6 -1 -1</clus>
<clus scale="   79.538">  2  5  1 -1</clus>
<clus scale="   90.778">  7  8 -1 -1</clus>
<clus scale="   20.895">  1  5  2 -1</clus>
</clustering>
</event>
<event>
 9    1  0.6296820E-005  0.9479624E+02  0.7546771E-02  0.1298976E+00
          1   -1    0    0  502    0 -0.00000000000E+00  0.00000000000E+00  0.45512881727E+03  0.45512881727E+03  0.00000000000E+00 0. -1.
         21   -1    0    0  501  502  0.00000000000E+00 -0.00000000000E+00 -0.16379356610E+03  0.16379356610E+03  0.00000000000E+00 0. -1.
         23    2    1    2    0    0  0.35189113862E+02 -0.11430556455E+01  0.36464754708E+03  0.37730489123E+03  0.90286029077E+02 0.  0.
        -24    2    1    2    0    0 -0.10544189719E+02 -0.23372599079E+01  0.64602479989E+02  0.10147481380E+03  0.77504933351E+02 0.  0.
         13    1    4    4    0    0 -0.46719067737E+00  0.23011980034E+02 -0.76416680384E+01  0.24252104705E+02  0.00000000000E+00 0. -1.
        -14    1    4    4    0    0 -0.10076999042E+02 -0.25349239942E+02  0.72244148028E+02  0.77222709092E+02  0.00000000000E+00 0.  1.
        -13    1    3    3    0    0  0.47631282071E+02 -0.35859473133E+02  0.24174988466E+03  0.24899326814E+03  0.00000000000E+00 0. -1.
         13    1    3    3    0    0 -0.12442168209E+02  0.34716417488E+02  0.12289766242E+03  0.12831162310E+03  0.00000000000E+00 0.  1.
          2    1    1    2  501    0 -0.24644924143E+02  0.34803155534E+01 -0.13791477590E+03  0.14014267834E+03  0.00000000000E+00 0. -1.
<scales pt_clust_5="13000.00000" pt_clust_6="13000.00000" pt_clust_7="13000.00000" pt_clust_8="13000.00000" pt_clust_9="24.88945"></scales>
<clustering>
<clus scale="   24.889">  2  9  1 -1</clus>
<clus scale="   77.505">  5  6 -1 -1</clus>
<clus scale="   82.715">  2  5  1 -1</clus>
<clus scale="   90.286">  7  8 -1 -1</clus>
<clus scale="   24.889">  2  5  1 -1</clus>
</clustering>
</event>
<event>
 9    1  0.6296820E-005  0.1066448E+03  0.7546771E-02  0.1273521E+00
          1   -1    0    0  502    0 -0.00000000000E+00  0.00000000000E+00  0.95914846961E+02  0.95914846961E+02  0.00000000000E+00 0. -1.
         21   -1    0    0  501  502  0.00000000000E+00 -0.00000000000E+00 -0.21406830663E+03  0.21406830663E+03  0.00000000000E+00 0. -1.
         23    2    1    2    0    0  0.26458301854E+02 -0.21861477875E+02 -0.44010175458E+00  0.10148262715E+03  0.95501643821E+02 0.  0.
        -24    2    1    2    0    0 -0.18360320002E+02  0.72089605972E+02 -0.42901938480E+02  0.11802848302E+03  0.80969956398E+02 0.  0.
         13    1    4    4    0    0  0.20123575249E+02  0.19328630020E+02  0.14174432257E+02  0.31296465440E+02  0.00000000000E+00 0. -1.
        -14    1    4    4    0    0 -0.38483895251E+02  0.52760975952E+02 -0.57076370738E+02  0.86732017581E+02  0.00000000000E+00 0.  1.
        -13    1    3    3    0    0  0.28877381792E+02  0.30589428891E+02 -0.18502507333E+02  0.45956056365E+02  0.00000000000E+00 0.  1.
         13    1    3    3    0    0 -0.24190799376E+01 -0.52450906766E+02  0.18062405578E+02  0.55526570789E+02  0.00000000000E+00 0. -1.
          2    1    1    2  501    0 -0.80979818519E+01 -0.50228128097E+02 -0.74811419434E+02  0.90472043417E+02  0.00000000000E+00 0. -1.
<scales pt_clust_5="13000.00000" pt_clust_6="13000.00000" pt_clust_7="13000.00000" pt_clust_8="13000.00000" pt_clust_9="50.87673"></scales>
<clustering>
<clus scale="   50.877">  2  9  1 -1</clus>
<clus scale="   80.970">  5  6 -1 -1</clus>
<clus scale="   93.855">  2  5  1 -1</clus>
<clus scale="   95.502">  7  8 -1 -1</clus>
<clus scale="   50.877">  2  5  1 -1</clus>
</clustering>
</event>
<event>
 9    1  0.6296820E-005  0.1136047E+03  0.7546771E-02  0.1257876E+00
         -2   -1    0    0    0  501 -0.00000000000E+00  0.00000000000E+00  0.69059218544E+03  0.69059218544E+03  0.00000000000E+00 0.  1.
         21   -1    0    0  501  502  0.00000000000E+00 -0.00000000000E+00 -0.76784337179E+02  0.76784337179E+02  0.00000000000E+00 0.  1.
         23    2    1    2    0    0 -0.38884900561E+02  0.83809886534E+02  0.47547177516E+03  0.49275512585E+03  0.90543207959E+02 0.  0.
        -24    2    1    2    0    0  0.24951072728E+01 -0.41715542549E+02  0.18252221995E+03  0.20356813206E+03  0.79869966611E+02 0.  0.
         13    1    4    4    0    0  0.29080602864E+02 -0.53583441073E+02  0.12701571581E+03  0.14088952652E+03  0.00000000000E+00 0. -1.
        -14    1    4    4    0    0 -0.26585495591E+02  0.11867898525E+02  0.55506504138E+02  0.62678605543E+02  0.00000000000E+00 0.  1.
        -11    1    3    3    0    0  0.15145562197E+02  0.72150075083E+02  0.28982316820E+03  0.29905265458E+03  0.00000000000E+00 0. -1.
         11    1    3    3    0    0 -0.54030462759E+02  0.11659811452E+02  0.18564860696E+03  0.19370247127E+03  0.00000000000E+00 0.  1.
         -1    1    1    2    0  502  0.36389793288E+02 -0.42094343986E+02 -0.44186146850E+02  0.71053264701E+02  0.00000000000E+00 0.  1.
<scales pt_clust_5="13000.00000" pt_clust_6="13000.00000" pt_clust_7="13000.00000" pt_clust_8="13000.00000" pt_clust_9="55.64307"></scales>
<clustering>
<clus scale="   55.643">  2  9  1 -1</clus>
<clus scale="   79.870">  5  6 -1 -1</clus>
<clus scale="   90.543">  7  8 -1 -1</clus>
<clus scale="  105.296">  2  5  1 -1</clus>
<clus scale="   55.643">  2  5  1 -1</clus>
</clustering>
</event>
<event>
 9    1  0.6296820E-005  0.9318765E+02  0.7546771E-02  0.1296334E+00
         21   -1    0    0  501  502  0.00000000000E+00  0.00000000000E+00  0.93918576682E+02  0.93918576682E+02  0.00000000000E+00 0. -1.
          1   -1    0    0  502    0 -0.00000000000E+00 -0.00000000000E+00 -0.27914290827E+03  0.27914290827E+03  0.00000000000E+00 0. -1.
         23    2    1    2    0    0  0.29464224134E+02  0.20465350288E+01 -0.84325005695E+02  0.12775072839E+03  0.91308341394E+02 0.  0.
        -24    2    1    2    0    0  0.45835898585E+02 -0.53914614131E+02  0.13699161893E+01  0.10812692375E+03  0.81742521082E+02 0.  0.
         13    1    4    4    0    0  0.14490381972E+02 -0.33144869863E+02 -0.38838784841E+02  0.53075463030E+02  0.00000000000E+00 0. -1.
        -14    1    4    4    0    0  0.31345516613E+02 -0.20769744268E+02  0.40208701030E+02  0.55051460719E+02  0.00000000000E+00 0.  1.
        -13    1    3    3    0    0 -0.80549275577E+00 -0.39386813051E+02 -0.16520529324E+02  0.42718821964E+02  0.00000000000E+00 0.  1.
         13    1    3    3    0    0  0.30269716889E+02  0.41433348079E+02 -0.67804476371E+02  0.85031906421E+02  0.00000000000E+00 0. -1.
          2    1    1    2  501    0 -0.75300122719E+02  0.51868079102E+02 -0.10226924209E+03  0.13718383282E+03  0.00000000000E+00 0. -1.
<scales pt_clust_5="13000.00000" pt_clust_6="13000.00000" pt_clust_7="13000.00000" pt_clust_8="13000.00000" pt_clust_9="91.43530"></scales>
<clustering>
<clus scale="   81.743">  5  6 -1 -1</clus>
<clus scale="   91.308">  7  8 -1 -1</clus>
<clus scale="   91.435">  1  9  2 -1</clus>
<clus scale="   91.435">  1  5  2 -1</clus>
<clus scale="   91.435">  1  5  2 -1</clus>
</clustering>
</event>
<event>
 9    1  0.6296820E-005  0.1119651E+03  0.7546771E-02  0.1260873E+00
         21   -1    0    0  501  502  0.00000000000E+00  0.00000000000E+00  0.18265188151E+03  0.18265188151E+03  0.00000000000E+00 0. -1.
          1   -1    0    0  502    0 -0.00000000000E+00 -0.00000000000E+00 -0.17981750663E+03  0.17981750663E+03  0.00000000000E+00 0. -1.
         23    2    1    2    0    0 -0.36607859827E+02  0.55645896940E+02 -0.13138725844E+03  0.17356565327E+03  0.91792282189E+02 0.  0.
        -24    2    1    2    0    0  0.86131242161E+01 -0.50251722357E+02  0.12738475550E+03  0.15958573290E+03  0.81494224955E+02 0.  0.
         11    1    4    4    0    0 -0.30439167021E+02 -0.31921793698E+01  0.21821617851E+02  0.37588773640E+02  0.00000000000E+00 0. -1.
        -12    1    4    4    0    0  0.39052291238E+02 -0.47059542987E+02  0.10556313765E+03  0.12199695926E+03  0.00000000000E+00 0.  1.
        -13    1    3    3    0    0 -0.97101479226E+01 -0.23878990236E+02 -0.14257901838E+02  0.29458121329E+02  0.00000000000E+00 0.  1.
         13    1    3    3    0    0 -0.26897711904E+02  0.79524887176E+02 -0.11712935660E+03  0.14410753194E+03  0.00000000000E+00 0. -1.
          2    1    1    2  501    0  0.27994735611E+02 -0.53941745827E+01  0.68368778139E+01  0.29318001971E+02  0.00000000000E+00 0. -1.
<scales pt_clust_5="13000.00000" pt_clust_6="13000.00000" pt_clust_7="13000.00000" pt_clust_8="13000.00000" pt_clust_9="28.50969"></scales>
<clustering>
<clus scale="   28.510">  1  9  2 -1</clus>
<clus scale="   81.494">  5  6 -1 -1</clus>
<clus scale="   91.792">  7  8 -1 -1</clus>
<clus scale="  103.690">  1  5  2 -1</clus>
<clus scale="   28.510">  1  5  2 -1</clus>
</clustering>
</event>
<event>
 9    1  0.6296820E-005  0.1018785E+03  0.7546771E-02  0.1282211E+00
         21   -1    0    0  501  502  0.00000000000E+00  0.00000000000E+00  0.44468862402E+03  0.44468862402E+03  0.00000000000E+00 0.  1.
          1   -1    0    0  502    0 -0.00000000000E+00 -0.00000000000E+00 -0.66611071420E+02  0.66611071420E+02  0.00000000000E+00 0. -1.
         23    2    1    2    0    0  0.16736153259E+02 -0.33424138525E+02  0.15520017651E+02  0.10086583350E+03  0.92389250233E+02 0.  0.
        -24    2    1    2    0    0 -0.67970819117E+02  0.16883644540E+02  0.11403402063E+03  0.15614560798E+03  0.80452491124E+02 0.  0.
         11    1    4    4    0    0 -0.15895274037E+02  0.16949301072E+02 -0.70959732227E+01  0.24295912815E+02  0.00000000000E+00 0. -1.
        -12    1    4    4    0    0 -0.52075545080E+02 -0.65656531847E-01  0.12112999385E+03  0.13184969517E+03  0.00000000000E+00 0.  1.
        -13    1    3    3    0    0  0.18472983423E+01 -0.64843447157E+02  0.89970918927E+01  0.65490707836E+02  0.00000000000E+00 0.  1.
         13    1    3    3    0    0  0.14888854916E+02  0.31419308632E+02  0.65229257582E+01  0.35375125669E+02  0.00000000000E+00 0. -1.
          2    1    1    2  501    0  0.51234665858E+02  0.16540493985E+02  0.24852351433E+03  0.25428825396E+03  0.00000000000E+00 0. -1.
<scales pt_clust_5="13000.00000" pt_clust_6="13000.00000" pt_clust_7="13000.00000" pt_clust_8="13000.00000" pt_clust_9="53.83845"></scales>
<clustering>
<clus scale="   53.838">  1  9  2 -1</clus>
<clus scale="   80.452">  5  6 -1 -1</clus>
<clus scale="   91.192">  1  5  2 -1</clus>
<clus scale="   92.389">  7  8 -1 -1</clus>
<clus scale="   53.838">  1  5  2 -1</clus>
</clustering>
</event>
<event>
 9    1  0.6296820E-005  0.9289285E+02  0.7546771E-02  0.1301261E+00
         21   -1    0    0  501  502  0.00000000000E+00  0.00000000000E+00  0.15217652256E+03  0.15217652256E+03  0.00000000000E+00 0.  1.
          1   -1    0    0  502    0 -0.00000000000E+00 -0.00000000000E+00 -0.19172876043E+03  0.19172876043E+03  0.00000000000E+00 0. -1.
         23    2    1    2    0    0  0.20937768362E+02  0.58515956626E+01 -0.15579685773E+03  0.18119201307E+03  0.89918037158E+02 0.  0.
        -24    2    1    2    0    0 -0.39519321236E+02  0.79722105122E+01  0.88277886615E+02  0.12640197838E+03  0.80988529946E+02 0.  0.
         11    1    4    4    0    0  0.16959523686E+02  0.26107075767E+02  0.29220992797E+02  0.42697438668E+02  0.00000000000E+00 0. -1.
        -12    1    4    4    0    0 -0.56478844923E+02 -0.18134865255E+02  0.59056893819E+02  0.83704539716E+02  0.00000000000E+00 0.  1.
        -11    1    3    3    0    0  0.43129539102E+02 -0.23522221635E+02 -0.54302172648E+02  0.73226894022E+02  0.00000000000E+00 0.  1.
         11    1    3    3    0    0 -0.22191770741E+02  0.29373817298E+02 -0.10149468508E+03  0.10796511905E+03  0.00000000000E+00 0. -1.
          2    1    1    2  501    0  0.18581552875E+02 -0.13823806175E+02  0.27966733248E+02  0.36311291535E+02  0.00000000000E+00 0. -1.
<scales pt_clust_5="13000.00000" pt_clust_6="13000.00000" pt_clust_7="13000.00000" pt_clust_8="13000.00000" pt_clust_9="23.15970"></scales>
<clustering>
<clus scale="   23.160">  1  9  2 -1</clus>
<clus scale="   80.989">  5  6 -1 -1</clus>
<clus scale="   84.279">  1  5  2 -1</clus>
<clus scale="   89.918">  7  8 -1 -1</clus>
<clus scale="   23.160">  1  5  2 -1</clus>
</clustering>
</event>
<event>
 9    1  0.6296820E-005  0.1720541E+03  0.7546771E-02  0.1192013E+00
         21   -1    0    0  501  502  0.00000000000E+00  0.00000000000E+00  0.12497896159E+03  0.12497896159E+03  0.00000000000E+00 0. -1.
          3   -1    0    0  502    0 -0.00000000000E+00 -0.00000000000E+00 -0.90535718343E+03  0.90535718343E+03  0.00000000000E+00 0. -1.
         23    2    1    2    0    0  0.75831500781E+02 -0.11687803545E+02 -0.77900316343E+02  0.14272248925E+03  0.91729103283E+02 0.  0.
        -24    2    1    2    0    0 -0.57653936900E+02  0.16197781270E+03 -0.71101870173E+03  0.73598761618E+03  0.81051765614E+02 0.  0.
         13    1    4    4    0    0 -0.61517896538E+02  0.16220592403E+03 -0.71125880710E+03  0.73210948913E+03  0.00000000000E+00 0. -1.
        -14    1    4    4    0    0  0.38639596389E+01 -0.22811133373E+00  0.24010536878E+00  0.38781270556E+01  0.00000000000E+00 0.  1.
        -11    1    3    3    0    0  0.52198900600E+02  0.18227622167E+02 -0.87411656825E+02  0.10343002070E+03  0.00000000000E+00 0.  1.
         11    1    3    3    0    0  0.23632600181E+02 -0.29915425712E+02  0.95113404819E+01  0.39292468548E+02  0.00000000000E+00 0. -1.
          4    1    1    2  501    0 -0.18177563881E+02 -0.15029000915E+03  0.85407962363E+01  0.15162603958E+03  0.00000000000E+00 0. -1.
<scales pt_clust_5="13000.00000" pt_clust_6="13000.00000" pt_clust_7="13000.00000" pt_clust_8="13000.00000" pt_clust_9="151.76703"></scales>
<clustering>
<clus scale="   81.052">  5  6 -1 -1</clus>
<clus scale="   91.729">  7  8 -1 -1</clus>
<clus scale="  119.588">  2  7  1 -1</clus>
<clus scale="  151.767">  1  9  2 -1</clus>
<clus scale="  151.767">  1  5  2 -1</clus>
</clustering>
</event>
<event>
 9    1  0.6296820E-005  0.8772396E+02  0.7546771E-02  0.1311239E+00
         21   -1    0    0  501  502  0.00000000000E+00  0.00000000000E+00  0.38456418163E+03  0.38456418163E+03  0.00000000000E+00 0. -1.
          3   -1    0    0  502    0 -0.00000000000E+00 -0.00000000000E+00 -0.66816523259E+02  0.66816523259E+02  0.00000000000E+00 0. -1.
        -24    2    1    2    0    0  0.36563692909E+02  0.91955176740E+01  0.21366671653E+02  0.93199407460E+02  0.82511415628E+02 0.  0.
         23    2    1    2    0    0  0.27831644314E+02  0.25768110898E+02  0.63627388475E+02  0.11416602685E+03  0.86872556995E+02 0.  0.
         11    1    3    3    0    0  0.55954406112E+02  0.25549756867E+02  0.27061849136E+02  0.67201408601E+02  0.00000000000E+00 0. -1.
        -12    1    3    3    0    0 -0.19390713203E+02 -0.16354239193E+02 -0.56951774824E+01  0.25997998859E+02  0.00000000000E+00 0.  1.
        -13    1    4    4    0    0 -0.32338559588E+01  0.29810520737E+02 -0.12007337494E+02  0.32300172208E+02  0.00000000000E+00 0.  1.
         13    1    4    4    0    0  0.31065500273E+02 -0.40424098390E+01  0.75634725969E+02  0.81865854646E+02  0.00000000000E+00 0. -1.
          4    1    1    2  501    0 -0.64395337223E+02 -0.34963628572E+02  0.23275359824E+03  0.24401527057E+03  0.00000000000E+00 0. -1.
<scales pt_clust_5="13000.00000" pt_clust_6="13000.00000" pt_clust_7="13000.00000" pt_clust_8="13000.00000" pt_clust_9="73.27493"></scales>
<clustering>
<clus scale="   73.275">  1  9  2 -1</clus>
<clus scale="   82.511">  5  6 -1 -1</clus>
<clus scale="   83.407">  2  5  1 -1</clus>
<clus scale="   86.873">  7  8 -1 -1</clus>
<clus scale="   73.275">  1  5  2 -1</clus>
</clustering>
</event>
<event>
 9    1  0.6296820E-005  0.2869126E+03  0.7546771E-02  0.1091972E+00
         21   -1    0    0  501  502  0.00000000000E+00  0.00000000000E+00  0.34734106628E+02  0.34734106628E+02  0.00000000000E+00 0. -1.
          1   -1    0    0  502    0 -0.00000000000E+00 -0.00000000000E+00 -0.18630423155E+04  0.18630423155E+04  0.00000000000E+00 0. -1.
        -24    2    1    2    0    0  0.11593703452E+03 -0.98120267524E+02 -0.80658321903E+03  0.82463564639E+03  0.79865369251E+02 0.  0.
         23    2    1    2    0    0  0.52199804784E+02 -0.35731035506E+02 -0.38986038248E+03  0.40572857170E+03  0.92860268956E+02 0.  0.
         13    1    3    3    0    0  0.11999349924E+03 -0.95515163064E+02 -0.80512029267E+03  0.81959762805E+03  0.00000000000E+00 0. -1.
        -14    1    3    3    0    0 -0.40564647199E+01 -0.26051044607E+01 -0.14629263597E+01  0.50380183414E+01  0.00000000000E+00 0.  1.
        -13    1    4    4    0    0 -0.20993595153E+02 -0.25459921880E+02 -0.69269017133E+02  0.76727670329E+02  0.00000000000E+00 0. -1.
         13    1    4    4    0    0  0.73193399937E+02 -0.10271113626E+02 -0.32059136534E+03  0.32900090137E+03  0.00000000000E+00 0.  1.
          2    1    1    2  501    0 -0.16813683931E+03  0.13385130303E+03 -0.63186460735E+03  0.66741220402E+03  0.00000000000E+00 0. -1.
<scales pt_clust_5="13000.00000" pt_clust_6="13000.00000" pt_clust_7="13000.00000" pt_clust_8="13000.00000" pt_clust_9="214.90967"></scales>
<clustering>
<clus scale="   79.865">  5  6 -1 -1</clus>
<clus scale="   92.860">  7  8 -1 -1</clus>
<clus scale="   95.762">  5  7 -1 -1</clus>
<clus scale="  214.910">  1  9  2 -1</clus>
<clus scale="  214.910">  1  5  2 -1</clus>
</clustering>
</event>
<event>
 9    1  0.1378653E-004  0.1360687E+03  0.7546771E-02  0.1242528E+00
          1   -1    0    0  502    0 -0.00000000000E+00  0.00000000000E+00  0.19445338625E+03  0.19445338625E+03  0.00000000000E+00 0. -1.
         21   -1    0    0  501  502  0.00000000000E+00 -0.00000000000E+00 -0.46806577175E+03  0.46806577175E+03  0.00000000000E+00 0. -1.
        -24    2    1    2    0    0  0.85118330998E+01  0.31002955217E+02 -0.87018528170E+02  0.12043597103E+03  0.76804715591E+02 0.  0.
         23    2    1    2    0    0  0.77294998767E+02  0.27622823779E+02  0.14826747902E+03  0.19146671711E+03  0.89099501675E+02 0.  0.
         11    1    3    3    0    0  0.39635082816E+02  0.25845451918E+02 -0.32353479871E+02  0.57320806296E+02  0.00000000000E+00 0. -1.
        -12    1    3    3    0    0 -0.31123249716E+02  0.51575032990E+01 -0.54665048299E+02  0.63115164729E+02  0.00000000000E+00 0.  1.
        -11    1    4    4    0    0  0.76205676786E+01  0.39674482123E+02  0.20182674806E+02  0.45160579556E+02  0.00000000000E+00 0.  1.
         11    1    4    4    0    0  0.69674431089E+02 -0.12051658344E+02  0.12808480421E+03  0.14630613755E+03  0.00000000000E+00 0. -1.
          2    1    1    2  501    0 -0.85806831867E+02 -0.58625778997E+02 -0.33486133635E+03  0.35061646987E+03  0.00000000000E+00 0. -1.
<scales pt_clust_5="13000.00000" pt_clust_6="13000.00000" pt_clust_7="13000.00000" pt_clust_8="13000.00000" pt_clust_9="102.83957"></scales>
<clustering>
<clus scale="   76.805">  5  6 -1 -1</clus>
<clus scale="   83.262">  1  5  2 -1</clus>
<clus scale="   89.100">  7  8 -1 -1</clus>
<clus scale="  102.840">  2  9  1 -1</clus>
<clus scale="  102.840">  2  5  1 -1</clus>
</clustering>
</event>
<event>
 9    1  0.6296820E-005  0.1028562E+03  0.7546771E-02  0.1277593E+00
         21   -1    0    0  501  502  0.00000000000E+00  0.00000000000E+00  0.85423332396E+02  0.85423332396E+02  0.00000000000E+00 0. -1.
          1   -1    0    0  502    0 -0.00000000000E+00 -0.00000000000E+00 -0.33736053334E+03  0.33736053334E+03  0.00000000000E+00 0. -1.
         23    2    1    2    0    0 -0.44375833730E+02 -0.35344611657E+02 -0.24710448198E+03  0.26930368000E+03  0.90804134549E+02 0.  0.
        -24    2    1    2    0    0  0.21646471640E+02  0.18545574003E+02 -0.48882009164E+02  0.10114309053E+03  0.83832964236E+02 0.  0.
         11    1    4    4    0    0  0.46030276630E+02 -0.35741054419E+01 -0.52240956627E+01  0.46463445544E+02  0.00000000000E+00 0. -1.
        -12    1    4    4    0    0 -0.24383804990E+02  0.22119679445E+02 -0.43657913501E+02  0.54679644986E+02  0.00000000000E+00 0.  1.
        -13    1    3    3    0    0  0.22027133412E+02 -0.27991419781E+02 -0.51605756489E+02  0.62704611398E+02  0.00000000000E+00 0.  1.
         13    1    3    3    0    0 -0.66402967142E+02 -0.73531918751E+01 -0.19549872549E+03  0.20659906860E+03  0.00000000000E+00 0. -1.
          2    1    1    2  501    0  0.22729362090E+02  0.16799037654E+02  0.44049290205E+02  0.52337095206E+02  0.00000000000E+00 0. -1.
<scales pt_clust_5="13000.00000" pt_clust_6="13000.00000" pt_clust_7="13000.00000" pt_clust_8="13000.00000" pt_clust_9="28.26361"></scales>
<clustering>
<clus scale="   28.264">  1  9  2 -1</clus>
<clus scale="   83.833">  5  6 -1 -1</clus>
<clus scale="   90.804">  7  8 -1 -1</clus>
<clus scale="   96.757">  1  5  2 -1</clus>
<clus scale="   28.264">  1  5  2 -1</clus>
</clustering>
</event>
<event>
 9    1  0.6296820E-005  0.2220309E+03  0.7546771E-02  0.1148665E+00
          1   -1    0    0  502    0 -0.00000000000E+00  0.00000000000E+00  0.56480828877E+03  0.56480828877E+03  0.00000000000E+00 0. -1.
         21   -1    0    0  501  502  0.00000000000E+00 -0.00000000000E+00 -0.71972688996E+03  0.71972688996E+03  0.00000000000E+00 0. -1.
        -24    2    1    2    0    0 -0.48994926294E+02 -0.11686261560E+03 -0.11468658343E+03  0.18878048502E+03  0.80172846892E+02 0.  0.
         23    2    1    2    0    0 -0.12709227067E+03  0.93505337204E+01  0.49658415524E+03  0.52065717825E+03  0.90819580926E+02 0.  0.
         13    1    3    3    0    0 -0.28627373618E+02 -0.19681997670E+02  0.29213453504E+01  0.34863187049E+02  0.00000000000E+00 0. -1.
        -14    1    3    3    0    0 -0.20367552676E+02 -0.97180617933E+02 -0.11760792878E+03  0.15391729797E+03  0.00000000000E+00 0.  1.
        -13    1    4    4    0    0 -0.18400591848E+02  0.33712309507E+02  0.70827383495E+02  0.80570589208E+02  0.00000000000E+00 0.  1.
         13    1    4    4    0    0 -0.10869167882E+03 -0.24361775786E+02  0.42575677175E+03  0.44008658904E+03  0.00000000000E+00 0. -1.
          2    1    1    2  501    0  0.17608719696E+03  0.10751208188E+03 -0.53681617300E+03  0.57509751545E+03  0.00000000000E+00 0. -1.
<scales pt_clust_5="13000.00000" pt_clust_6="13000.00000" pt_clust_7="13000.00000" pt_clust_8="13000.00000" pt_clust_9="202.60685"></scales>
<clustering>
<clus scale="   80.173">  5  6 -1 -1</clus>
<clus scale="   90.820">  7  8 -1 -1</clus>
<clus scale="  149.950">  1  5  2 -1</clus>
<clus scale="  202.607">  2  9  1 -1</clus>
<clus scale="  202.607">  2  5  1 -1</clus>
</clustering>
</event>
<event>
 9    1  0.6296820E-005  0.1266881E+03  0.7546771E-02  0.1238713E+00
         21   -1    0    0  501  502  0.00000000000E+00  0.00000000000E+00  0.41757467217E+02  0.41757467217E+02  0.00000000000E+00 0. -1.
          3   -1    0    0  502    0 -0.00000000000E+00 -0.00000000000E+00 -0.76717847890E+03  0.76717847890E+03  0.00000000000E+00 0. -1.
        -24    2    1    2    0    0  0.78042561101E+02  0.54443612653E+01 -0.21534390567E+03  0.24248052343E+03  0.79394736124E+02 0.  0.
         23    2    1    2    0    0  0.21759840822E+02 -0.78639909246E+02 -0.19874461263E+03  0.23142403741E+03  0.86022892573E+02 0.  0.
         13    1    3    3    0    0  0.70899145820E+02  0.36228096109E+02 -0.14675613768E+03  0.16696265383E+03  0.00000000000E+00 0. -1.
        -14    1    3    3    0    0  0.71434152810E+01 -0.30783734844E+02 -0.68587767985E+02  0.75517869607E+02  0.00000000000E+00 0.  1.
        -13    1    4    4    0    0  0.41056684031E+02 -0.63668246748E+02 -0.79940077226E+02  0.11013497580E+03  0.00000000000E+00 0. -1.
         13    1    4    4    0    0 -0.19296843209E+02 -0.14971662498E+02 -0.11880453540E+03  0.12128906161E+03  0.00000000000E+00 0.  1.
          4    1    1    2  501    0 -0.99802401923E+02  0.73195547981E+02 -0.31133249339E+03  0.33503138526E+03  0.00000000000E+00 0. -1.
<scales pt_clust_5="13000.00000" pt_clust_6="13000.00000" pt_clust_7="13000.00000" pt_clust_8="13000.00000" pt_clust_9="93.00511"></scales>
<clustering>
<clus scale="   79.395">  5  6 -1 -1</clus>
<clus scale="   86.023">  7  8 -1 -1</clus>
<clus scale="  111.462">  2  5  1 -1</clus>
<clus scale="   93.005">  1  9  2 -1</clus>
<clus scale="   93.005">  1  5  2 -1</clus>
</clustering>
</event>
<event>
 9    1  0.6296820E-005  0.1501200E+03  0.7546771E-02  0.1201293E+00
          1   -1    0    0  502    0 -0.00000000000E+00  0.00000000000E+00  0.58481744811E+03  0.58481744811E+03  0.00000000000E+00 0. -1.
         21   -1    0    0  501  502  0.00000000000E+00 -0.00000000000E+00 -0.14247787463E+03  0.14247787463E+03  0.00000000000E+00 0. -1.
        -24    2    1    2    0    0 -0.45643391444E+02 -0.11111194957E+03  0.51050459854E+03  0.53104352866E+03  0.83445189652E+02 0.  0.
         23    2    1    2    0    0  0.30509004653E+02  0.12841496126E+03 -0.49422166655E+02  0.16659140605E+03  0.88819729627E+02 0.  0.
         11    1    3    3    0    0 -0.27374578405E+02 -0.12196606889E+03  0.43856429472E+03  0.45603040480E+03  0.00000000000E+00 0. -1.
        -12    1    3    3    0    0 -0.18268813039E+02  0.10854119319E+02  0.71940303822E+02  0.75013123852E+02  0.00000000000E+00 0.  1.
        -11    1    4    4    0    0  0.47725343878E+02  0.41988529839E+02  0.37338622011E+01  0.63676422743E+02  0.00000000000E+00 0.  1.
         11    1    4    4    0    0 -0.17216339225E+02  0.86426431423E+02 -0.53156028856E+02  0.10291498330E+03  0.00000000000E+00 0. -1.
          2    1    1    2  501    0  0.15134386791E+02 -0.17303011692E+02 -0.18742858404E+02  0.29660388034E+02  0.00000000000E+00 0. -1.
<scales pt_clust_5="13000.00000" pt_clust_6="13000.00000" pt_clust_7="13000.00000" pt_clust_8="13000.00000" pt_clust_9="22.98791"></scales>
<clustering>
<clus scale="   22.988">  2  9  1 -1</clus>
<clus scale="   83.445">  5  6 -1 -1</clus>
<clus scale="   88.820">  7  8 -1 -1</clus>
<clus scale="  147.004">  1  5  2 -1</clus>
<clus scale="   22.988">  2  5  1 -1</clus>
</clustering>
</event>
<event>
 9    1  0.6296820E-005  0.1137796E+03  0.7546771E-02  0.1257948E+00
         21   -1    0    0  501  502  0.00000000000E+00  0.00000000000E+00  0.86884215700E+02  0.86884215700E+02  0.00000000000E+00 0.  1.
          3   -1    0    0  502    0 -0.00000000000E+00 -0.00000000000E+00 -0.21433530156E+03  0.21433530156E+03  0.00000000000E+00 0. -1.
         23    2    1    2    0    0 -0.70543445945E+02  0.16877059979E+02 -0.11613320516E+03  0.16463665472E+03  0.91417141825E+02 0.  0.
        -24    2    1    2    0    0  0.60408313399E+02  0.13461348203E+02  0.41384270258E+01  0.10105769721E+03  0.79781948858E+02 0.  0.
         13    1    4    4    0    0  0.28324351773E+02  0.12064286378E+02 -0.37471139829E+02  0.48496414602E+02  0.00000000000E+00 0. -1.
        -14    1    4    4    0    0  0.32083961627E+02  0.13970618252E+01  0.41609566854E+02  0.52561282606E+02  0.00000000000E+00 0.  1.
        -11    1    3    3    0    0 -0.89144396406E+02 -0.26418214133E+01 -0.82118643341E+02  0.12123190263E+03  0.00000000000E+00 0. -1.
         11    1    3    3    0    0  0.18600950461E+02  0.19518881392E+02 -0.34014561816E+02  0.43404752095E+02  0.00000000000E+00 0.  1.
          4    1    1    2  501    0  0.10135132545E+02 -0.30338408182E+02 -0.15456307724E+02  0.35525165323E+02  0.00000000000E+00 0. -1.
<scales pt_clust_5="13000.00000" pt_clust_6="13000.00000" pt_clust_7="13000.00000" pt_clust_8="13000.00000" pt_clust_9="31.98657"></scales>
<clustering>
<clus scale="   31.987">  1  9  2 -1</clus>
<clus scale="   79.782">  5  6 -1 -1</clus>
<clus scale="   91.417">  7  8 -1 -1</clus>
<clus scale="  104.661">  1  5  2 -1</clus>
<clus scale="   31.987">  1  5  2 -1</clus>
</clustering>
</event>
<event>
 9    1  0.6296820E-005  0.9312489E+02  0.7546771E-02  0.1301396E+00
         21   -1    0    0  501  502  0.00000000000E+00  0.00000000000E+00  0.57972499462E+02  0.57972499462E+02  0.00000000000E+00 0.  1.
         -2   -1    0    0    0  501 -0.00000000000E+00 -0.00000000000E+00 -0.21960165088E+03  0.21960165088E+03  0.00000000000E+00 0.  1.
         23    2    1    2    0    0 -0.32293551712E+02  0.12673551725E+02 -0.72118591598E+02  0.12092408437E+03  0.90653463977E+02 0.  0.
        -24    2    1    2    0    0  0.65697541204E+01  0.48498568889E+01 -0.24721464925E+02  0.84772319561E+02  0.80675352833E+02 0.  0.
         13    1    4    4    0    0  0.31600327000E+02  0.20281120606E+02  0.10404041604E+02  0.38963426456E+02  0.00000000000E+00 0. -1.
        -14    1    4    4    0    0 -0.25030572879E+02 -0.15431263717E+02 -0.35125506530E+02  0.45808893105E+02  0.00000000000E+00 0.  1.
        -11    1    3    3    0    0  0.28556636386E+02  0.53149958439E+01 -0.40535114363E+01  0.29328512023E+02  0.00000000000E+00 0.  1.
         11    1    3    3    0    0 -0.60850188098E+02  0.73585558810E+01 -0.68065080161E+02  0.91595572347E+02  0.00000000000E+00 0. -1.
         -1    1    1    2    0  502  0.25723797591E+02 -0.17523408614E+02 -0.64789094900E+02  0.71877746416E+02  0.00000000000E+00 0.  1.
<scales pt_clust_5="13000.00000" pt_clust_6="13000.00000" pt_clust_7="13000.00000" pt_clust_8="13000.00000" pt_clust_9="31.12530"></scales>
<clustering>
<clus scale="   31.125">  1  9  2 -1</clus>
<clus scale="   80.675">  5  6 -1 -1</clus>
<clus scale="   83.443">  1  5  2 -1</clus>
<clus scale="   90.653">  7  8 -1 -1</clus>
<clus scale="   31.125">  1  5  2 -1</clus>
</clustering>
</event>
<event>
 9    1  0.6296820E-005  0.4537058E+03  0.7546771E-02  0.1060172E+00
         21   -1    0    0  501  502  0.00000000000E+00  0.00000000000E+00  0.63568498860E+03  0.63568498860E+03  0.00000000000E+00 0. -1.
          1   -1    0    0  502    0 -0.00000000000E+00 -0.00000000000E+00 -0.47014407570E+03  0.47014407570E+03  0.00000000000E+00 0. -1.
        -24    2    1    2    0    0  0.34887179665E+02  0.14739324494E+03  0.11064759657E+02  0.17236817178E+03  0.81525908616E+02 0.  0.
         23    2    1    2    0    0 -0.41140502960E+03  0.12654364601E+03 -0.97889026995E+01  0.43970982149E+03  0.89339307016E+02 0.  0.
         13    1    3    3    0    0  0.29897204422E+02  0.13186443233E+03  0.38380697967E+02  0.14055301250E+03  0.00000000000E+00 0. -1.
        -14    1    3    3    0    0  0.49899752432E+01  0.15528812612E+02 -0.27315938311E+02  0.31815159278E+02  0.00000000000E+00 0.  1.
        -11    1    4    4    0    0 -0.39538109414E+03  0.13859395345E+03 -0.45738823453E+01  0.41899333400E+03  0.00000000000E+00 0. -1.
         11    1    4    4    0    0 -0.16023935459E+02 -0.12050307436E+02 -0.52150203541E+01  0.20716487497E+02  0.00000000000E+00 0.  1.
          2    1    1    2  501    0  0.37651784993E+03 -0.27393689095E+03  0.16426505594E+03  0.49375107103E+03  0.00000000000E+00 0. -1.
<scales pt_clust_5="13000.00000" pt_clust_6="13000.00000" pt_clust_7="13000.00000" pt_clust_8="13000.00000" pt_clust_9="444.82296"></scales>
<clustering>
<clus scale="   81.526">  5  6 -1 -1</clus>
<clus scale="   89.339">  7  8 -1 -1</clus>
<clus scale="  172.013">  2  5  1 -1</clus>
<clus scale="  444.823">  1  9  2 -1</clus>
<clus scale="  444.823">  1  5  2 -1</clus>
</clustering>
</event>
<event>
 9    1  0.6296820E-005  0.2563276E+03  0.7546771E-02  0.1109370E+00
         -4   -1    0    0    0  501 -0.00000000000E+00  0.00000000000E+00  0.63677318484E+03  0.63677318484E+03  0.00000000000E+00 0.  1.
         21   -1    0    0  501  502  0.00000000000E+00 -0.00000000000E+00 -0.15852892288E+03  0.15852892288E+03  0.00000000000E+00 0.  1.
        -24    2    1    2    0    0 -0.72165755534E+02 -0.37341985614E+02  0.32317902525E+03  0.34764349610E+03  0.99040384977E+02 0.  0.
         23    2    1    2    0    0 -0.83957068294E+02 -0.19276434351E+02  0.23258569896E+03  0.26438448998E+03  0.91556981947E+02 0.  0.
         11    1    3    3    0    0  0.23706346852E+02 -0.85464273256E+01  0.39836517944E+02  0.47137887765E+02  0.00000000000E+00 0. -1.
        -12    1    3    3    0    0 -0.95872102385E+02 -0.28795558289E+02  0.28334250730E+03  0.30050560833E+03  0.00000000000E+00 0.  1.
        -13    1    4    4    0    0 -0.95865894616E+02 -0.38099417077E+02  0.19766871453E+03  0.22296806057E+03  0.00000000000E+00 0.  1.
         13    1    4    4    0    0  0.11908826322E+02  0.18822982725E+02  0.34916984432E+02  0.41416429407E+02  0.00000000000E+00 0. -1.
         -3    1    1    2    0  502  0.15612282383E+03  0.56618419966E+02 -0.77520462249E+02  0.18327412165E+03  0.00000000000E+00 0.  1.
<scales pt_clust_5="13000.00000" pt_clust_6="13000.00000" pt_clust_7="13000.00000" pt_clust_8="13000.00000" pt_clust_9="166.07222"></scales>
<clustering>
<clus scale="   91.557">  7  8 -1 -1</clus>
<clus scale="   99.040">  5  6 -1 -1</clus>
<clus scale="  106.289">  5  7 -1 -1</clus>
<clus scale="  166.072">  2  9  1 -1</clus>
<clus scale="  166.072">  2  5  1 -1</clus>
</clustering>
</event>
<event>
 9    1  0.6296820E-005  0.1049045E+03  0.7546771E-02  0.1274125E+00
          1   -1    0    0  502    0 -0.00000000000E+00  0.00000000000E+00  0.82149098948E+02  0.82149098948E+02  0.00000000000E+00 0. -1.
         21   -1    0    0  501  502  0.00000000000E+00 -0.00000000000E+00 -0.25103553799E+03  0.25103553799E+03  0.00000000000E+00 0.  1.
         23    2    1    2    0    0  0.47480829445E+02  0.19360013718E+02  0.14234900797E+02  0.10491283554E+03  0.90414774034E+02 0.  0.
        -24    2    1    2    0    0 -0.63447865380E+02 -0.51701975543E+01 -0.17858762278E+03  0.20643486687E+03  0.81666717119E+02 0.  0.
         13    1    4    4    0    0  0.70435002417E+01  0.25350514627E+02 -0.54029020372E+02  0.60094879398E+02  0.00000000000E+00 0. -1.
        -14    1    4    4    0    0 -0.70491365622E+02 -0.30520712181E+02 -0.12455860241E+03  0.14633998747E+03  0.00000000000E+00 0.  1.
        -13    1    3    3    0    0  0.23082930238E+02  0.55175730996E+02  0.18355749134E+01  0.59837716321E+02  0.00000000000E+00 0.  1.
         13    1    3    3    0    0  0.24397899207E+02 -0.35815717278E+02  0.12399325884E+02  0.45075119215E+02  0.00000000000E+00 0. -1.
          2    1    1    2  501    0  0.15967035935E+02 -0.14189816164E+02 -0.45337170574E+01  0.21836934530E+02  0.00000000000E+00 0. -1.
<scales pt_clust_5="13000.00000" pt_clust_6="13000.00000" pt_clust_7="13000.00000" pt_clust_8="13000.00000" pt_clust_9="21.36112"></scales>
<clustering>
<clus scale="   21.361">  2  9  1 -1</clus>
<clus scale="   81.667">  5  6 -1 -1</clus>
<clus scale="   90.415">  7  8 -1 -1</clus>
<clus scale="   97.466">  2  5  1 -1</clus>
<clus scale="   21.361">  2  5  1 -1</clus>
</clustering>
</event>
<event>
 9    1  0.7576122E-005  0.1152787E+03  0.7546771E-02  0.1259990E+00
         21   -1    0    0  501  502  0.00000000000E+00  0.00000000000E+00  0.29161389521E+03  0.29161389521E+03  0.00000000000E+00 0. -1.
          1   -1    0    0  502    0 -0.00000000000E+00 -0.00000000000E+00 -0.19819585092E+03  0.19819585092E+03  0.00000000000E+00 0. -1.
         23    2    1    2    0    0 -0.70399849303E+02  0.11721967532E+02 -0.11392079158E+03  0.16908997802E+03  0.10256671296E+03 0.  0.
        -24    2    1    2    0    0  0.23928061015E+02 -0.22363546941E+02 -0.18935416852E+02  0.89477670364E+02  0.81086516430E+02 0.  0.
         13    1    4    4    0    0 -0.13331053133E+02  0.24157898552E+02 -0.91978837244E+01  0.29084740072E+02  0.00000000000E+00 0. -1.
        -14    1    4    4    0    0  0.37259114148E+02 -0.46521445493E+02 -0.97375331278E+01  0.60392930292E+02  0.00000000000E+00 0.  1.
        -13    1    3    3    0    0 -0.62197915394E+02 -0.25740231339E+02 -0.11202535726E+03  0.13069361445E+03  0.00000000000E+00 0. -1.
         13    1    3    3    0    0 -0.82019339088E+01  0.37462198871E+02 -0.18954343227E+01  0.38396363569E+02  0.00000000000E+00 0.  1.
          2    1    1    2  501    0  0.46471788288E+02  0.10641579409E+02  0.22627425273E+03  0.23124209774E+03  0.00000000000E+00 0. -1.
<scales pt_clust_5="13000.00000" pt_clust_6="13000.00000" pt_clust_7="13000.00000" pt_clust_8="13000.00000" pt_clust_9="47.67463"></scales>
<clustering>
<clus scale="   47.675">  1  9  2 -1</clus>
<clus scale="   81.087">  5  6 -1 -1</clus>
<clus scale="   96.666">  1  5  2 -1</clus>
<clus scale="  102.567">  7  8 -1 -1</clus>
<clus scale="   47.675">  1  5  2 -1</clus>
</clustering>
</event>
<event>
 9    1  0.6296820E-005  0.1208269E+03  0.7546771E-02  0.1259580E+00
         21   -1    0    0  501  502  0.00000000000E+00  0.00000000000E+00  0.21099321686E+02  0.21099321686E+02  0.00000000000E+00 0.  1.
          1   -1    0    0  502    0 -0.00000000000E+00 -0.00000000000E+00 -0.65886931172E+03  0.65886931172E+03  0.00000000000E+00 0. -1.
        -24    2    1    2    0    0 -0.19481156984E+02 -0.74704069293E+01 -0.23099744369E+03  0.24573102739E+03  0.81170169227E+02 0.  0.
         23    2    1    2    0    0  0.12307350022E+02  0.32894705786E+02 -0.30434250785E+03  0.32845589084E+03  0.11842878710E+03 0.  0.
         11    1    3    3    0    0 -0.49363499519E+01 -0.39729214905E+02 -0.17475846954E+03  0.17928552854E+03  0.00000000000E+00 0. -1.
        -12    1    3    3    0    0 -0.14544807032E+02  0.32258807975E+02 -0.56238974145E+02  0.66445498843E+02  0.00000000000E+00 0.  1.
        -13    1    4    4    0    0 -0.39206419289E+01 -0.43190974176E+02 -0.79878491427E+02  0.90892271817E+02  0.00000000000E+00 0.  1.
         13    1    4    4    0    0  0.16227991951E+02  0.76085679963E+02 -0.22446401642E+03  0.23756361903E+03  0.00000000000E+00 0. -1.
          2    1    1    2  501    0  0.71738069620E+01 -0.25424298857E+02 -0.10243003850E+03  0.10578171518E+03  0.00000000000E+00 0. -1.
<scales pt_clust_5="13000.00000" pt_clust_6="13000.00000" pt_clust_7="13000.00000" pt_clust_8="13000.00000" pt_clust_9="26.41702"></scales>
<clustering>
<clus scale="   26.417">  1  9  2 -1</clus>
<clus scale="   81.170">  5  6 -1 -1</clus>
<clus scale="   84.631">  2  5  1 -1</clus>
<clus scale="  118.429">  7  8 -1 -1</clus>
<clus scale="   26.417">  1  5  2 -1</clus>
</clustering>
</event>
<event>
 9    1  0.6296820E-005  0.1104270E+03  0.7546771E-02  0.1265322E+00
         21   -1    0    0  501  502  0.00000000000E+00  0.00000000000E+00  0.21439619270E+03  0.21439619270E+03  0.00000000000E+00 0.  1.
         -4   -1    0    0    0  501 -0.00000000000E+00 -0.00000000000E+00 -0.34155942465E+03  0.34155942465E+03  0.00000000000E+00 0.  1.
         23    2    1    2    0    0 -0.47814444975E+02 -0.28917309984E+02 -0.29470590610E+03  0.31482237926E+03  0.95598783609E+02 0.  0.
        -24    2    1    2    0    0  0.62769435380E+02 -0.96287854615E+01  0.47628240394E+02  0.11429111325E+03  0.82227086521E+02 0.  0.
         11    1    4    4    0    0  0.35493501217E+02  0.10615160262E+02  0.65990279979E+02  0.75678182508E+02  0.00000000000E+00 0. -1.
        -12    1    4    4    0    0  0.27275934163E+02 -0.20243945723E+02 -0.18362039584E+02  0.38612930743E+02  0.00000000000E+00 0.  1.
        -13    1    3    3    0    0 -0.64538260606E+02  0.20500671028E+01 -0.11672039948E+03  0.13339056005E+03  0.00000000000E+00 0.  1.
         13    1    3    3    0    0  0.16723815631E+02 -0.30967377087E+02 -0.17798550662E+03  0.18143181920E+03  0.00000000000E+00 0. -1.
         -3    1    1    2    0  502 -0.14954990405E+02  0.38546095445E+02  0.11991443376E+03  0.12684212485E+03  0.00000000000E+00 0.  1.
<scales pt_clust_5="13000.00000" pt_clust_6="13000.00000" pt_clust_7="13000.00000" pt_clust_8="13000.00000" pt_clust_9="41.34553"></scales>
<clustering>
<clus scale="   41.346">  1  9  2 -1</clus>
<clus scale="   82.227">  5  6 -1 -1</clus>
<clus scale="   95.599">  7  8 -1 -1</clus>
<clus scale="   99.077">  1  5  2 -1</clus>
<clus scale="   41.346">  1  5  2 -1</clus>
</clustering>
</event>
<event>
 9    1  0.6296820E-005  0.8994625E+02  0.7546771E-02  0.1308733E+00
         21   -1    0    0  501  502  0.00000000000E+00  0.00000000000E+00  0.95326192510E+03  0.95326192510E+03  0.00000000000E+00 0.  1.
         -2   -1    0    0    0  501 -0.00000000000E+00 -0.00000000000E+00 -0.20716331205E+02  0.20716331205E+02  0.00000000000E+00 0.  1.
         23    2    1    2    0    0  0.62254814123E+01 -0.23643935429E+02  0.16342855080E+03  0.18787971652E+03  0.89398570245E+02 0.  0.
        -24    2    1    2    0    0 -0.16657224367E+02 -0.41462249235E+02  0.35251222335E+03  0.36430805580E+03  0.80367348319E+02 0.  0.
         13    1    4    4    0    0 -0.29686975452E+02  0.14693644637E+02  0.15790873543E+03  0.16134555596E+03  0.00000000000E+00 0. -1.
        -14    1    4    4    0    0  0.13029751085E+02 -0.56155893872E+02  0.19460348792E+03  0.20296249984E+03  0.00000000000E+00 0.  1.
        -11    1    3    3    0    0 -0.31196419308E+02 -0.38016572057E+02  0.64284540537E+02  0.80938115129E+02  0.00000000000E+00 0.  1.
         11    1    3    3    0    0  0.37421900720E+02  0.14372636628E+02  0.99144010258E+02  0.10694160139E+03  0.00000000000E+00 0. -1.
         -1    1    1    2    0  502  0.10431742955E+02  0.65106184665E+02  0.41660481975E+03  0.42179048399E+03  0.00000000000E+00 0.  1.
<scales pt_clust_5="13000.00000" pt_clust_6="13000.00000" pt_clust_7="13000.00000" pt_clust_8="13000.00000" pt_clust_9="65.93661"></scales>
<clustering>
<clus scale="   65.937">  1  9  2 -1</clus>
<clus scale="   80.367">  5  6 -1 -1</clus>
<clus scale="   80.976">  1  5  2 -1</clus>
<clus scale="   89.399">  7  8 -1 -1</clus>
<clus scale="   65.937">  1  5  2 -1</clus>
</clustering>
</event>
<event>
 9    1  0.6296820E-005  0.2097638E+03  0.7546771E-02  0.1141753E+00
          1   -1    0    0  502    0 -0.00000000000E+00  0.00000000000E+00  0.50912246047E+03  0.50912246047E+03  0.00000000000E+00 0. -1.
         21   -1    0    0  501  502  0.00000000000E+00 -0.00000000000E+00 -0.50729377726E+02  0.50729377726E+02  0.00000000000E+00 0. -1.
        -24    2    1    2    0    0  0.25924597504E+02  0.70319501670E+02  0.14697634602E+03  0.18397078305E+03  0.81402000306E+02 0.  0.
         23    2    1    2    0    0  0.11506896398E+02  0.34232335541E+02  0.16880590501E+03  0.19513246533E+03  0.90977931386E+02 0.  0.
         11    1    3    3    0    0  0.73823194352E+01  0.77546336820E+02  0.14417599772E+03  0.16387388844E+03  0.00000000000E+00 0. -1.
        -12    1    3    3    0    0  0.18542278069E+02 -0.72268351497E+01  0.28003483062E+01  0.20096894608E+02  0.00000000000E+00 0.  1.
        -13    1    4    4    0    0 -0.30258896909E+02 -0.11193467824E+02  0.86073144225E+02  0.91921057004E+02  0.00000000000E+00 0.  1.
         13    1    4    4    0    0  0.41765793307E+02  0.45425803365E+02  0.82732760782E+02  0.10321140833E+03  0.00000000000E+00 0. -1.
          2    1    1    2  501    0 -0.37431493902E+02 -0.10455183721E+03  0.14261083172E+03  0.18074858982E+03  0.00000000000E+00 0. -1.
<scales pt_clust_5="13000.00000" pt_clust_6="13000.00000" pt_clust_7="13000.00000" pt_clust_8="13000.00000" pt_clust_9="111.05045"></scales>
<clustering>
<clus scale="   81.402">  5  6 -1 -1</clus>
<clus scale="   90.978">  7  8 -1 -1</clus>
<clus scale="   92.854">  5  7 -1 -1</clus>
<clus scale="  111.050">  2  9  1 -1</clus>
<clus scale="  111.050">  2  5  1 -1</clus>
</clustering>
</event>
<event>
 9    1  0.6296820E-005  0.1051758E+03  0.7546771E-02  0.1273156E+00
          3   -1    0    0  502    0 -0.00000000000E+00  0.00000000000E+00  0.27735152237E+02  0.27735152237E+02  0.00000000000E+00 0. -1.
         21   -1    0    0  501  502  0.00000000000E+00 -0.00000000000E+00 -0.55759469382E+03  0.55759469382E+03  0.00000000000E+00 0.  1.
         23    2    1    2    0    0 -0.11594180585E+02  0.57592082517E+02 -0.12811809835E+03  0.16713555781E+03  0.89826357861E+02 0.  0.
        -24    2    1    2    0    0 -0.63097314289E+01 -0.47473887185E+02 -0.31152691101E+03  0.32566542915E+03  0.81947378145E+02 0.  0.
         11    1    4    4    0    0 -0.27426274385E+02 -0.19100914687E+02 -0.41279811456E+02  0.53113729885E+02  0.00000000000E+00 0. -1.
        -12    1    4    4    0    0  0.21116542956E+02 -0.28372972498E+02 -0.27024709955E+03  0.27255169926E+03  0.00000000000E+00 0.  1.
        -13    1    3    3    0    0  0.27915598254E+02  0.59070022623E+02 -0.61835024403E+02  0.89956202907E+02  0.00000000000E+00 0. -1.
         13    1    3    3    0    0 -0.39509778839E+02 -0.14779401056E+01 -0.66283073950E+02  0.77179354902E+02  0.00000000000E+00 0.  1.
          4    1    1    2  501    0  0.17903912013E+02 -0.10118195332E+02 -0.90214532227E+02  0.92528859104E+02  0.00000000000E+00 0. -1.
<scales pt_clust_5="13000.00000" pt_clust_6="13000.00000" pt_clust_7="13000.00000" pt_clust_8="13000.00000" pt_clust_9="20.56521"></scales>
<clustering>
<clus scale="   20.565">  2  9  1 -1</clus>
<clus scale="   81.947">  5  6 -1 -1</clus>
<clus scale="   89.826">  7  8 -1 -1</clus>
<clus scale="   98.532">  2  5  1 -1</clus>
<clus scale="   20.565">  2  5  1 -1</clus>
</clustering>
</event>
<event>
 9    1  0.6296820E-005  0.1082702E+03  0.7546771E-02  0.1267725E+00
         21   -1    0    0  501  502  0.00000000000E+00  0.00000000000E+00  0.69584744707E+02  0.69584744707E+02  0.00000000000E+00 0. -1.
         -4   -1    0    0    0  501 -0.00000000000E+00 -0.00000000000E+00 -0.27910455351E+03  0.27910455351E+03  0.00000000000E+00 0.  1.
        -24    2    1    2    0    0 -0.33018799703E+02 -0.45784736945E+02 -0.48012311020E+02  0.11005593371E+03  0.81367335361E+02 0.  0.
         23    2    1    2    0    0  0.63373694696E+02  0.22347158207E+02 -0.55690938707E+02  0.12608167007E+03  0.90991682112E+02 0.  0.
         13    1    3    3    0    0 -0.57352414474E+02 -0.33053772736E+02 -0.16431553308E+02  0.68204452071E+02  0.00000000000E+00 0. -1.
        -14    1    3    3    0    0  0.24333614771E+02 -0.12730964209E+02 -0.31580757713E+02  0.41851481637E+02  0.00000000000E+00 0.  1.
        -11    1    4    4    0    0  0.59176253966E+02  0.53878726839E+02 -0.31040241661E+02  0.85838469474E+02  0.00000000000E+00 0.  1.
         11    1    4    4    0    0  0.41974407292E+01 -0.31531568633E+02 -0.24650697046E+02  0.40243200593E+02  0.00000000000E+00 0. -1.
         -3    1    1    2    0  502 -0.30354894993E+02  0.23437578739E+02 -0.10581655908E+03  0.11255169444E+03  0.00000000000E+00 0.  1.
<scales pt_clust_5="13000.00000" pt_clust_6="13000.00000" pt_clust_7="13000.00000" pt_clust_8="13000.00000" pt_clust_9="38.35024"></scales>
<clustering>
<clus scale="   38.350">  1  9  2 -1</clus>
<clus scale="   81.367">  5  6 -1 -1</clus>
<clus scale="   90.992">  7  8 -1 -1</clus>
<clus scale="  100.317">  2  5  1 -1</clus>
<clus scale="   38.350">  1  5  2 -1</clus>
</clustering>
</event>
<event>
 9    1  0.6296820E-005  0.1037426E+03  0.7546771E-02  0.1279502E+00
         21   -1    0    0  501  502  0.00000000000E+00  0.00000000000E+00  0.42744080500E+02  0.42744080500E+02  0.00000000000E+00 0. -1.
         -4   -1    0    0    0  501 -0.00000000000E+00 -0.00000000000E+00 -0.32957867630E+03  0.32957867630E+03  0.00000000000E+00 0.  1.
         23    2    1    2    0    0  0.44949260315E+02  0.20902915080E+01 -0.16298692135E+03  0.19237186388E+03  0.91746346845E+02 0.  0.
        -24    2    1    2    0    0 -0.47245466995E+02 -0.29949222806E+02 -0.11767478537E+03  0.15132403180E+03  0.76957893621E+02 0.  0.
         13    1    4    4    0    0 -0.56656663505E+01 -0.41042423427E+02 -0.23141440214E+02  0.47456364706E+02  0.00000000000E+00 0. -1.
        -14    1    4    4    0    0 -0.41579800645E+02  0.11093200620E+02 -0.94533345151E+02  0.10386766709E+03  0.00000000000E+00 0.  1.
        -11    1    3    3    0    0  0.14128774434E+02  0.34338449144E+02 -0.19154383021E+02  0.41780877750E+02  0.00000000000E+00 0. -1.
         11    1    3    3    0    0  0.30820485880E+02 -0.32248157636E+02 -0.14383253833E+03  0.15059098613E+03  0.00000000000E+00 0.  1.
         -3    1    1    2    0  502  0.22962066804E+01  0.27858931298E+02 -0.61728890866E+01  0.28626861125E+02  0.00000000000E+00 0.  1.
<scales pt_clust_5="13000.00000" pt_clust_6="13000.00000" pt_clust_7="13000.00000" pt_clust_8="13000.00000" pt_clust_9="27.95340"></scales>
<clustering>
<clus scale="   27.953">  1  9  2 -1</clus>
<clus scale="   76.958">  5  6 -1 -1</clus>
<clus scale="   90.927">  1  5  2 -1</clus>
<clus scale="   91.746">  7  8 -1 -1</clus>
<clus scale="   27.953">  1  5  2 -1</clus>
</clustering>
</event>
<event>
 9    1  0.8054629E-005  0.1356057E+03  0.7546771E-02  0.1221034E+00
         21   -1    0    0  501  502  0.00000000000E+00  0.00000000000E+00  0.37338902547E+03  0.37338902547E+03  0.00000000000E+00 0.  1.
          3   -1    0    0  502    0 -0.00000000000E+00 -0.00000000000E+00 -0.21072250887E+03  0.21072250887E+03  0.00000000000E+00 0. -1.
        -24    2    1    2    0    0 -0.10272835126E+03  0.10918348756E+02 -0.17164751336E+03  0.21641013130E+03  0.81842236002E+02 0.  0.
         23    2    1    2    0    0  0.87334391891E+02 -0.24588695605E+02  0.24492695469E+03  0.27597408109E+03  0.89109934005E+02 0.  0.
         13    1    3    3    0    0 -0.93709978753E+02 -0.60780937031E+01 -0.17329055281E+03  0.19709926188E+03  0.00000000000E+00 0. -1.
        -14    1    3    3    0    0 -0.90183725057E+01  0.16996442459E+02  0.16430394521E+01  0.19310869415E+02  0.00000000000E+00 0.  1.
        -13    1    4    4    0    0  0.39440987619E+02  0.38293997912E+01  0.20148373343E+03  0.20534349428E+03  0.00000000000E+00 0.  1.
         13    1    4    4    0    0  0.47893404273E+02 -0.28418095396E+02  0.43443221263E+02  0.70630586805E+02  0.00000000000E+00 0. -1.
          4    1    1    2  501    0  0.15393959367E+02  0.13670346849E+02  0.89387075268E+02  0.91727321954E+02  0.00000000000E+00 0. -1.
<scales pt_clust_5="13000.00000" pt_clust_6="13000.00000" pt_clust_7="13000.00000" pt_clust_8="13000.00000" pt_clust_9="20.58768"></scales>
<clustering>
<clus scale="   20.588">  1  9  2 -1</clus>
<clus scale="   81.842">  5  6 -1 -1</clus>
<clus scale="   89.110">  7  8 -1 -1</clus>
<clus scale="  130.945">  2  5  1 -1</clus>
<clus scale="   20.588">  1  5  2 -1</clus>
</clustering>
</event>
<event>
 9    1  0.6296820E-005  0.9538648E+02  0.7546771E-02  0.1295555E+00
          3   -1    0    0  502    0 -0.00000000000E+00  0.00000000000E+00  0.39915279524E+03  0.39915279524E+03  0.00000000000E+00 0. -1.
         21   -1    0    0  501  502  0.00000000000E+00 -0.00000000000E+00 -0.29830480663E+03  0.29830480663E+03  0.00000000000E+00 0. -1.
         23    2    1    2    0    0 -0.13598973926E+02  0.23636490560E+02  0.29776801680E+03  0.31195595251E+03  0.88921924743E+02 0.  0.
        -24    2    1    2    0    0  0.43454667177E+02 -0.47124289458E+02  0.64941326014E+02  0.12089929121E+03  0.79311134366E+02 0.  0.
         11    1    4    4    0    0  0.54903345309E+02 -0.10487144887E+02  0.60321973898E+02  0.82238057303E+02  0.00000000000E+00 0. -1.
        -12    1    4    4    0    0 -0.11448678133E+02 -0.36637144571E+02  0.46193521169E+01  0.38661233908E+02  0.00000000000E+00 0.  1.
        -13    1    3    3    0    0 -0.47957771426E+02  0.31972277749E+02  0.18178691570E+03  0.19070568189E+03  0.00000000000E+00 0.  1.
         13    1    3    3    0    0  0.34358797500E+02 -0.83357871893E+01  0.11598110110E+03  0.12125027062E+03  0.00000000000E+00 0. -1.
          4    1    1    2  501    0 -0.29855693251E+02  0.23487798899E+02 -0.26186135420E+03  0.26460235816E+03  0.00000000000E+00 0. -1.
<scales pt_clust_5="13000.00000" pt_clust_6="13000.00000" pt_clust_7="13000.00000" pt_clust_8="13000.00000" pt_clust_9="37.98735"></scales>
<clustering>
<clus scale="   37.987">  2  9  1 -1</clus>
<clus scale="   79.311">  5  6 -1 -1</clus>
<clus scale="   86.497">  2  5  1 -1</clus>
<clus scale="   88.922">  7  8 -1 -1</clus>
<clus scale="   37.987">  2  5  1 -1</clus>
</clustering>
</event>
<event>
 9    1  0.6296820E-005  0.9249689E+02  0.7546771E-02  0.1302644E+00
         -2   -1    0    0    0  501 -0.00000000000E+00  0.00000000000E+00  0.66441424499E+03  0.66441424499E+03  0.00000000000E+00 0.  1.
         21   -1    0    0  501  502  0.00000000000E+00 -0.00000000000E+00 -0.19810534524E+02  0.19810534524E+02  0.00000000000E+00 0. -1.
        -24    2    1    2    0    0  0.29672873188E+01  0.23108366506E+02  0.33317814963E+03  0.34374828358E+03  0.81316675277E+02 0.  0.
         23    2    1    2    0    0 -0.18686630013E+02  0.15485167719E+01  0.14932647220E+03  0.17576106204E+03  0.90785282852E+02 0.  0.
         11    1    3    3    0    0  0.20109625010E+02  0.47152942509E+02  0.25667382882E+03  0.26174271988E+03  0.00000000000E+00 0. -1.
        -12    1    3    3    0    0 -0.17142337691E+02 -0.24044576003E+02  0.76504320807E+02  0.82005563707E+02  0.00000000000E+00 0.  1.
        -11    1    4    4    0    0 -0.13649724185E+02  0.26324872939E+02  0.14745681742E+03  0.15040886580E+03  0.00000000000E+00 0.  1.
         11    1    4    4    0    0 -0.50369058287E+01 -0.24776356167E+02  0.18696547794E+01  0.25352196241E+02  0.00000000000E+00 0. -1.
         -1    1    1    2    0  502  0.15719342694E+02 -0.24656883277E+02  0.16209908863E+03  0.16471543389E+03  0.00000000000E+00 0.  1.
<scales pt_clust_5="13000.00000" pt_clust_6="13000.00000" pt_clust_7="13000.00000" pt_clust_8="13000.00000" pt_clust_9="29.24142"></scales>
<clustering>
<clus scale="   29.241">  2  9  1 -1</clus>
<clus scale="   81.317">  5  6 -1 -1</clus>
<clus scale="   83.223">  1  5  2 -1</clus>
<clus scale="   90.785">  7  8 -1 -1</clus>
<clus scale="   29.241">  2  5  1 -1</clus>
</clustering>
</event>
<event>
 9    1  0.6296820E-005  0.1668425E+03  0.7546771E-02  0.1211032E+00
          1   -1    0    0  502    0 -0.00000000000E+00  0.00000000000E+00  0.86493576302E+03  0.86493576302E+03  0.00000000000E+00 0. -1.
         21   -1    0    0  501  502  0.00000000000E+00 -0.00000000000E+00 -0.78876823569E+02  0.78876823569E+02  0.00000000000E+00 0. -1.
        -24    2    1    2    0    0  0.12945407095E+02 -0.30958792024E+02  0.19272316735E+02  0.88970667228E+02  0.80114462279E+02 0.  0.
         23    2    1    2    0    0 -0.14220059101E+03  0.20858946517E+02  0.15740888647E+03  0.23182495741E+03  0.91154536947E+02 0.  0.
         11    1    3    3    0    0 -0.23623302520E+02 -0.27244035028E+02  0.33821769544E+02  0.49438951867E+02  0.00000000000E+00 0. -1.
        -12    1    3    3    0    0  0.36568709614E+02 -0.37147569957E+01 -0.14549452809E+02  0.39531715362E+02  0.00000000000E+00 0.  1.
        -11    1    4    4    0    0 -0.13712963100E+02  0.17381902021E+02 -0.69218269649E+01  0.23196714496E+02  0.00000000000E+00 0.  1.
         11    1    4    4    0    0 -0.12848762791E+03  0.34770444962E+01  0.16433071344E+03  0.20862824292E+03  0.00000000000E+00 0. -1.
          2    1    1    2  501    0  0.12925518391E+03  0.10099845507E+02  0.60937773625E+03  0.62301696195E+03  0.00000000000E+00 0. -1.
<scales pt_clust_5="13000.00000" pt_clust_6="13000.00000" pt_clust_7="13000.00000" pt_clust_8="13000.00000" pt_clust_9="139.74008"></scales>
<clustering>
<clus scale="   80.114">  5  6 -1 -1</clus>
<clus scale="   86.858">  1  5  2 -1</clus>
<clus scale="   91.155">  7  8 -1 -1</clus>
<clus scale="  139.740">  2  9  1 -1</clus>
<clus scale="  139.740">  2  5  1 -1</clus>
</clustering>
</event>
<event>
 9    1  0.6296820E-005  0.9094936E+02  0.7546771E-02  0.1306225E+00
         21   -1    0    0  501  502  0.00000000000E+00  0.00000000000E+00  0.16198482827E+03  0.16198482827E+03  0.00000000000E+00 0. -1.
         -2   -1    0    0    0  501 -0.00000000000E+00 -0.00000000000E+00 -0.13746127230E+03  0.13746127230E+03  0.00000000000E+00 0.  1.
        -24    2    1    2    0    0  0.41009067968E+01 -0.86577381457E+01 -0.46306155705E+02  0.93744552479E+02  0.80944469835E+02 0.  0.
         23    2    1    2    0    0  0.47538474577E+02  0.30645463495E+02  0.96877386616E+02  0.14382613177E+03  0.90009316988E+02 0.  0.
         13    1    3    3    0    0 -0.13986340796E+02  0.32096364330E+02 -0.10477614030E+02  0.36545515838E+02  0.00000000000E+00 0. -1.
        -14    1    3    3    0    0  0.18087247593E+02 -0.40754102476E+02 -0.35828541675E+02  0.57199036641E+02  0.00000000000E+00 0.  1.
        -13    1    4    4    0    0  0.26998573559E+00 -0.29645517362E+02  0.28960293894E+02  0.41444278428E+02  0.00000000000E+00 0.  1.
         13    1    4    4    0    0  0.47268488842E+02  0.60290980857E+02  0.67917092723E+02  0.10238185334E+03  0.00000000000E+00 0. -1.
         -1    1    1    2    0  502 -0.51639381374E+02 -0.21987725349E+02 -0.26047674949E+02  0.61875416322E+02  0.00000000000E+00 0.  1.
<scales pt_clust_5="13000.00000" pt_clust_6="13000.00000" pt_clust_7="13000.00000" pt_clust_8="13000.00000" pt_clust_9="56.12565"></scales>
<clustering>
<clus scale="   56.126">  1  9  2 -1</clus>
<clus scale="   80.944">  5  6 -1 -1</clus>
<clus scale="   81.989">  2  5  1 -1</clus>
<clus scale="   90.009">  7  8 -1 -1</clus>
<clus scale="   56.126">  1  5  2 -1</clus>
</clustering>
</event>
<event>
 9    1  0.6296820E-005  0.1941817E+03  0.7546771E-02  0.1157272E+00
          1   -1    0    0  502    0 -0.00000000000E+00  0.00000000000E+00  0.68120129928E+03  0.68120129928E+03  0.00000000000E+00 0. -1.
         21   -1    0    0  501  502  0.00000000000E+00 -0.00000000000E+00 -0.93466798857E+02  0.93466798857E+02  0.00000000000E+00 0. -1.
        -24    2    1    2    0    0 -0.49096806094E+02 -0.13148135094E+03  0.22002768473E+03  0.27312284117E+03  0.80536093232E+02 0.  0.
         23    2    1    2    0    0  0.14179492770E+03  0.16477839714E+03  0.23648349456E+03  0.33746846078E+03  0.10345432392E+03 0.  0.
         11    1    3    3    0    0  0.10806455262E+02 -0.81088385628E+02  0.13228704525E+03  0.15553767421E+03  0.00000000000E+00 0. -1.
        -12    1    3    3    0    0 -0.59903261356E+02 -0.50392965309E+02  0.87740639479E+02  0.11758516696E+03  0.00000000000E+00 0.  1.
        -11    1    4    4    0    0  0.10115718434E+03  0.13765121523E+03  0.23241461556E+03  0.28843922501E+03  0.00000000000E+00 0.  1.
         11    1    4    4    0    0  0.40637743363E+02  0.27127181906E+02  0.40688789980E+01  0.49029235769E+02  0.00000000000E+00 0. -1.
          2    1    1    2  501    0 -0.92698121607E+02 -0.33297046202E+02  0.13122332114E+03  0.16407679618E+03  0.00000000000E+00 0. -1.
<scales pt_clust_5="13000.00000" pt_clust_6="13000.00000" pt_clust_7="13000.00000" pt_clust_8="13000.00000" pt_clust_9="98.49693"></scales>
<clustering>
<clus scale="   80.536">  5  6 -1 -1</clus>
<clus scale="   98.497">  2  9  1 -1</clus>
<clus scale="  103.454">  7  8 -1 -1</clus>
<clus scale="  183.002">  1  5  2 -1</clus>
<clus scale="   98.497">  2  5  1 -1</clus>
</clustering>
</event>
<event>
 9    1  0.6296820E-005  0.2616085E+03  0.7546771E-02  0.1122810E+00
          1   -1    0    0  502    0 -0.00000000000E+00  0.00000000000E+00  0.29544235663E+03  0.29544235663E+03  0.00000000000E+00 0. -1.
         21   -1    0    0  501  502  0.00000000000E+00 -0.00000000000E+00 -0.91363454520E+03  0.91363454520E+03  0.00000000000E+00 0. -1.
        -24    2    1    2    0    0  0.86311896310E+02  0.12415176445E+03 -0.42455643731E+03  0.45802488909E+03  0.81702059358E+02 0.  0.
         23    2    1    2    0    0 -0.28953822659E+03  0.14400875684E+02  0.14274261479E+03  0.33434086511E+03  0.85840492363E+02 0.  0.
         11    1    3    3    0    0  0.79105337104E+02  0.12174172036E+03 -0.30048883927E+03  0.33372480183E+03  0.00000000000E+00 0. -1.
        -12    1    3    3    0    0  0.72065592055E+01  0.24100440946E+01 -0.12406759804E+03  0.12430008726E+03  0.00000000000E+00 0.  1.
        -13    1    4    4    0    0 -0.55279437914E+02  0.32562577573E+02  0.51555330996E+02  0.82304859324E+02  0.00000000000E+00 0.  1.
         13    1    4    4    0    0 -0.23425878868E+03 -0.18161701888E+02  0.91187283796E+02  0.25203600579E+03  0.00000000000E+00 0. -1.
          2    1    1    2  501    0  0.20322633028E+03 -0.13855264014E+03 -0.33637836605E+03  0.41671114763E+03  0.00000000000E+00 0. -1.
<scales pt_clust_5="13000.00000" pt_clust_6="13000.00000" pt_clust_7="13000.00000" pt_clust_8="13000.00000" pt_clust_9="247.12433"></scales>
<clustering>
<clus scale="   81.702">  5  6 -1 -1</clus>
<clus scale="   85.840">  7  8 -1 -1</clus>
<clus scale="  171.868">  1  5  2 -1</clus>
<clus scale="  247.124">  2  9  1 -1</clus>
<clus scale="  247.124">  2  5  1 -1</clus>
</clustering>
</event>
<event>
 9    1  0.6296820E-005  0.1077048E+03  0.7546771E-02  0.1268740E+00
         21   -1    0    0  501  502  0.00000000000E+00  0.00000000000E+00  0.14571496272E+03  0.14571496272E+03  0.00000000000E+00 0.  1.
          1   -1    0    0  502    0 -0.00000000000E+00 -0.00000000000E+00 -0.13186483225E+03  0.13186483225E+03  0.00000000000E+00 0. -1.
         23    2    1    2    0    0 -0.49466712560E+02 -0.43714517181E+02 -0.40514162355E+02  0.11889904869E+03  0.90209044807E+02 0.  0.
        -24    2    1    2    0    0  0.31926830745E+02  0.24721146419E+02  0.81190996815E+02  0.12142396658E+03  0.80754839448E+02 0.  0.
         11    1    4    4    0    0  0.31971832749E+02  0.43590595601E+01 -0.51839400873E+01  0.32681381923E+02  0.00000000000E+00 0. -1.
        -12    1    4    4    0    0 -0.45002004150E-01  0.20362086859E+02  0.86374936903E+02  0.88742584656E+02  0.00000000000E+00 0.  1.
        -13    1    3    3    0    0 -0.72643089575E+02 -0.16136113717E+02 -0.35769293521E+02  0.82564126519E+02  0.00000000000E+00 0. -1.
         13    1    3    3    0    0  0.23176377015E+02 -0.27578403464E+02 -0.47448688341E+01  0.36334922174E+02  0.00000000000E+00 0.  1.
          2    1    1    2  501    0  0.17539881815E+02  0.18993370762E+02 -0.26826703982E+02  0.37256779699E+02  0.00000000000E+00 0. -1.
<scales pt_clust_5="13000.00000" pt_clust_6="13000.00000" pt_clust_7="13000.00000" pt_clust_8="13000.00000" pt_clust_9="25.85336"></scales>
<clustering>
<clus scale="   25.853">  1  9  2 -1</clus>
<clus scale="   80.755">  5  6 -1 -1</clus>
<clus scale="   90.209">  7  8 -1 -1</clus>
<clus scale="   99.920">  1  5  2 -1</clus>
<clus scale="   25.853">  1  5  2 -1</clus>
</clustering>
</event>
<event>
 9    1  0.6296820E-005  0.8593816E+02  0.7546771E-02  0.1314610E+00
         21   -1    0    0  501  502  0.00000000000E+00  0.00000000000E+00  0.62434959243E+02  0.62434959243E+02  0.00000000000E+00 0.  1.
          1   -1    0    0  502    0 -0.00000000000E+00 -0.00000000000E+00 -0.24183361066E+03  0.24183361066E+03  0.00000000000E+00 0. -1.
        -24    2    1    2    0    0  0.82563269864E+01 -0.83606993447E+01 -0.17104145344E+03  0.19049268270E+03  0.83031410561E+02 0.  0.
         23    2    1    2    0    0 -0.57778545895E+01 -0.17178373088E+02 -0.24312294496E+01  0.87441420258E+02  0.85507958662E+02 0.  0.
         11    1    3    3    0    0 -0.34565079182E+02  0.95320023070E+01 -0.56626064468E+02  0.67023241819E+02  0.00000000000E+00 0. -1.
        -12    1    3    3    0    0  0.42821406168E+02 -0.17892701652E+02 -0.11441538897E+03  0.12346944088E+03  0.00000000000E+00 0.  1.
        -13    1    4    4    0    0  0.28703239375E+02 -0.32485945092E+02  0.15014926221E+02  0.45876579957E+02  0.00000000000E+00 0.  1.
         13    1    4    4    0    0 -0.34481093964E+02  0.15307572004E+02 -0.17446155670E+02  0.41564840301E+02  0.00000000000E+00 0. -1.
          2    1    1    2  501    0 -0.24784723969E+01  0.25539072433E+02 -0.59259685275E+01  0.26334466943E+02  0.00000000000E+00 0. -1.
<scales pt_clust_5="13000.00000" pt_clust_6="13000.00000" pt_clust_7="13000.00000" pt_clust_8="13000.00000" pt_clust_9="25.65905"></scales>
<clustering>
<clus scale="   25.659">  1  9  2 -1</clus>
<clus scale="   83.031">  5  6 -1 -1</clus>
<clus scale="   83.474">  2  5  1 -1</clus>
<clus scale="   85.508">  7  8 -1 -1</clus>
<clus scale="   25.659">  1  5  2 -1</clus>
</clustering>
</event>
<event>
 9    1  0.6296820E-005  0.9819518E+02  0.7546771E-02  0.1286400E+00
         21   -1    0    0  501  502  0.00000000000E+00  0.00000000000E+00  0.13111781753E+03  0.13111781753E+03  0.00000000000E+00 0.  1.
         -2   -1    0    0    0  501 -0.00000000000E+00 -0.00000000000E+00 -0.16410320879E+03  0.16410320879E+03  0.00000000000E+00 0.  1.
        -24    2    1    2    0    0 -0.26322140891E+02 -0.13608244695E+02 -0.95024633762E+02  0.13665894532E+03  0.93637315690E+02 0.  0.
         23    2    1    2    0    0  0.34184449475E+02 -0.75931719439E+01  0.37225016563E+01  0.96014833042E+02  0.89323895455E+02 0.  0.
         11    1    3    3    0    0  0.19258292723E+02  0.29659913776E+02 -0.33659510770E+02  0.48821665161E+02  0.00000000000E+00 0. -1.
        -12    1    3    3    0    0 -0.45580433614E+02 -0.43268158471E+02 -0.61365122992E+02  0.87837280159E+02  0.00000000000E+00 0.  1.
        -11    1    4    4    0    0 -0.98511031043E+01 -0.39401332404E+02 -0.52659982518E+01  0.40954120247E+02  0.00000000000E+00 0.  1.
         11    1    4    4    0    0  0.44035552580E+02  0.31808160460E+02  0.89884999081E+01  0.55060712795E+02  0.00000000000E+00 0. -1.
         -1    1    1    2    0  502 -0.78623085847E+01  0.21201416639E+02  0.58316740846E+02  0.62547247954E+02  0.00000000000E+00 0.  1.
<scales pt_clust_5="13000.00000" pt_clust_6="13000.00000" pt_clust_7="13000.00000" pt_clust_8="13000.00000" pt_clust_9="22.61230"></scales>
<clustering>
<clus scale="   22.612">  1  9  2 -1</clus>
<clus scale="   89.324">  7  8 -1 -1</clus>
<clus scale="   93.637">  5  6 -1 -1</clus>
<clus scale="   94.091">  1  7  2 -1</clus>
<clus scale="   22.612">  1  5  2 -1</clus>
</clustering>
</event>
<event>
 9    1  0.6296820E-005  0.2489962E+03  0.7546771E-02  0.1124115E+00
          1   -1    0    0  502    0 -0.00000000000E+00  0.00000000000E+00  0.51653089398E+03  0.51653089398E+03  0.00000000000E+00 0. -1.
         21   -1    0    0  501  502  0.00000000000E+00 -0.00000000000E+00 -0.10846086743E+04  0.10846086743E+04  0.00000000000E+00 0. -1.
         23    2    1    2    0    0  0.88494048797E+02  0.14486762401E+03 -0.82549362994E+02  0.20988346967E+03  0.91754282474E+02 0.  0.
        -24    2    1    2    0    0  0.13961499884E+03 -0.20582076160E+03  0.39800705233E+03  0.47671580495E+03  0.83629009179E+02 0.  0.
         11    1    4    4    0    0  0.45263954371E+02 -0.13909972567E+03  0.23759928372E+03  0.27901788271E+03  0.00000000000E+00 0. -1.
        -12    1    4    4    0    0  0.94351044465E+02 -0.66721035934E+02  0.16040776861E+03  0.19769792224E+03  0.00000000000E+00 0.  1.
        -11    1    3    3    0    0  0.90550184015E+02  0.62689425352E+02 -0.38838323903E+02  0.11678062887E+03  0.00000000000E+00 0.  1.
         11    1    3    3    0    0 -0.20561352177E+01  0.82178198660E+02 -0.43711039091E+02  0.93102840802E+02  0.00000000000E+00 0. -1.
          2    1    1    2  501    0 -0.22810904763E+03  0.60953137590E+02 -0.88353546970E+03  0.91454029370E+03  0.00000000000E+00 0. -1.
<scales pt_clust_5="13000.00000" pt_clust_6="13000.00000" pt_clust_7="13000.00000" pt_clust_8="13000.00000" pt_clust_9="234.53210"></scales>
<clustering>
<clus scale="   83.629">  5  6 -1 -1</clus>
<clus scale="   91.754">  7  8 -1 -1</clus>
<clus scale="  192.968">  1  7  2 -1</clus>
<clus scale="  234.532">  2  9  1 -1</clus>
<clus scale="  234.532">  2  5  1 -1</clus>
</clustering>
</event>
<event>
 9    1  0.6296820E-005  0.1431303E+03  0.7546771E-02  0.1227869E+00
          1   -1    0    0  502    0 -0.00000000000E+00  0.00000000000E+00  0.15045563579E+03  0.15045563579E+03  0.00000000000E+00 0. -1.
         21   -1    0    0  501  502  0.00000000000E+00 -0.00000000000E+00 -0.26656732659E+03  0.26656732659E+03  0.00000000000E+00 0.  1.
        -24    2    1    2    0    0 -0.52665383094E+01  0.50044723435E+02 -0.11275587416E+03  0.14845994804E+03  0.82427290662E+02 0.  0.
         23    2    1    2    0    0 -0.52846944863E+02  0.75914384440E+02 -0.15095532961E+02  0.12934845072E+03  0.89147928979E+02 0.  0.
         13    1    3    3    0    0 -0.20204794111E+02 -0.96408592488E+01 -0.29351926425E+01  0.22578645397E+02  0.00000000000E+00 0. -1.
        -14    1    3    3    0    0  0.14938255802E+02  0.59685582684E+02 -0.10982068152E+03  0.12588130265E+03  0.00000000000E+00 0.  1.
        -11    1    4    4    0    0  0.20618038203E+02  0.27523250280E+02  0.13355275555E+02  0.36891681860E+02  0.00000000000E+00 0. -1.
         11    1    4    4    0    0 -0.73464983066E+02  0.48391134160E+02 -0.28450808516E+02  0.92456768857E+02  0.00000000000E+00 0.  1.
          2    1    1    2  501    0  0.58113483173E+02 -0.12595910787E+03  0.11739716325E+02  0.13921456361E+03  0.00000000000E+00 0. -1.
<scales pt_clust_5="13000.00000" pt_clust_6="13000.00000" pt_clust_7="13000.00000" pt_clust_8="13000.00000" pt_clust_9="111.97740"></scales>
<clustering>
<clus scale="   82.427">  5  6 -1 -1</clus>
<clus scale="   89.148">  7  8 -1 -1</clus>
<clus scale="   96.574">  1  5  2 -1</clus>
<clus scale="  111.977">  2  9  1 -1</clus>
<clus scale="  111.977">  2  5  1 -1</clus>
</clustering>
</event>
<event>
 9    1  0.6296820E-005  0.1179739E+03  0.7546771E-02  0.1253808E+00
         -2   -1    0    0    0  501 -0.00000000000E+00  0.00000000000E+00  0.66882256747E+03  0.66882256747E+03  0.00000000000E+00 0.  1.
         21   -1    0    0  501  502  0.00000000000E+00 -0.00000000000E+00 -0.41023557697E+02  0.41023557697E+02  0.00000000000E+00 0. -1.
         23    2    1    2    0    0 -0.17202254725E+02 -0.36965012246E+02  0.22578245033E+03  0.24975150733E+03  0.98670009811E+02 0.  0.
        -24    2    1    2    0    0  0.10166296874E+03  0.48658058505E+02  0.22660390444E+03  0.26505631628E+03  0.78756303993E+02 0.  0.
         11    1    4    4    0    0 -0.23981976935E+01  0.31993463205E+02  0.50685022556E+02  0.59985869599E+02  0.00000000000E+00 0. -1.
        -12    1    4    4    0    0  0.10406116644E+03  0.16664595300E+02  0.17591888189E+03  0.20507044668E+03  0.00000000000E+00 0.  1.
        -11    1    3    3    0    0  0.33034155777E+02 -0.12319550014E+02  0.30526294805E+02  0.46635624098E+02  0.00000000000E+00 0. -1.
         11    1    3    3    0    0 -0.50236410502E+02 -0.24645462232E+02  0.19525615553E+03  0.20311588323E+03  0.00000000000E+00 0.  1.
         -1    1    1    2    0  502 -0.84460714018E+02 -0.11693046259E+02  0.17541265500E+03  0.19503830157E+03  0.00000000000E+00 0.  1.
<scales pt_clust_5="13000.00000" pt_clust_6="13000.00000" pt_clust_7="13000.00000" pt_clust_8="13000.00000" pt_clust_9="85.26633"></scales>
<clustering>
<clus scale="   78.756">  5  6 -1 -1</clus>
<clus scale="   85.266">  2  9  1 -1</clus>
<clus scale="   98.670">  7  8 -1 -1</clus>
<clus scale="  101.905">  2  5  1 -1</clus>
<clus scale="   85.266">  2  5  1 -1</clus>
</clustering>
</event>
<event>
 9    1  0.6296820E-005  0.1178383E+03  0.7546771E-02  0.1257683E+00
         21   -1    0    0  501  502  0.00000000000E+00  0.00000000000E+00  0.51586759130E+03  0.51586759130E+03  0.00000000000E+00 0. -1.
          1   -1    0    0  502    0 -0.00000000000E+00 -0.00000000000E+00 -0.63917239350E+02  0.63917239350E+02  0.00000000000E+00 0. -1.
         23    2    1    2    0    0 -0.46633707495E+02  0.52036940603E+01  0.16094907645E+02  0.96065916668E+02  0.82266841356E+02 0.  0.
        -24    2    1    2    0    0 -0.48447118169E+02 -0.45232005746E+02  0.17901991791E+03  0.20693900726E+03  0.79890951399E+02 0.  0.
         11    1    4    4    0    0 -0.63273026978E+02 -0.22035511531E+02  0.16004521527E+03  0.17350363294E+03  0.00000000000E+00 0. -1.
        -12    1    4    4    0    0  0.14825908809E+02 -0.23196494215E+02  0.18974702634E+02  0.33435374320E+02  0.00000000000E+00 0.  1.
        -13    1    3    3    0    0 -0.14818802980E+02 -0.29166612853E+02  0.32814066264E+02  0.46336283536E+02  0.00000000000E+00 0.  1.
         13    1    3    3    0    0 -0.31814904515E+02  0.34370306914E+02 -0.16719158619E+02  0.49729633133E+02  0.00000000000E+00 0. -1.
          2    1    1    2  501    0  0.95080825664E+02  0.40028311686E+02  0.25683552640E+03  0.27677990673E+03  0.00000000000E+00 0. -1.
<scales pt_clust_5="13000.00000" pt_clust_6="13000.00000" pt_clust_7="13000.00000" pt_clust_8="13000.00000" pt_clust_9="86.62165"></scales>
<clustering>
<clus scale="   79.891">  5  6 -1 -1</clus>
<clus scale="   82.267">  7  8 -1 -1</clus>
<clus scale="   94.708">  2  7  1 -1</clus>
<clus scale="   86.622">  1  9  2 -1</clus>
<clus scale="   86.622">  1  5  2 -1</clus>
</clustering>
</event>
<event>
 9    1  0.6296820E-005  0.1890390E+03  0.7546771E-02  0.1181942E+00
          1   -1    0    0  502    0 -0.00000000000E+00  0.00000000000E+00  0.30489418589E+03  0.30489418589E+03  0.00000000000E+00 0. -1.
         21   -1    0    0  501  502  0.00000000000E+00 -0.00000000000E+00 -0.49575348778E+03  0.49575348778E+03  0.00000000000E+00 0. -1.
         23    2    1    2    0    0  0.19875092880E+01  0.66267482431E+02  0.55428077042E+02  0.12564993350E+03  0.91215703934E+02 0.  0.
        -24    2    1    2    0    0  0.11710125961E+03  0.61890965011E+02  0.16591961159E+03  0.22720166430E+03  0.80920221209E+02 0.  0.
         13    1    4    4    0    0  0.51087401459E+02  0.56582361606E+02  0.13287071055E+03  0.15318652668E+03  0.00000000000E+00 0. -1.
        -14    1    4    4    0    0  0.66013858150E+02  0.53086034053E+01  0.33048901033E+02  0.74015137624E+02  0.00000000000E+00 0.  1.
        -13    1    3    3    0    0  0.38996840789E+02  0.28645109926E+02 -0.98890134504E+00  0.48397043712E+02  0.00000000000E+00 0.  1.
         13    1    3    3    0    0 -0.37009331501E+02  0.37622372504E+02  0.56416978387E+02  0.77252889793E+02  0.00000000000E+00 0. -1.
          2    1    1    2  501    0 -0.11908876890E+03 -0.12815844744E+03 -0.41220699052E+03  0.44779607586E+03  0.00000000000E+00 0. -1.
<scales pt_clust_5="13000.00000" pt_clust_6="13000.00000" pt_clust_7="13000.00000" pt_clust_8="13000.00000" pt_clust_9="170.84402"></scales>
<clustering>
<clus scale="   80.920">  5  6 -1 -1</clus>
<clus scale="   91.216">  7  8 -1 -1</clus>
<clus scale="  112.764">  1  7  2 -1</clus>
<clus scale="  170.844">  2  9  1 -1</clus>
<clus scale="  170.844">  2  5  1 -1</clus>
</clustering>
</event>
<event>
 9    1  0.6296820E-005  0.9362593E+02  0.7546771E-02  0.1301526E+00
         21   -1    0    0  501  502  0.00000000000E+00  0.00000000000E+00  0.14862268693E+03  0.14862268693E+03  0.00000000000E+00 0.  1.
         -2   -1    0    0    0  501 -0.00000000000E+00 -0.00000000000E+00 -0.22561244730E+03  0.22561244730E+03  0.00000000000E+00 0.  1.
        -24    2    1    2    0    0  0.19852819221E+02 -0.46506512216E+01 -0.15946465450E+03  0.17985858696E+03  0.80649688658E+02 0.  0.
         23    2    1    2    0    0  0.20638254365E+02  0.18053727442E+02 -0.54491436248E+01  0.96653438901E+02  0.92521994505E+02 0.  0.
         11    1    3    3    0    0 -0.47530887273E+00  0.33945049358E+02 -0.10335179193E+03  0.10878458158E+03  0.00000000000E+00 0. -1.
        -12    1    3    3    0    0  0.20328128094E+02 -0.38595700580E+02 -0.56112862575E+02  0.71074005384E+02  0.00000000000E+00 0.  1.
        -11    1    4    4    0    0 -0.22309583013E+02  0.18670193603E+01 -0.35373689931E+02  0.41862885649E+02  0.00000000000E+00 0. -1.
         11    1    4    4    0    0  0.42947837378E+02  0.16186708082E+02  0.29924546306E+02  0.54790553252E+02  0.00000000000E+00 0.  1.
         -1    1    1    2    0  502 -0.40491073586E+02 -0.13403076221E+02  0.87924037757E+02  0.97723108361E+02  0.00000000000E+00 0.  1.
<scales pt_clust_5="13000.00000" pt_clust_6="13000.00000" pt_clust_7="13000.00000" pt_clust_8="13000.00000" pt_clust_9="42.65172"></scales>
<clustering>
<clus scale="   42.652">  1  9  2 -1</clus>
<clus scale="   80.650">  5  6 -1 -1</clus>
<clus scale="   81.914">  2  5  1 -1</clus>
<clus scale="   92.522">  7  8 -1 -1</clus>
<clus scale="   42.652">  1  5  2 -1</clus>
</clustering>
</event>
<event>
 9    1  0.6296820E-005  0.1763703E+03  0.7546771E-02  0.1172907E+00
         21   -1    0    0  501  502  0.00000000000E+00  0.00000000000E+00  0.28143410008E+03  0.28143410008E+03  0.00000000000E+00 0.  1.
          1   -1    0    0  502    0 -0.00000000000E+00 -0.00000000000E+00 -0.17167738681E+03  0.17167738681E+03  0.00000000000E+00 0. -1.
        -24    2    1    2    0    0 -0.14732301946E+03  0.42873060909E+02 -0.56861400101E+02  0.18329457307E+03  0.82592434782E+02 0.  0.
         23    2    1    2    0    0  0.12187391547E+03 -0.70181446562E+02  0.11008084495E+03  0.20206835263E+03  0.94525869461E+02 0.  0.
         13    1    3    3    0    0 -0.12504909957E+03  0.49663247556E+02 -0.74760048135E+02  0.15392459277E+03  0.00000000000E+00 0. -1.
        -14    1    3    3    0    0 -0.22273919883E+02 -0.67901866472E+01  0.17898648034E+02  0.29369980305E+02  0.00000000000E+00 0.  1.
        -13    1    4    4    0    0  0.81598632937E+02 -0.50288859802E+02  0.12242435251E+03  0.15548320940E+03  0.00000000000E+00 0.  1.
         13    1    4    4    0    0  0.40275282537E+02 -0.19892586760E+02 -0.12343507561E+02  0.46585143236E+02  0.00000000000E+00 0. -1.
          2    1    1    2  501    0  0.25449103981E+02  0.27308385654E+02  0.56537268425E+02  0.67748561176E+02  0.00000000000E+00 0. -1.
<scales pt_clust_5="13000.00000" pt_clust_6="13000.00000" pt_clust_7="13000.00000" pt_clust_8="13000.00000" pt_clust_9="37.32834"></scales>
<clustering>
<clus scale="   37.328">  1  9  2 -1</clus>
<clus scale="   82.592">  5  6 -1 -1</clus>
<clus scale="   94.526">  7  8 -1 -1</clus>
<clus scale="  170.273">  2  5  1 -1</clus>
<clus scale="   37.328">  1  5  2 -1</clus>
</clustering>
</event>
<event>
 9    1  0.6296820E-005  0.9726496E+02  0.7546771E-02  0.1292308E+00
          1   -1    0    0  502    0 -0.00000000000E+00  0.00000000000E+00  0.41566953947E+03  0.41566953947E+03  0.00000000000E+00 0. -1.
         21   -1    0    0  501  502  0.00000000000E+00 -0.00000000000E+00 -0.61592792096E+02  0.61592792096E+02  0.00000000000E+00 0. -1.
         23    2    1    2    0    0  0.23649389915E+02 -0.33548419586E+02  0.27840084562E+03  0.29587424427E+03  0.91376952653E+02 0.  0.
        -24    2    1    2    0    0 -0.19295116108E+02 -0.22633219785E+02 -0.20618868801E+01  0.85375066911E+02  0.80000540805E+02 0.  0.
         13    1    4    4    0    0 -0.27791443007E+02 -0.41328587018E+02 -0.24034764169E+02  0.55299966527E+02  0.00000000000E+00 0. -1.
        -14    1    4    4    0    0  0.84963268989E+01  0.18695367233E+02  0.21972877289E+02  0.30075100384E+02  0.00000000000E+00 0.  1.
        -11    1    3    3    0    0  0.28809446070E+01  0.30905696921E+02  0.65893165515E+02  0.72837979143E+02  0.00000000000E+00 0.  1.
         11    1    3    3    0    0  0.20768445308E+02 -0.64454116507E+02  0.21250768011E+03  0.22303626512E+03  0.00000000000E+00 0. -1.
          2    1    1    2  501    0 -0.43542738075E+01  0.56181639372E+02  0.77737788630E+02  0.96013020387E+02  0.00000000000E+00 0. -1.
<scales pt_clust_5="13000.00000" pt_clust_6="13000.00000" pt_clust_7="13000.00000" pt_clust_8="13000.00000" pt_clust_9="56.35015"></scales>
<clustering>
<clus scale="   56.350">  2  9  1 -1</clus>
<clus scale="   80.001">  5  6 -1 -1</clus>
<clus scale="   86.665">  2  5  1 -1</clus>
<clus scale="   91.377">  7  8 -1 -1</clus>
<clus scale="   56.350">  2  5  1 -1</clus>
</clustering>
</event>
<event>
 9    1  0.6296820E-005  0.1236967E+03  0.7546771E-02  0.1241458E+00
          1   -1    0    0  502    0 -0.00000000000E+00  0.00000000000E+00  0.35868253761E+03  0.35868253761E+03  0.00000000000E+00 0. -1.
         21   -1    0    0  501  502  0.00000000000E+00 -0.00000000000E+00 -0.74400059609E+02  0.74400059609E+02  0.00000000000E+00 0.  1.
        -24    2    1    2    0    0  0.72541521306E+02  0.39696222084E+02  0.94205032524E+02  0.14740646262E+03  0.77562972529E+02 0.  0.
         23    2    1    2    0    0 -0.87404199731E+02 -0.49582376212E+01  0.43547070126E+02  0.13435271383E+03  0.92142423154E+02 0.  0.
         13    1    3    3    0    0  0.55043018939E+02  0.44481088923E+02  0.10475597927E+03  0.12642039550E+03  0.00000000000E+00 0. -1.
        -14    1    3    3    0    0  0.17498502367E+02 -0.47848668397E+01 -0.10550946747E+02  0.20986067116E+02  0.00000000000E+00 0.  1.
        -11    1    4    4    0    0 -0.36843617811E+02 -0.46829086702E+02  0.92912265760E+01  0.60305409592E+02  0.00000000000E+00 0. -1.
         11    1    4    4    0    0 -0.50560581920E+02  0.41870849081E+02  0.34255843550E+02  0.74047304233E+02  0.00000000000E+00 0.  1.
          2    1    1    2  501    0  0.14862678425E+02 -0.34737984463E+02  0.14653037535E+03  0.15132342077E+03  0.00000000000E+00 0. -1.
<scales pt_clust_5="13000.00000" pt_clust_6="13000.00000" pt_clust_7="13000.00000" pt_clust_8="13000.00000" pt_clust_9="37.78397"></scales>
<clustering>
<clus scale="   37.784">  2  9  1 -1</clus>
<clus scale="   77.563">  5  6 -1 -1</clus>
<clus scale="   92.142">  7  8 -1 -1</clus>
<clus scale="  113.255">  1  5  2 -1</clus>
<clus scale="   37.784">  2  5  1 -1</clus>
</clustering>
</event>
<event>
 9    1  0.6296820E-005  0.1511701E+03  0.7546771E-02  0.1201012E+00
         21   -1    0    0  501  502  0.00000000000E+00  0.00000000000E+00  0.34212590676E+03  0.34212590676E+03  0.00000000000E+00 0. -1.
          1   -1    0    0  502    0 -0.00000000000E+00 -0.00000000000E+00 -0.15832172869E+03  0.15832172869E+03  0.00000000000E+00 0. -1.
         23    2    1    2    0    0  0.10812895764E+03  0.61975112764E+02 -0.30392129491E+02  0.15759858049E+03  0.91546954913E+02 0.  0.
        -24    2    1    2    0    0 -0.44943847677E+02 -0.12520640631E+03  0.64335799751E+02  0.16835342062E+03  0.80667127624E+02 0.  0.
         11    1    4    4    0    0 -0.15062313910E+02 -0.83799534304E+02  0.78025810235E+02  0.11548706556E+03  0.00000000000E+00 0. -1.
        -12    1    4    4    0    0 -0.29881533767E+02 -0.41406872009E+02 -0.13690010484E+02  0.52866355056E+02  0.00000000000E+00 0.  1.
        -11    1    3    3    0    0  0.10046869928E+03  0.18219839025E+02  0.28013130697E+01  0.10214582431E+03  0.00000000000E+00 0. -1.
         11    1    3    3    0    0  0.76602583546E+01  0.43755273738E+02 -0.33193442560E+02  0.55452756171E+02  0.00000000000E+00 0.  1.
          2    1    1    2  501    0 -0.63185109961E+02  0.63231293549E+02  0.14986050781E+03  0.17449563435E+03  0.00000000000E+00 0. -1.
<scales pt_clust_5="13000.00000" pt_clust_6="13000.00000" pt_clust_7="13000.00000" pt_clust_8="13000.00000" pt_clust_9="89.38990"></scales>
<clustering>
<clus scale="   80.667">  5  6 -1 -1</clus>
<clus scale="   89.390">  1  9  2 -1</clus>
<clus scale="   91.547">  7  8 -1 -1</clus>
<clus scale="  144.840">  1  5  2 -1</clus>
<clus scale="   89.390">  1  5  2 -1</clus>
</clustering>
</event>
<event>
 9    1  0.6296820E-005  0.1709691E+03  0.7546771E-02  0.1209860E+00
         21   -1    0    0  501  502  0.00000000000E+00  0.00000000000E+00  0.10229039154E+03  0.10229039154E+03  0.00000000000E+00 0.  1.
         -2   -1    0    0    0  501 -0.00000000000E+00 -0.00000000000E+00 -0.39851925033E+03  0.39851925033E+03  0.00000000000E+00 0.  1.
        -24    2    1    2    0    0  0.13214615779E+02  0.98423702702E+01 -0.92268047078E+02  0.12394942311E+03  0.81108375990E+02 0.  0.
         23    2    1    2    0    0  0.11657450436E+03  0.68210762725E+02 -0.91176981688E+02  0.18802775441E+03  0.93802298597E+02 0.  0.
         13    1    3    3    0    0 -0.13034369188E+02 -0.15438791188E+02  0.43661415536E+01  0.20671580625E+02  0.00000000000E+00 0. -1.
        -14    1    3    3    0    0  0.26248984967E+02  0.25281161459E+02 -0.96634188632E+02  0.10327784249E+03  0.00000000000E+00 0.  1.
        -13    1    4    4    0    0  0.44982340323E+02  0.29028924662E+02 -0.91963254534E+02  0.10641113472E+03  0.00000000000E+00 0. -1.
         13    1    4    4    0    0  0.71592164032E+02  0.39181838063E+02  0.78627284630E+00  0.81616619691E+02  0.00000000000E+00 0.  1.
         -1    1    1    2    0  502 -0.12978912013E+03 -0.78053132995E+02 -0.11278383003E+03  0.18883246435E+03  0.00000000000E+00 0.  1.
<scales pt_clust_5="13000.00000" pt_clust_6="13000.00000" pt_clust_7="13000.00000" pt_clust_8="13000.00000" pt_clust_9="142.93907"></scales>
<clustering>
<clus scale="   81.108">  5  6 -1 -1</clus>
<clus scale="   82.765">  2  5  1 -1</clus>
<clus scale="   93.802">  7  8 -1 -1</clus>
<clus scale="  142.939">  1  9  2 -1</clus>
<clus scale="  142.939">  1  5  2 -1</clus>
</clustering>
</event>
<event>
 9    1  0.6296820E-005  0.1253431E+03  0.7546771E-02  0.1237393E+00
          1   -1    0    0  502    0 -0.00000000000E+00  0.00000000000E+00  0.22049121891E+03  0.22049121891E+03  0.00000000000E+00 0. -1.
         21   -1    0    0  501  502  0.00000000000E+00 -0.00000000000E+00 -0.17174567634E+03  0.17174567634E+03  0.00000000000E+00 0. -1.
        -24    2    1    2    0    0 -0.44454327035E+02 -0.77918901088E+02  0.12331237723E+03  0.17296384905E+03  0.81627252567E+02 0.  0.
         23    2    1    2    0    0  0.67264017716E+02  0.46752157303E+02  0.12972457029E+02  0.12359245520E+03  0.91632952851E+02 0.  0.
         13    1    3    3    0    0 -0.31285352307E+02 -0.63116686935E+02  0.13330537483E+03  0.15077404418E+03  0.00000000000E+00 0. -1.
        -14    1    3    3    0    0 -0.13168974728E+02 -0.14802214153E+02 -0.99929976032E+01  0.22189804873E+02  0.00000000000E+00 0.  1.
        -11    1    4    4    0    0 -0.11977690158E+01  0.27285610112E+02 -0.29904620035E+02  0.40499697150E+02  0.00000000000E+00 0.  1.
         11    1    4    4    0    0  0.68461786732E+02  0.19466547191E+02  0.42877077065E+02  0.83092758046E+02  0.00000000000E+00 0. -1.
          2    1    1    2  501    0 -0.22809690681E+02  0.31166743785E+02 -0.87539291686E+02  0.95680591010E+02  0.00000000000E+00 0. -1.
<scales pt_clust_5="13000.00000" pt_clust_6="13000.00000" pt_clust_7="13000.00000" pt_clust_8="13000.00000" pt_clust_9="38.62186"></scales>
<clustering>
<clus scale="   38.622">  2  9  1 -1</clus>
<clus scale="   81.627">  5  6 -1 -1</clus>
<clus scale="   91.633">  7  8 -1 -1</clus>
<clus scale="  118.226">  1  5  2 -1</clus>
<clus scale="   38.622">  2  5  1 -1</clus>
</clustering>
</event>
<event>
 9    1  0.6296820E-005  0.9786705E+02  0.7546771E-02  0.1290773E+00
          1   -1    0    0  502    0 -0.00000000000E+00  0.00000000000E+00  0.25137606032E+03  0.25137606032E+03  0.00000000000E+00 0. -1.
         21   -1    0    0  501  502  0.00000000000E+00 -0.00000000000E+00 -0.10336935620E+03  0.10336935620E+03  0.00000000000E+00 0. -1.
        -24    2    1    2    0    0  0.22187572455E+02 -0.70193457391E+02  0.10763923227E+03  0.15312986234E+03  0.80269175802E+02 0.  0.
         23    2    1    2    0    0  0.25869617897E+02 -0.10032193590E+02  0.49608023288E+02  0.10764195996E+03  0.91410904882E+02 0.  0.
         11    1    3    3    0    0  0.17447831707E+02 -0.21846743487E+02  0.10014752685E+03  0.10397708482E+03  0.00000000000E+00 0. -1.
        -12    1    3    3    0    0  0.47397407480E+01 -0.48346713904E+02  0.74917054127E+01  0.49152777517E+02  0.00000000000E+00 0.  1.
        -13    1    4    4    0    0  0.54013752894E+02 -0.25089309520E+02  0.16826180331E+02  0.61887634455E+02  0.00000000000E+00 0. -1.
         13    1    4    4    0    0 -0.28144134997E+02  0.15057115930E+02  0.32781842957E+02  0.45754325506E+02  0.00000000000E+00 0.  1.
          2    1    1    2  501    0 -0.48057190352E+02  0.80225650981E+02 -0.92405514317E+01  0.93973594220E+02  0.00000000000E+00 0. -1.
<scales pt_clust_5="13000.00000" pt_clust_6="13000.00000" pt_clust_7="13000.00000" pt_clust_8="13000.00000" pt_clust_9="93.51817"></scales>
<clustering>
<clus scale="   80.269">  5  6 -1 -1</clus>
<clus scale="   91.411">  7  8 -1 -1</clus>
<clus scale="   93.518">  2  9  1 -1</clus>
<clus scale="   87.551">  1  5  2 -1</clus>
<clus scale="   93.518">  2  5  1 -1</clus>
</clustering>
</event>
<event>
 9    1  0.6296820E-005  0.1680562E+03  0.7546771E-02  0.1181232E+00
         -2   -1    0    0    0  501 -0.00000000000E+00  0.00000000000E+00  0.61371463290E+02  0.61371463290E+02  0.00000000000E+00 0.  1.
         21   -1    0    0  501  502  0.00000000000E+00 -0.00000000000E+00 -0.92831089216E+03  0.92831089216E+03  0.00000000000E+00 0. -1.
        -24    2    1    2    0    0 -0.13839258883E+03 -0.38141779921E+02 -0.87147164920E+02  0.18554694746E+03  0.78903341743E+02 0.  0.
         23    2    1    2    0    0  0.14069288426E+03  0.98472683186E+01 -0.62935100932E+03  0.65103922306E+03  0.88757651251E+02 0.  0.
         13    1    3    3    0    0 -0.19965703354E+02  0.19775333391E+02 -0.11071026946E+01  0.28123278570E+02  0.00000000000E+00 0. -1.
        -14    1    3    3    0    0 -0.11842688548E+03 -0.57917113312E+02 -0.86040062226E+02  0.15742366889E+03  0.00000000000E+00 0.  1.
        -13    1    4    4    0    0  0.41011845009E+02  0.28305122955E+02 -0.96246193029E+02  0.10838118420E+03  0.00000000000E+00 0.  1.
         13    1    4    4    0    0  0.99681039254E+02 -0.18457854637E+02 -0.53310481629E+03  0.54265803886E+03  0.00000000000E+00 0. -1.
         -1    1    1    2    0  502 -0.23002954296E+01  0.28294511603E+02 -0.15044125462E+03  0.15309618492E+03  0.00000000000E+00 0.  1.
<scales pt_clust_5="13000.00000" pt_clust_6="13000.00000" pt_clust_7="13000.00000" pt_clust_8="13000.00000" pt_clust_9="28.38786"></scales>
<clustering>
<clus scale="   28.388">  2  9  1 -1</clus>
<clus scale="   78.903">  5  6 -1 -1</clus>
<clus scale="   88.758">  7  8 -1 -1</clus>
<clus scale="  163.067">  1  5  2 -1</clus>
<clus scale="   28.388">  2  5  1 -1</clus>
</clustering>
</event>
<event>
 9    1  0.6296820E-005  0.1099376E+03  0.7546771E-02  0.1266254E+00
          1   -1    0    0  502    0 -0.00000000000E+00  0.00000000000E+00  0.11119857148E+04  0.11119857148E+04  0.00000000000E+00 0. -1.
         21   -1    0    0  501  502  0.00000000000E+00 -0.00000000000E+00 -0.26804359564E+02  0.26804359564E+02  0.00000000000E+00 0.  1.
        -24    2    1    2    0    0  0.19264393032E+02  0.61908177387E+02  0.83374487922E+03  0.83992280491E+03  0.78332977201E+02 0.  0.
         23    2    1    2    0    0 -0.50579743364E+02 -0.16986970367E+02  0.15762829002E+03  0.19024617681E+03  0.92195782844E+02 0.  0.
         11    1    3    3    0    0 -0.21334701802E+02  0.12714460078E+01  0.85613044158E+02  0.88240463541E+02  0.00000000000E+00 0. -1.
        -12    1    3    3    0    0  0.40599094834E+02  0.60636731379E+02  0.74813183506E+03  0.75168234137E+03  0.00000000000E+00 0.  1.
        -13    1    4    4    0    0 -0.22557064046E+02  0.25361083618E+02  0.11970134934E+02  0.35990135190E+02  0.00000000000E+00 0.  1.
         13    1    4    4    0    0 -0.28022679318E+02 -0.42348053985E+02  0.14565815509E+03  0.15425604162E+03  0.00000000000E+00 0. -1.
          2    1    1    2  501    0  0.31315350332E+02 -0.44921207020E+02  0.93808185958E+02  0.10862109261E+03  0.00000000000E+00 0. -1.
<scales pt_clust_5="13000.00000" pt_clust_6="13000.00000" pt_clust_7="13000.00000" pt_clust_8="13000.00000" pt_clust_9="54.75916"></scales>
<clustering>
<clus scale="   54.759">  2  9  1 -1</clus>
<clus scale="   78.333">  5  6 -1 -1</clus>
<clus scale="   92.196">  7  8 -1 -1</clus>
<clus scale="   98.602">  1  5  2 -1</clus>
<clus scale="   54.759">  2  5  1 -1</clus>
</clustering>
</event>
<event>
 9    1  0.6296820E-005  0.8977519E+02  0.7546771E-02  0.1305782E+00
         21   -1    0    0  501  502  0.00000000000E+00  0.00000000000E+00  0.16372840833E+03  0.16372840833E+03  0.00000000000E+00 0. -1.
          1   -1    0    0  502    0 -0.00000000000E+00 -0.00000000000E+00 -0.12514163612E+03  0.12514163612E+03  0.00000000000E+00 0. -1.
        -24    2    1    2    0    0  0.26592993846E+02 -0.17809574850E+02 -0.87247043314E+02  0.12319195967E+03  0.80869302469E+02 0.  0.
         23    2    1    2    0    0 -0.11507814823E+02  0.37589397840E+01  0.90008262053E+02  0.12434464489E+03  0.84932585301E+02 0.  0.
         13    1    3    3    0    0  0.25097677459E+02  0.53888795767E+01 -0.95217467426E+02  0.98616933332E+02  0.00000000000E+00 0. -1.
        -14    1    3    3    0    0  0.14953163871E+01 -0.23198454427E+02  0.79704241117E+01  0.24575026336E+02  0.00000000000E+00 0.  1.
        -13    1    4    4    0    0 -0.76322521850E+01  0.37825202679E+02  0.79687955127E+02  0.88539072864E+02  0.00000000000E+00 0.  1.
         13    1    4    4    0    0 -0.38755626382E+01 -0.34066262896E+02  0.10320306926E+02  0.35805572031E+02  0.00000000000E+00 0. -1.
          2    1    1    2  501    0 -0.15085179023E+02  0.14050635066E+02  0.35825553464E+02  0.41333439887E+02  0.00000000000E+00 0. -1.
<scales pt_clust_5="13000.00000" pt_clust_6="13000.00000" pt_clust_7="13000.00000" pt_clust_8="13000.00000" pt_clust_9="20.61512"></scales>
<clustering>
<clus scale="   20.615">  1  9  2 -1</clus>
<clus scale="   80.869">  5  6 -1 -1</clus>
<clus scale="   84.933">  7  8 -1 -1</clus>
<clus scale="   85.941">  2  5  1 -1</clus>
<clus scale="   20.615">  1  5  2 -1</clus>
</clustering>
</event>
<event>
 9    1  0.6296820E-005  0.1050569E+03  0.7546771E-02  0.1275511E+00
         21   -1    0    0  501  502  0.00000000000E+00  0.00000000000E+00  0.34880303876E+02  0.34880303876E+02  0.00000000000E+00 0. -1.
          3   -1    0    0  502    0 -0.00000000000E+00 -0.00000000000E+00 -0.63953686180E+03  0.63953686180E+03  0.00000000000E+00 0. -1.
         23    2    1    2    0    0 -0.59225560479E+02 -0.24415888112E+02 -0.24898767097E+03  0.27309767011E+03  0.92106864658E+02 0.  0.
        -24    2    1    2    0    0  0.37725177364E+02 -0.49170402632E+02 -0.14189877832E+03  0.17421848719E+03  0.79849235994E+02 0.  0.
         11    1    4    4    0    0  0.34032906414E+02 -0.26976527313E+02 -0.15931620566E+02  0.46257845591E+02  0.00000000000E+00 0. -1.
        -12    1    4    4    0    0  0.36922709500E+01 -0.22193875319E+02 -0.12596715775E+03  0.12796064160E+03  0.00000000000E+00 0.  1.
        -11    1    3    3    0    0  0.11850623208E+02  0.21874840394E+02 -0.83660298122E+02  0.87281105598E+02  0.00000000000E+00 0.  1.
         11    1    3    3    0    0 -0.71076183688E+02 -0.46290728507E+02 -0.16532737285E+03  0.18581656451E+03  0.00000000000E+00 0. -1.
          4    1    1    2  501    0  0.21500383116E+02  0.73586290744E+02 -0.21377010862E+03  0.22710100837E+03  0.00000000000E+00 0. -1.
<scales pt_clust_5="13000.00000" pt_clust_6="13000.00000" pt_clust_7="13000.00000" pt_clust_8="13000.00000" pt_clust_9="76.66299"></scales>
<clustering>
<clus scale="   76.663">  1  9  2 -1</clus>
<clus scale="   79.849">  5  6 -1 -1</clus>
<clus scale="   92.107">  7  8 -1 -1</clus>
<clus scale="   94.494">  1  5  2 -1</clus>
<clus scale="   76.663">  1  5  2 -1</clus>
</clustering>
</event>
<event>
 9    1  0.6296820E-005  0.1249851E+03  0.7546771E-02  0.1249661E+00
         21   -1    0    0  501  502  0.00000000000E+00  0.00000000000E+00  0.13548313735E+03  0.13548313735E+03  0.00000000000E+00 0. -1.
          1   -1    0    0  502    0 -0.00000000000E+00 -0.00000000000E+00 -0.34243828239E+03  0.34243828239E+03  0.00000000000E+00 0. -1.
         23    2    1    2    0    0 -0.23051751891E+02  0.77532828545E+01 -0.22181266360E+03  0.24055097418E+03  0.89846629254E+02 0.  0.
        -24    2    1    2    0    0 -0.34522975831E+02  0.76013315663E+02 -0.39778392081E+02  0.12197211355E+03  0.79529969129E+02 0.  0.
         13    1    4    4    0    0 -0.53851243278E+02  0.34143239586E+02 -0.41057783401E+02  0.75838372806E+02  0.00000000000E+00 0. -1.
        -14    1    4    4    0    0  0.19328267447E+02  0.41870076077E+02  0.12793913197E+01  0.46133740747E+02  0.00000000000E+00 0.  1.
        -11    1    3    3    0    0 -0.45308863934E+01  0.39153870124E+02 -0.44140058424E+02  0.59176847119E+02  0.00000000000E+00 0.  1.
         11    1    3    3    0    0 -0.18520865497E+02 -0.31400587270E+02 -0.17767260517E+03  0.18137412706E+03  0.00000000000E+00 0. -1.
          2    1    1    2  501    0  0.57574727722E+02 -0.83766598517E+02  0.54635910637E+02  0.11539833201E+03  0.00000000000E+00 0. -1.
<scales pt_clust_5="13000.00000" pt_clust_6="13000.00000" pt_clust_7="13000.00000" pt_clust_8="13000.00000" pt_clust_9="96.41706"></scales>
<clustering>
<clus scale="   79.530">  5  6 -1 -1</clus>
<clus scale="   89.847">  7  8 -1 -1</clus>
<clus scale="   93.080">  2  7  1 -1</clus>
<clus scale="   96.417">  1  9  2 -1</clus>
<clus scale="   96.417">  1  5  2 -1</clus>
</clustering>
</event>
<event>
 9    1  0.6296820E-005  0.1312729E+03  0.7546771E-02  0.1248609E+00
          1   -1    0    0  502    0 -0.00000000000E+00  0.00000000000E+00  0.37646354730E+02  0.37646354730E+02  0.00000000000E+00 0. -1.
         21   -1    0    0  501  502  0.00000000000E+00 -0.00000000000E+00 -0.68013357376E+03  0.68013357376E+03  0.00000000000E+00 0. -1.
        -24    2    1    2    0    0 -0.55931423546E+01 -0.11747863593E+02 -0.25516969304E+03  0.26803538707E+03  0.81006795621E+02 0.  0.
         23    2    1    2    0    0 -0.56745729485E+02  0.80446283344E+02 -0.25895333009E+03  0.29136848702E+03  0.90261208408E+02 0.  0.
         13    1    3    3    0    0 -0.71932009810E-01 -0.46593658663E+02 -0.13657837688E+03  0.14430740533E+03  0.00000000000E+00 0. -1.
        -14    1    3    3    0    0 -0.55212103448E+01  0.34845795070E+02 -0.11859131616E+03  0.12372798174E+03  0.00000000000E+00 0.  1.
        -11    1    4    4    0    0 -0.20122649739E+02  0.89395470244E+02 -0.14683066922E+03  0.17307719826E+03  0.00000000000E+00 0. -1.
         11    1    4    4    0    0 -0.36623079746E+02 -0.89491868994E+01 -0.11212266087E+03  0.11829128876E+03  0.00000000000E+00 0.  1.
          2    1    1    2  501    0  0.62338871840E+02 -0.68698419751E+02 -0.12836419590E+03  0.15837605440E+03  0.00000000000E+00 0. -1.
<scales pt_clust_5="13000.00000" pt_clust_6="13000.00000" pt_clust_7="13000.00000" pt_clust_8="13000.00000" pt_clust_9="95.31782"></scales>
<clustering>
<clus scale="   81.007">  5  6 -1 -1</clus>
<clus scale="   82.045">  1  5  2 -1</clus>
<clus scale="   90.261">  7  8 -1 -1</clus>
<clus scale="   95.318">  2  9  1 -1</clus>
<clus scale="   95.318">  2  5  1 -1</clus>
</clustering>
</event>
<event>
 9    1  0.6296820E-005  0.1025721E+03  0.7546771E-02  0.1277563E+00
         -2   -1    0    0    0  501 -0.00000000000E+00  0.00000000000E+00  0.44437165075E+03  0.44437165075E+03  0.00000000000E+00 0.  1.
         21   -1    0    0  501  502  0.00000000000E+00 -0.00000000000E+00 -0.19285598253E+03  0.19285598253E+03  0.00000000000E+00 0.  1.
         23    2    1    2    0    0 -0.23340138355E+01 -0.54992279536E+02  0.28979965411E+03  0.30422080691E+03  0.74410089401E+02 0.  0.
        -24    2    1    2    0    0  0.90055065515E+01  0.92287038793E+02  0.11905325869E+03  0.17117229229E+03  0.80797763370E+02 0.  0.
         13    1    4    4    0    0 -0.19734427654E+02  0.92106652310E+02  0.89100161068E+02  0.12966079491E+03  0.00000000000E+00 0. -1.
        -14    1    4    4    0    0  0.28739934206E+02  0.18038648272E+00  0.29953097626E+02  0.41511497381E+02  0.00000000000E+00 0.  1.
        -13    1    3    3    0    0 -0.32851085071E+02 -0.49597544789E+02  0.21898682213E+03  0.22692364026E+03  0.00000000000E+00 0.  1.
         13    1    3    3    0    0  0.30517071236E+02 -0.53947347465E+01  0.70812831982E+02  0.77297166656E+02  0.00000000000E+00 0. -1.
         -1    1    1    2    0  502 -0.66714927160E+01 -0.37294759257E+02 -0.15733724459E+03  0.16183453407E+03  0.00000000000E+00 0.  1.
<scales pt_clust_5="13000.00000" pt_clust_6="13000.00000" pt_clust_7="13000.00000" pt_clust_8="13000.00000" pt_clust_9="37.88678"></scales>
<clustering>
<clus scale="   37.887">  2  9  1 -1</clus>
<clus scale="   74.410">  7  8 -1 -1</clus>
<clus scale="   80.798">  5  6 -1 -1</clus>
<clus scale="   97.620">  1  7  2 -1</clus>
<clus scale="   37.887">  2  5  1 -1</clus>
</clustering>
</event>
<event>
 9    1  0.6296820E-005  0.2499960E+03  0.7546771E-02  0.1142347E+00
         21   -1    0    0  501  502  0.00000000000E+00  0.00000000000E+00  0.27308355902E+03  0.27308355902E+03  0.00000000000E+00 0.  1.
          3   -1    0    0  502    0 -0.00000000000E+00 -0.00000000000E+00 -0.43596561095E+03  0.43596561095E+03  0.00000000000E+00 0. -1.
         23    2    1    2    0    0  0.60927319911E+02 -0.54600096461E+02 -0.13656603192E+03  0.18322888619E+03  0.90715130023E+02 0.  0.
        -24    2    1    2    0    0  0.43271770487E+02  0.25824131748E+03 -0.89973633217E+02  0.28837662929E+03  0.80652349435E+02 0.  0.
         11    1    4    4    0    0  0.24305440256E+02  0.56519733418E+02 -0.55490627003E+02  0.82851942505E+02  0.00000000000E+00 0. -1.
        -12    1    4    4    0    0  0.18966330231E+02  0.20172158406E+03 -0.34483006213E+02  0.20552468678E+03  0.00000000000E+00 0.  1.
        -11    1    3    3    0    0  0.25683897779E+02 -0.75896723384E+02 -0.79645660636E+02  0.11297524722E+03  0.00000000000E+00 0. -1.
         11    1    3    3    0    0  0.35243422132E+02  0.21296626923E+02 -0.56920371285E+02  0.70253638974E+02  0.00000000000E+00 0.  1.
          4    1    1    2  501    0 -0.10419909040E+03 -0.20364122102E+03  0.63657613202E+02  0.23744365449E+03  0.00000000000E+00 0. -1.
<scales pt_clust_5="13000.00000" pt_clust_6="13000.00000" pt_clust_7="13000.00000" pt_clust_8="13000.00000" pt_clust_9="236.62881"></scales>
<clustering>
<clus scale="   80.652">  5  6 -1 -1</clus>
<clus scale="   90.715">  7  8 -1 -1</clus>
<clus scale="  122.158">  2  7  1 -1</clus>
<clus scale="  236.629">  1  9  2 -1</clus>
<clus scale="  236.629">  1  5  2 -1</clus>
</clustering>
</event>
<event>
 9    1  0.6296820E-005  0.1456230E+03  0.7546771E-02  0.1227188E+00
         -2   -1    0    0    0  501 -0.00000000000E+00  0.00000000000E+00  0.10747926506E+03  0.10747926506E+03  0.00000000000E+00 0.  1.
         21   -1    0    0  501  502  0.00000000000E+00 -0.00000000000E+00 -0.47510294333E+03  0.47510294333E+03  0.00000000000E+00 0.  1.
        -24    2    1    2    0    0 -0.36847751625E+02  0.26322715092E+02 -0.73129035982E+02  0.11831070240E+03  0.81233763113E+02 0.  0.
         23    2    1    2    0    0 -0.81692628759E+02 -0.31433034759E+02  0.20664824519E+02  0.12751725335E+03  0.90398526882E+02 0.  0.
         11    1    3    3    0    0 -0.81338744520E+01  0.29952507356E+02 -0.82293615990E+02  0.87951986010E+02  0.00000000000E+00 0. -1.
        -12    1    3    3    0    0 -0.28713877173E+02 -0.36297922640E+01  0.91645800081E+01  0.30358716391E+02  0.00000000000E+00 0.  1.
        -13    1    4    4    0    0 -0.49881510351E+02 -0.13374283909E+02  0.56335449842E+02  0.76424599795E+02  0.00000000000E+00 0. -1.
         13    1    4    4    0    0 -0.31811118408E+02 -0.18058750850E+02 -0.35670625322E+02  0.51092653557E+02  0.00000000000E+00 0.  1.
         -1    1    1    2    0  502  0.11854038038E+03  0.51103196668E+01 -0.31515946681E+03  0.33675425264E+03  0.00000000000E+00 0.  1.
<scales pt_clust_5="13000.00000" pt_clust_6="13000.00000" pt_clust_7="13000.00000" pt_clust_8="13000.00000" pt_clust_9="114.16729"></scales>
<clustering>
<clus scale="   81.234">  5  6 -1 -1</clus>
<clus scale="   90.399">  7  8 -1 -1</clus>
<clus scale="   93.003">  1  5  2 -1</clus>
<clus scale="  114.167">  2  9  1 -1</clus>
<clus scale="  114.167">  2  5  1 -1</clus>
</clustering>
</event>
<event>
 9    1  0.6296820E-005  0.9189375E+02  0.7546771E-02  0.1307228E+00
          1   -1    0    0  502    0 -0.00000000000E+00  0.00000000000E+00  0.83457884331E+03  0.83457884331E+03  0.00000000000E+00 0. -1.
         21   -1    0    0  501  502  0.00000000000E+00 -0.00000000000E+00 -0.45518836108E+02  0.45518836108E+02  0.00000000000E+00 0. -1.
        -24    2    1    2    0    0  0.34804665428E+02  0.13398546019E+02  0.57011376937E+03  0.57607086183E+03  0.73736300788E+02 0.  0.
         23    2    1    2    0    0  0.11444701293E+02 -0.93334172636E+01  0.23767484194E+03  0.25396395905E+03  0.88262495655E+02 0.  0.
         11    1    3    3    0    0  0.56894861020E+02  0.56066676122E+01  0.34058911933E+03  0.34535403304E+03  0.00000000000E+00 0. -1.
        -12    1    3    3    0    0 -0.22090195592E+02  0.77918784067E+01  0.22952465004E+03  0.23071682879E+03  0.00000000000E+00 0.  1.
        -11    1    4    4    0    0 -0.46823826828E+01  0.29944550698E+02  0.32490106673E+02  0.44432058873E+02  0.00000000000E+00 0. -1.
         11    1    4    4    0    0  0.16127083975E+02 -0.39277967962E+02  0.20518473527E+03  0.20953190018E+03  0.00000000000E+00 0.  1.
          2    1    1    2  501    0 -0.46249366720E+02 -0.40651287553E+01 -0.18728604104E+02  0.50062858543E+02  0.00000000000E+00 0. -1.
<scales pt_clust_5="13000.00000" pt_clust_6="13000.00000" pt_clust_7="13000.00000" pt_clust_8="13000.00000" pt_clust_9="46.42768"></scales>
<clustering>
<clus scale="   46.428">  2  9  1 -1</clus>
<clus scale="   73.736">  5  6 -1 -1</clus>
<clus scale="   78.046">  1  5  2 -1</clus>
<clus scale="   88.262">  7  8 -1 -1</clus>
<clus scale="   46.428">  2  5  1 -1</clus>
</clustering>
</event>
<event>
 9    1  0.6296820E-005  0.2230631E+03  0.7546771E-02  0.1159568E+00
         21   -1    0    0  501  502  0.00000000000E+00  0.00000000000E+00  0.16481950802E+04  0.16481950802E+04  0.00000000000E+00 0. -1.
          1   -1    0    0  502    0 -0.00000000000E+00 -0.00000000000E+00 -0.55292630798E+02  0.55292630798E+02  0.00000000000E+00 0. -1.
         23    2    1    2    0    0  0.70903891865E+02 -0.16475916876E+02  0.42205643065E+03  0.43729266776E+03  0.88286062912E+02 0.  0.
        -24    2    1    2    0    0  0.46435696766E+02  0.19390114473E+03  0.30057699218E+03  0.37030639550E+03  0.83823448123E+02 0.  0.
         11    1    4    4    0    0  0.34144069668E+01  0.16300237027E+03  0.21853824369E+03  0.27265435049E+03  0.00000000000E+00 0. -1.
        -12    1    4    4    0    0  0.43021289799E+02  0.30898774462E+02  0.82038748493E+02  0.97652045004E+02  0.00000000000E+00 0.  1.
        -11    1    3    3    0    0  0.66314344452E+01 -0.35341475146E+02  0.67661079014E+02  0.76622564573E+02  0.00000000000E+00 0. -1.
         11    1    3    3    0    0  0.64272457420E+02  0.18865558270E+02  0.35439535164E+03  0.36067010319E+03  0.00000000000E+00 0.  1.
          2    1    1    2  501    0 -0.11733958863E+03 -0.17742522786E+03  0.87026902658E+03  0.89588864775E+03  0.00000000000E+00 0. -1.
<scales pt_clust_5="13000.00000" pt_clust_6="13000.00000" pt_clust_7="13000.00000" pt_clust_8="13000.00000" pt_clust_9="206.71427"></scales>
<clustering>
<clus scale="   83.823">  5  6 -1 -1</clus>
<clus scale="   88.286">  7  8 -1 -1</clus>
<clus scale="  114.426">  2  7  1 -1</clus>
<clus scale="  206.714">  1  9  2 -1</clus>
<clus scale="  206.714">  1  5  2 -1</clus>
</clustering>
</event>
<event>
 9    1  0.6296820E-005  0.1198829E+03  0.7546771E-02  0.1254789E+00
         21   -1    0    0  501  502  0.00000000000E+00  0.00000000000E+00  0.16993297917E+03  0.16993297917E+03  0.00000000000E+00 0. -1.
          3   -1    0    0  502    0 -0.00000000000E+00 -0.00000000000E+00 -0.15332423872E+03  0.15332423872E+03  0.00000000000E+00 0. -1.
         23    2    1    2    0    0  0.18134203865E+02  0.21078236671E+02  0.39921746583E+02  0.10327111656E+03  0.91093557704E+02 0.  0.
        -24    2    1    2    0    0 -0.25960616056E+02  0.74700607598E+02 -0.46688459902E+02  0.12108589113E+03  0.78916705338E+02 0.  0.
         11    1    4    4    0    0 -0.18956847352E+02  0.91502590811E+02 -0.40682778029E+02  0.10191748925E+03  0.00000000000E+00 0. -1.
        -12    1    4    4    0    0 -0.70037687046E+01 -0.16801983213E+02 -0.60056818737E+01  0.19168401882E+02  0.00000000000E+00 0.  1.
        -13    1    3    3    0    0  0.13747646029E+02  0.48222644011E+02 -0.52193462386E+01  0.50414905949E+02  0.00000000000E+00 0.  1.
         13    1    3    3    0    0  0.43865578366E+01 -0.27144407339E+02  0.45141092821E+02  0.52856210615E+02  0.00000000000E+00 0. -1.
          4    1    1    2  501    0  0.78264121909E+01 -0.95778844269E+02  0.23375453774E+02  0.98900210194E+02  0.00000000000E+00 0. -1.
<scales pt_clust_5="13000.00000" pt_clust_6="13000.00000" pt_clust_7="13000.00000" pt_clust_8="13000.00000" pt_clust_9="90.24452"></scales>
<clustering>
<clus scale="   78.917">  5  6 -1 -1</clus>
<clus scale="   91.094">  7  8 -1 -1</clus>
<clus scale="   95.243">  2  7  1 -1</clus>
<clus scale="   90.245">  1  9  2 -1</clus>
<clus scale="   90.245">  1  5  2 -1</clus>
</clustering>
</event>
<event>
 9    1  0.6296820E-005  0.1387290E+03  0.7546771E-02  0.1224492E+00
         21   -1    0    0  501  502  0.00000000000E+00  0.00000000000E+00  0.19772976410E+03  0.19772976410E+03  0.00000000000E+00 0. -1.
          3   -1    0    0  502    0 -0.00000000000E+00 -0.00000000000E+00 -0.23186099866E+03  0.23186099866E+03  0.00000000000E+00 0. -1.
        -24    2    1    2    0    0  0.68295394264E+02 -0.40802242716E+02 -0.13443219465E+03  0.17599955246E+03  0.81084792780E+02 0.  0.
         23    2    1    2    0    0 -0.94353571674E+02 -0.83139628639E+01  0.10775287795E+02  0.14820489117E+03  0.11347627274E+03 0.  0.
         13    1    3    3    0    0  0.71571071905E+02 -0.15654134088E+02 -0.52231234439E+02  0.89975397185E+02  0.00000000000E+00 0. -1.
        -14    1    3    3    0    0 -0.32756776413E+01 -0.25148108628E+02 -0.82200960208E+02  0.86024155274E+02  0.00000000000E+00 0.  1.
        -13    1    4    4    0    0 -0.37123253186E+02  0.49132835731E+02 -0.14506178130E+02  0.63266110027E+02  0.00000000000E+00 0.  1.
         13    1    4    4    0    0 -0.57230318488E+02 -0.57446798595E+02  0.25281465926E+02  0.84938781145E+02  0.00000000000E+00 0. -1.
          4    1    1    2  501    0  0.26058177410E+02  0.49116205580E+02  0.89525672295E+02  0.10538631913E+03  0.00000000000E+00 0. -1.
<scales pt_clust_5="13000.00000" pt_clust_6="13000.00000" pt_clust_7="13000.00000" pt_clust_8="13000.00000" pt_clust_9="55.60063"></scales>
<clustering>
<clus scale="   55.601">  1  9  2 -1</clus>
<clus scale="   81.085">  5  6 -1 -1</clus>
<clus scale="  113.476">  7  8 -1 -1</clus>
<clus scale="  113.770">  2  5  1 -1</clus>
<clus scale="   55.601">  1  5  2 -1</clus>
</clustering>
</event>
<event>
 9    1  0.6296820E-005  0.1611905E+03  0.7546771E-02  0.1210999E+00
          3   -1    0    0  502    0 -0.00000000000E+00  0.00000000000E+00  0.37207332055E+03  0.37207332055E+03  0.00000000000E+00 0. -1.
         21   -1    0    0  501  502  0.00000000000E+00 -0.00000000000E+00 -0.26709455623E+03  0.26709455623E+03  0.00000000000E+00 0. -1.
         23    2    1    2    0    0 -0.29453361264E+02  0.33338656165E+02 -0.14595627107E+03  0.17491053098E+03  0.85507276274E+02 0.  0.
        -24    2    1    2    0    0  0.13551101221E+03 -0.11141196410E+03  0.26883438455E+03  0.33135116297E+03  0.82132860143E+02 0.  0.
         11    1    4    4    0    0  0.89760382437E+02 -0.10981864861E+03  0.23477477298E+03  0.27429228181E+03  0.00000000000E+00 0. -1.
        -12    1    4    4    0    0  0.45750629769E+02 -0.15933154882E+01  0.34059611571E+02  0.57058881157E+02  0.00000000000E+00 0.  1.
        -11    1    3    3    0    0  0.24512945777E+02 -0.26764313205E+01 -0.15266079420E+02  0.29001740916E+02  0.00000000000E+00 0.  1.
         11    1    3    3    0    0 -0.53966307041E+02  0.36015087485E+02 -0.13069019165E+03  0.14590879006E+03  0.00000000000E+00 0. -1.
          4    1    1    2  501    0 -0.10605765094E+03  0.78073307932E+02 -0.17899349150E+02  0.13290618283E+03  0.00000000000E+00 0. -1.
<scales pt_clust_5="13000.00000" pt_clust_6="13000.00000" pt_clust_7="13000.00000" pt_clust_8="13000.00000" pt_clust_9="138.69600"></scales>
<clustering>
<clus scale="   82.133">  5  6 -1 -1</clus>
<clus scale="   85.507">  7  8 -1 -1</clus>
<clus scale="   96.387">  1  7  2 -1</clus>
<clus scale="  138.696">  2  9  1 -1</clus>
<clus scale="  138.696">  2  5  1 -1</clus>
</clustering>
</event>
<event>
 9    1  0.6296820E-005  0.1463096E+03  0.7546771E-02  0.1206638E+00
          1   -1    0    0  502    0 -0.00000000000E+00  0.00000000000E+00  0.22041734267E+03  0.22041734267E+03  0.00000000000E+00 0. -1.
         21   -1    0    0  501  502  0.00000000000E+00 -0.00000000000E+00 -0.18268731671E+03  0.18268731671E+03  0.00000000000E+00 0.  1.
        -24    2    1    2    0    0  0.13003005680E+02 -0.11156278550E+03  0.94235638027E+02  0.16816035310E+03  0.82354208227E+02 0.  0.
         23    2    1    2    0    0 -0.39522418671E+02  0.12122195774E+03 -0.98216071133E+02  0.18458220476E+03  0.90373718916E+02 0.  0.
         11    1    3    3    0    0  0.20210170566E+01 -0.12142145380E+03  0.71108068599E+02  0.14072530467E+03  0.00000000000E+00 0. -1.
        -12    1    3    3    0    0  0.10981988623E+02  0.98586682974E+01  0.23127569428E+02  0.27435048430E+02  0.00000000000E+00 0.  1.
        -11    1    4    4    0    0 -0.70950143690E+01  0.11587069826E+03 -0.97673415995E+02  0.15171174687E+03  0.00000000000E+00 0.  1.
         11    1    4    4    0    0 -0.32427404302E+02  0.53512594755E+01 -0.54265513770E+00  0.32870457897E+02  0.00000000000E+00 0. -1.
          2    1    1    2  501    0  0.26519412992E+02 -0.96591722335E+01  0.41710459072E+02  0.50362101521E+02  0.00000000000E+00 0. -1.
<scales pt_clust_5="13000.00000" pt_clust_6="13000.00000" pt_clust_7="13000.00000" pt_clust_8="13000.00000" pt_clust_9="28.22374"></scales>
<clustering>
<clus scale="   28.224">  2  9  1 -1</clus>
<clus scale="   82.354">  5  6 -1 -1</clus>
<clus scale="   90.374">  7  8 -1 -1</clus>
<clus scale="  141.497">  1  5  2 -1</clus>
<clus scale="   28.224">  2  5  1 -1</clus>
</clustering>
</event>
<event>
 9    1  0.6296820E-005  0.2379354E+03  0.7546771E-02  0.1145662E+00
          1   -1    0    0  502    0 -0.00000000000E+00  0.00000000000E+00  0.59957145061E+02  0.59957145061E+02  0.00000000000E+00 0. -1.
         21   -1    0    0  501  502  0.00000000000E+00 -0.00000000000E+00 -0.22572582279E+04  0.22572582279E+04  0.00000000000E+00 0. -1.
        -24    2    1    2    0    0  0.28879167567E+00  0.10376693681E+03 -0.74139340442E+03  0.75285676182E+03  0.79758780877E+02 0.  0.
         23    2    1    2    0    0 -0.40830296374E+02  0.13341962765E+03 -0.11428955070E+03  0.20133246297E+03  0.89469263459E+02 0.  0.
         11    1    3    3    0    0  0.54931949933E+01  0.11670110931E+03 -0.65251847171E+03  0.66289492382E+03  0.00000000000E+00 0. -1.
        -12    1    3    3    0    0 -0.52044033176E+01 -0.12934172499E+02 -0.88874932707E+02  0.89961837997E+02  0.00000000000E+00 0.  1.
        -13    1    4    4    0    0 -0.31937617468E+02  0.87464661944E+02 -0.18806326571E+02  0.94993454604E+02  0.00000000000E+00 0. -1.
         13    1    4    4    0    0 -0.88926789068E+01  0.45954965706E+02 -0.95483224129E+02  0.10633900837E+03  0.00000000000E+00 0.  1.
          2    1    1    2  501    0  0.40541504699E+02 -0.23718656446E+03 -0.13416181277E+04  0.13630261482E+04  0.00000000000E+00 0. -1.
<scales pt_clust_5="13000.00000" pt_clust_6="13000.00000" pt_clust_7="13000.00000" pt_clust_8="13000.00000" pt_clust_9="220.47335"></scales>
<clustering>
<clus scale="   79.759">  5  6 -1 -1</clus>
<clus scale="   89.469">  7  8 -1 -1</clus>
<clus scale="  130.878">  1  5  2 -1</clus>
<clus scale="  220.473">  2  9  1 -1</clus>
<clus scale="  220.473">  2  5  1 -1</clus>
</clustering>
</event>
<event>
 9    1  0.6296820E-005  0.9708203E+02  0.7546771E-02  0.1293227E+00
         21   -1    0    0  501  502  0.00000000000E+00  0.00000000000E+00  0.40946344387E+02  0.40946344387E+02  0.00000000000E+00 0.  1.
         -2   -1    0    0    0  501 -0.00000000000E+00 -0.00000000000E+00 -0.42516907274E+03  0.42516907274E+03  0.00000000000E+00 0.  1.
         23    2    1    2    0    0 -0.18382997450E+02 -0.31868452480E+02 -0.28999907093E+03  0.30663069558E+03  0.92570996950E+02 0.  0.
        -24    2    1    2    0    0 -0.21036431001E+02  0.20756882362E+02 -0.76209214488E+02  0.11474236483E+03  0.80526929159E+02 0.  0.
         13    1    4    4    0    0  0.26634236038E+02  0.26422803737E+02 -0.37847185087E+02  0.53291242298E+02  0.00000000000E+00 0. -1.
        -14    1    4    4    0    0 -0.47670667039E+02 -0.56659213747E+01 -0.38362029401E+02  0.61451122535E+02  0.00000000000E+00 0.  1.
        -11    1    3    3    0    0  0.30501483220E+02 -0.33045933733E+02 -0.19088280365E+03  0.19610869166E+03  0.00000000000E+00 0. -1.
         11    1    3    3    0    0 -0.48884480670E+02  0.11774812532E+01 -0.99116267280E+02  0.11052200393E+03  0.00000000000E+00 0.  1.
         -1    1    1    2    0  502  0.39419428452E+02  0.11111570118E+02 -0.18014442940E+02  0.44742356715E+02  0.00000000000E+00 0.  1.
<scales pt_clust_5="13000.00000" pt_clust_6="13000.00000" pt_clust_7="13000.00000" pt_clust_8="13000.00000" pt_clust_9="40.95557"></scales>
<clustering>
<clus scale="   40.956">  1  9  2 -1</clus>
<clus scale="   80.527">  5  6 -1 -1</clus>
<clus scale="   85.674">  1  5  2 -1</clus>
<clus scale="   92.571">  7  8 -1 -1</clus>
<clus scale="   40.956">  1  5  2 -1</clus>
</clustering>
</event>
<event>
 9    1  0.6296820E-005  0.1044528E+03  0.7546771E-02  0.1280714E+00
          1   -1    0    0  502    0 -0.00000000000E+00  0.00000000000E+00  0.49761339962E+03  0.49761339962E+03  0.00000000000E+00 0. -1.
         21   -1    0    0  501  502  0.00000000000E+00 -0.00000000000E+00 -0.89632179341E+02  0.89632179341E+02  0.00000000000E+00 0. -1.
        -24    2    1    2    0    0 -0.41810659625E+02  0.26250293673E+02  0.38098630880E+03  0.39057026208E+03  0.70408472161E+02 0.  0.
         23    2    1    2    0    0  0.61556621065E+02 -0.17619377651E+02  0.81572704758E+02  0.13799711630E+03  0.91046350173E+02 0.  0.
         13    1    3    3    0    0 -0.22920456509E+02  0.50261884149E+02  0.23234905692E+03  0.23882564472E+03  0.00000000000E+00 0. -1.
        -14    1    3    3    0    0 -0.18890203116E+02 -0.24011590477E+02  0.14863725188E+03  0.15174461736E+03  0.00000000000E+00 0.  1.
        -11    1    4    4    0    0  0.26164793344E+02 -0.54176673245E+02  0.48875751952E+02  0.77514820928E+02  0.00000000000E+00 0.  1.
         11    1    4    4    0    0  0.35391827721E+02  0.36557295594E+02  0.32696952805E+02  0.60482295371E+02  0.00000000000E+00 0. -1.
          2    1    1    2  501    0 -0.19745961440E+02 -0.86309160216E+01 -0.54577793278E+02  0.58678200583E+02  0.00000000000E+00 0. -1.
<scales pt_clust_5="13000.00000" pt_clust_6="13000.00000" pt_clust_7="13000.00000" pt_clust_8="13000.00000" pt_clust_9="21.54984"></scales>
<clustering>
<clus scale="   21.550">  2  9  1 -1</clus>
<clus scale="   70.408">  5  6 -1 -1</clus>
<clus scale="   87.053">  1  5  2 -1</clus>
<clus scale="   91.046">  7  8 -1 -1</clus>
<clus scale="   21.550">  2  5  1 -1</clus>
</clustering>
</event>
<event>
 9    1  0.6296820E-005  0.1021108E+03  0.7546771E-02  0.1278340E+00
         21   -1    0    0  501  502  0.00000000000E+00  0.00000000000E+00  0.98282288885E+03  0.98282288885E+03  0.00000000000E+00 0. -1.
          1   -1    0    0  502    0 -0.00000000000E+00 -0.00000000000E+00 -0.17993908556E+02  0.17993908556E+02  0.00000000000E+00 0. -1.
         23    2    1    2    0    0 -0.41377294846E+02  0.46326860786E+02  0.20347335940E+03  0.22955194605E+03  0.86223137209E+02 0.  0.
        -24    2    1    2    0    0  0.37307204523E+02 -0.13228900972E+02  0.55284251493E+03  0.56010198545E+03  0.80700411782E+02 0.  0.
         13    1    4    4    0    0  0.11781077091E+02 -0.31413674569E+02  0.87599360459E+02  0.93804374526E+02  0.00000000000E+00 0. -1.
        -14    1    4    4    0    0  0.25526127431E+02  0.18184773597E+02  0.46524315447E+03  0.46629761092E+03  0.00000000000E+00 0.  1.
        -13    1    3    3    0    0 -0.57850702978E+02  0.17680318847E+02  0.17748800412E+03  0.18751343716E+03  0.00000000000E+00 0.  1.
         13    1    3    3    0    0  0.16473408132E+02  0.28646541939E+02  0.25985355284E+02  0.42038508891E+02  0.00000000000E+00 0. -1.
          2    1    1    2  501    0  0.40700903234E+01 -0.33097959814E+02  0.20851310596E+03  0.21116286591E+03  0.00000000000E+00 0. -1.
<scales pt_clust_5="13000.00000" pt_clust_6="13000.00000" pt_clust_7="13000.00000" pt_clust_8="13000.00000" pt_clust_9="33.34727"></scales>
<clustering>
<clus scale="   33.347">  1  9  2 -1</clus>
<clus scale="   80.700">  5  6 -1 -1</clus>
<clus scale="   86.223">  7  8 -1 -1</clus>
<clus scale="   97.492">  1  5  2 -1</clus>
<clus scale="   33.347">  1  5  2 -1</clus>
</clustering>
</event>
<event>
 9    1  0.6296820E-005  0.2649535E+03  0.7546771E-02  0.1127951E+00
         21   -1    0    0  501  502  0.00000000000E+00  0.00000000000E+00  0.98141323186E+02  0.98141323186E+02  0.00000000000E+00 0. -1.
          1   -1    0    0  502    0 -0.00000000000E+00 -0.00000000000E+00 -0.12329786684E+04  0.12329786684E+04  0.00000000000E+00 0. -1.
         23    2    1    2    0    0 -0.68149358722E+01 -0.11306914898E+03 -0.35064140645E+03  0.37969280060E+03  0.91575930852E+02 0.  0.
        -24    2    1    2    0    0  0.19414516866E+03 -0.11713224648E+03 -0.32174619497E+03  0.40193190973E+03  0.81340865528E+02 0.  0.
         13    1    4    4    0    0  0.57849457858E+02 -0.52825016077E+01 -0.43686151046E+02  0.72683866098E+02  0.00000000000E+00 0. -1.
        -14    1    4    4    0    0  0.13629571080E+03 -0.11184974487E+03 -0.27806004392E+03  0.32924804363E+03  0.00000000000E+00 0.  1.
        -13    1    3    3    0    0 -0.44673417612E+02 -0.77435281567E+02 -0.26313859153E+03  0.27790979728E+03  0.00000000000E+00 0. -1.
         13    1    3    3    0    0  0.37858481740E+02 -0.35633867413E+02 -0.87502814916E+02  0.10178300332E+03  0.00000000000E+00 0.  1.
          2    1    1    2  501    0 -0.18733023279E+03  0.23020139546E+03 -0.46244974383E+03  0.54949528129E+03  0.00000000000E+00 0. -1.
<scales pt_clust_5="13000.00000" pt_clust_6="13000.00000" pt_clust_7="13000.00000" pt_clust_8="13000.00000" pt_clust_9="252.15889"></scales>
<clustering>
<clus scale="   81.341">  5  6 -1 -1</clus>
<clus scale="   91.576">  7  8 -1 -1</clus>
<clus scale="  145.661">  2  7  1 -1</clus>
<clus scale="  252.159">  1  9  2 -1</clus>
<clus scale="  252.159">  1  5  2 -1</clus>
</clustering>
</event>
<event>
 9    1  0.6296820E-005  0.1006476E+03  0.7546771E-02  0.1283027E+00
          1   -1    0    0  502    0 -0.00000000000E+00  0.00000000000E+00  0.28590047740E+03  0.28590047740E+03  0.00000000000E+00 0. -1.
         21   -1    0    0  501  502  0.00000000000E+00 -0.00000000000E+00 -0.18326299138E+03  0.18326299138E+03  0.00000000000E+00 0. -1.
         23    2    1    2    0    0 -0.50892502479E+02 -0.32838979971E+01  0.21848708945E+03  0.24160486192E+03  0.89640784533E+02 0.  0.
        -24    2    1    2    0    0 -0.18942550963E+02 -0.45522285847E+01 -0.13134827649E+03  0.15559647489E+03  0.81107029536E+02 0.  0.
         13    1    4    4    0    0 -0.46097328644E+02  0.15823009081E+02 -0.67124690470E+02  0.82952127129E+02  0.00000000000E+00 0. -1.
        -14    1    4    4    0    0  0.27154777680E+02 -0.20375237666E+02 -0.64223586022E+02  0.72644347766E+02  0.00000000000E+00 0.  1.
        -11    1    3    3    0    0  0.23584578305E+02  0.85008849839E+01  0.33514225099E+02  0.41853323205E+02  0.00000000000E+00 0.  1.
         11    1    3    3    0    0 -0.74477080784E+02 -0.11784782981E+02  0.18497286435E+03  0.19975153872E+03  0.00000000000E+00 0. -1.
          2    1    1    2  501    0  0.69835053442E+02  0.78361265818E+01  0.15498673059E+02  0.71962131956E+02  0.00000000000E+00 0. -1.
<scales pt_clust_5="13000.00000" pt_clust_6="13000.00000" pt_clust_7="13000.00000" pt_clust_8="13000.00000" pt_clust_9="70.27332"></scales>
<clustering>
<clus scale="   70.273">  2  9  1 -1</clus>
<clus scale="   81.107">  5  6 -1 -1</clus>
<clus scale="   89.641">  7  8 -1 -1</clus>
<clus scale="   93.128">  2  5  1 -1</clus>
<clus scale="   70.273">  2  5  1 -1</clus>
</clustering>
</event>
<event>
 9    1  0.6296820E-005  0.9827908E+02  0.7546771E-02  0.1289612E+00
         -4   -1    0    0    0  501 -0.00000000000E+00  0.00000000000E+00  0.35679996491E+03  0.35679996491E+03  0.00000000000E+00 0.  1.
         21   -1    0    0  501  502  0.00000000000E+00 -0.00000000000E+00 -0.72903692595E+02  0.72903692595E+02  0.00000000000E+00 0. -1.
        -24    2    1    2    0    0  0.10484721927E+01  0.34656687170E+02  0.22275254392E+03  0.23922550819E+03  0.80049751335E+02 0.  0.
         23    2    1    2    0    0  0.41629340570E+01 -0.58272498354E+02 -0.16372956714E+02  0.10927653748E+03  0.90886048701E+02 0.  0.
         13    1    3    3    0    0  0.24758099577E+02  0.51173568888E+02  0.12558318522E+03  0.13785076735E+03  0.00000000000E+00 0. -1.
        -14    1    3    3    0    0 -0.23709627384E+02 -0.16516881719E+02  0.97169358691E+02  0.10137474084E+03  0.00000000000E+00 0.  1.
        -13    1    4    4    0    0  0.33830671102E+02 -0.50668003428E+02 -0.37981748913E+02  0.71793970005E+02  0.00000000000E+00 0. -1.
         13    1    4    4    0    0 -0.29667737045E+02 -0.76044949260E+01  0.21608792199E+02  0.37482567478E+02  0.00000000000E+00 0.  1.
         -3    1    1    2    0  502 -0.52114062497E+01  0.23615811184E+02  0.77516685117E+02  0.81201611835E+02  0.00000000000E+00 0.  1.
<scales pt_clust_5="13000.00000" pt_clust_6="13000.00000" pt_clust_7="13000.00000" pt_clust_8="13000.00000" pt_clust_9="24.18400"></scales>
<clustering>
<clus scale="   24.184">  2  9  1 -1</clus>
<clus scale="   80.050">  5  6 -1 -1</clus>
<clus scale="   88.354">  1  5  2 -1</clus>
<clus scale="   90.886">  7  8 -1 -1</clus>
<clus scale="   24.184">  2  5  1 -1</clus>
</clustering>
</event>
<event>
 9    1  0.6296820E-005  0.1158496E+03  0.7546771E-02  0.1257162E+00
          1   -1    0    0  502    0 -0.00000000000E+00  0.00000000000E+00  0.12069073467E+03  0.12069073467E+03  0.00000000000E+00 0. -1.
         21   -1    0    0  501  502  0.00000000000E+00 -0.00000000000E+00 -0.44527774542E+03  0.44527774542E+03  0.00000000000E+00 0. -1.
         23    2    1    2    0    0  0.80106282573E+02 -0.23291908489E+02  0.70398778483E+02  0.13645574513E+03  0.81881944647E+02 0.  0.
        -24    2    1    2    0    0 -0.80717612714E+02 -0.37529865499E+02 -0.27686518307E+03  0.29665138048E+03  0.58513999467E+02 0.  0.
         11    1    4    4    0    0 -0.89745840360E+02 -0.37679180801E+02 -0.24844662261E+03  0.26683283309E+03  0.00000000000E+00 0. -1.
        -12    1    4    4    0    0  0.90282276463E+01  0.14931530216E+00 -0.28418560467E+02  0.29818547391E+02  0.00000000000E+00 0.  1.
        -13    1    3    3    0    0 -0.57857589952E+01 -0.28179596797E+02  0.70532322086E+01  0.29619466021E+02  0.00000000000E+00 0.  1.
         13    1    3    3    0    0  0.85892041569E+02  0.48876883072E+01  0.63345546275E+02  0.10683627911E+03  0.00000000000E+00 0. -1.
          2    1    1    2  501    0  0.61133014066E+00  0.60821773989E+02 -0.11812060616E+03  0.13286135448E+03  0.00000000000E+00 0. -1.
<scales pt_clust_5="13000.00000" pt_clust_6="13000.00000" pt_clust_7="13000.00000" pt_clust_8="13000.00000" pt_clust_9="60.82485"></scales>
<clustering>
<clus scale="   58.514">  5  6 -1 -1</clus>
<clus scale="   60.825">  2  9  1 -1</clus>
<clus scale="   81.882">  7  8 -1 -1</clus>
<clus scale="  100.699">  2  5  1 -1</clus>
<clus scale="   60.825">  2  5  1 -1</clus>
</clustering>
</event>
<event>
 9    1  0.6296820E-005  0.9404714E+02  0.7546771E-02  0.1300354E+00
         21   -1    0    0  501  502  0.00000000000E+00  0.00000000000E+00  0.33730903183E+02  0.33730903183E+02  0.00000000000E+00 0. -1.
          1   -1    0    0  502    0 -0.00000000000E+00 -0.00000000000E+00 -0.49409543348E+03  0.49409543348E+03  0.00000000000E+00 0. -1.
         23    2    1    2    0    0  0.23410980320E+01  0.19813715705E+02 -0.35131658896E+03  0.36351361870E+03  0.91218097066E+02 0.  0.
        -24    2    1    2    0    0 -0.34941333365E+02 -0.22422957875E+02 -0.87125259913E+02  0.12494029806E+03  0.79344699549E+02 0.  0.
         11    1    4    4    0    0 -0.33873636163E+02 -0.48486454221E+01  0.18218367728E+01  0.34267355873E+02  0.00000000000E+00 0. -1.
        -12    1    4    4    0    0 -0.10676972021E+01 -0.17574312453E+02 -0.88947096686E+02  0.90672942184E+02  0.00000000000E+00 0.  1.
        -11    1    3    3    0    0  0.27979422836E+02 -0.22335700105E+02 -0.78584781078E+02  0.86355656552E+02  0.00000000000E+00 0.  1.
         11    1    3    3    0    0 -0.25638324804E+02  0.42149415810E+02 -0.27273180788E+03  0.27715796215E+03  0.00000000000E+00 0. -1.
          2    1    1    2  501    0  0.32600235333E+02  0.26092421697E+01 -0.21922681428E+02  0.39372419909E+02  0.00000000000E+00 0. -1.
<scales pt_clust_5="13000.00000" pt_clust_6="13000.00000" pt_clust_7="13000.00000" pt_clust_8="13000.00000" pt_clust_9="32.70449"></scales>
<clustering>
<clus scale="   32.704">  1  9  2 -1</clus>
<clus scale="   79.345">  5  6 -1 -1</clus>
<clus scale="   82.582">  1  5  2 -1</clus>
<clus scale="   91.218">  7  8 -1 -1</clus>
<clus scale="   32.704">  1  5  2 -1</clus>
</clustering>
</event>
<event>
 9    1  0.6296820E-005  0.9351869E+02  0.7546771E-02  0.1298275E+00
         21   -1    0    0  501  502  0.00000000000E+00  0.00000000000E+00  0.36461523893E+02  0.36461523893E+02  0.00000000000E+00 0.  1.
         -2   -1    0    0    0  501 -0.00000000000E+00 -0.00000000000E+00 -0.10308627330E+04  0.10308627330E+04  0.00000000000E+00 0.  1.
        -24    2    1    2    0    0 -0.62298163748E+01 -0.15737022190E+02 -0.63886248842E+03  0.64443416676E+03  0.82847158634E+02 0.  0.
         23    2    1    2    0    0  0.28688346702E+02  0.47806775208E+02 -0.36721752831E+03  0.38203364406E+03  0.89400688521E+02 0.  0.
         11    1    3    3    0    0 -0.27417286780E+02 -0.40179472393E+02 -0.28750779859E+03  0.29159360738E+03  0.00000000000E+00 0. -1.
        -12    1    3    3    0    0  0.21187470405E+02  0.24442450203E+02 -0.35135468983E+03  0.35284055937E+03  0.00000000000E+00 0.  1.
        -11    1    4    4    0    0  0.34914660609E+01 -0.24966805402E+02 -0.55723686562E+02  0.61160943022E+02  0.00000000000E+00 0.  1.
         11    1    4    4    0    0  0.25196880641E+02  0.72773580610E+02 -0.31149384175E+03  0.32087270104E+03  0.00000000000E+00 0. -1.
         -1    1    1    2    0  502 -0.22458530327E+02 -0.32069753019E+02  0.11678807573E+02  0.40856446119E+02  0.00000000000E+00 0.  1.
<scales pt_clust_5="13000.00000" pt_clust_6="13000.00000" pt_clust_7="13000.00000" pt_clust_8="13000.00000" pt_clust_9="39.15169"></scales>
<clustering>
<clus scale="   39.152">  1  9  2 -1</clus>
<clus scale="   82.847">  5  6 -1 -1</clus>
<clus scale="   87.275">  2  5  1 -1</clus>
<clus scale="   89.401">  7  8 -1 -1</clus>
<clus scale="   39.152">  1  5  2 -1</clus>
</clustering>
</event>
<event>
 9    1  0.6296820E-005  0.9394732E+02  0.7546771E-02  0.1299020E+00
         21   -1    0    0  501  502  0.00000000000E+00  0.00000000000E+00  0.12381370201E+03  0.12381370201E+03  0.00000000000E+00 0.  1.
          1   -1    0    0  502    0 -0.00000000000E+00 -0.00000000000E+00 -0.27951802319E+03  0.27951802319E+03  0.00000000000E+00 0. -1.
         23    2    1    2    0    0 -0.26499345856E+02  0.41147240177E+01 -0.22347883602E+03  0.24262656972E+03  0.90585406671E+02 0.  0.
        -24    2    1    2    0    0  0.20126931911E+01 -0.67504340934E+01  0.94223136104E+02  0.12456552773E+03  0.81172359998E+02 0.  0.
         11    1    4    4    0    0  0.20056762586E+02  0.23773503264E+02  0.91862549782E+01  0.32432090025E+02  0.00000000000E+00 0. -1.
        -12    1    4    4    0    0 -0.18044069395E+02 -0.30523937357E+02  0.85036881126E+02  0.92133437707E+02  0.00000000000E+00 0.  1.
        -11    1    3    3    0    0 -0.16307304159E+02 -0.31765088496E+02 -0.18726681250E+03  0.19064052056E+03  0.00000000000E+00 0.  1.
         11    1    3    3    0    0 -0.10192041697E+02  0.35879812513E+02 -0.36212023520E+02  0.51986049161E+02  0.00000000000E+00 0. -1.
          2    1    1    2  501    0  0.24486652665E+02  0.26357100758E+01 -0.26448621275E+02  0.36139627747E+02  0.00000000000E+00 0. -1.
<scales pt_clust_5="13000.00000" pt_clust_6="13000.00000" pt_clust_7="13000.00000" pt_clust_8="13000.00000" pt_clust_9="24.62811"></scales>
<clustering>
<clus scale="   24.628">  1  9  2 -1</clus>
<clus scale="   81.172">  5  6 -1 -1</clus>
<clus scale="   84.908">  1  5  2 -1</clus>
<clus scale="   90.585">  7  8 -1 -1</clus>
<clus scale="   24.628">  1  5  2 -1</clus>
</clustering>
</event>
<event>
 9    1  0.6296820E-005  0.1496863E+03  0.7546771E-02  0.1205253E+00
          1   -1    0    0  502    0 -0.00000000000E+00  0.00000000000E+00  0.58080905449E+03  0.58080905449E+03  0.00000000000E+00 0. -1.
         21   -1    0    0  501  502  0.00000000000E+00 -0.00000000000E+00 -0.86942192362E+02  0.86942192362E+02  0.00000000000E+00 0. -1.
        -24    2    1    2    0    0  0.11067139427E+03 -0.42468341942E+02  0.34664884671E+03  0.37491238178E+03  0.79637638756E+02 0.  0.
         23    2    1    2    0    0 -0.59839357575E+02  0.40950736032E+02 -0.12686337673E+02  0.12504255635E+03  0.10107910882E+03 0.  0.
         13    1    3    3    0    0  0.10028414683E+03 -0.13918622169E+01  0.25124444724E+03  0.27052286346E+03  0.00000000000E+00 0. -1.
        -14    1    3    3    0    0  0.10387247442E+02 -0.41076479725E+02  0.95404399472E+02  0.10438951832E+03  0.00000000000E+00 0.  1.
        -13    1    4    4    0    0  0.25289692020E+02  0.26976675051E+02  0.39405467326E+01  0.37186522126E+02  0.00000000000E+00 0.  1.
         13    1    4    4    0    0 -0.85129049595E+02  0.13974060982E+02 -0.16626884406E+02  0.87856034228E+02  0.00000000000E+00 0. -1.
          2    1    1    2  501    0 -0.50832036699E+02  0.15176059100E+01  0.15990435309E+03  0.16779630872E+03  0.00000000000E+00 0. -1.
<scales pt_clust_5="13000.00000" pt_clust_6="13000.00000" pt_clust_7="13000.00000" pt_clust_8="13000.00000" pt_clust_9="50.85471"></scales>
<clustering>
<clus scale="   50.855">  2  9  1 -1</clus>
<clus scale="   79.638">  5  6 -1 -1</clus>
<clus scale="  101.079">  7  8 -1 -1</clus>
<clus scale="  136.129">  1  5  2 -1</clus>
<clus scale="   50.855">  2  5  1 -1</clus>
</clustering>
</event>
<event>
 9    1  0.6296820E-005  0.1043266E+03  0.7546771E-02  0.1275908E+00
         21   -1    0    0  501  502  0.00000000000E+00  0.00000000000E+00  0.10767562714E+03  0.10767562714E+03  0.00000000000E+00 0. -1.
         -2   -1    0    0    0  501 -0.00000000000E+00 -0.00000000000E+00 -0.18884375420E+03  0.18884375420E+03  0.00000000000E+00 0.  1.
        -24    2    1    2    0    0  0.48367025196E+02 -0.37066695848E+02 -0.11726226242E+03  0.15392026582E+03  0.78915784067E+02 0.  0.
         23    2    1    2    0    0 -0.26297231044E+02  0.26581347462E+02 -0.27831990232E+01  0.96681085586E+02  0.89114385595E+02 0.  0.
         13    1    3    3    0    0 -0.11818660482E+02 -0.34709581993E+02 -0.62780387960E+02  0.72703596404E+02  0.00000000000E+00 0. -1.
        -14    1    3    3    0    0  0.60185685679E+02 -0.23571138553E+01 -0.54481874457E+02  0.81216669414E+02  0.00000000000E+00 0.  1.
        -11    1    4    4    0    0 -0.49348998414E+02 -0.12476143260E+02 -0.57837657073E+01  0.51229188368E+02  0.00000000000E+00 0.  1.
         11    1    4    4    0    0  0.23051767370E+02  0.39057490722E+02  0.30005666841E+01  0.45451897219E+02  0.00000000000E+00 0. -1.
         -1    1    1    2    0  502 -0.22069794153E+02  0.10485348386E+02  0.38877334375E+02  0.45918029932E+02  0.00000000000E+00 0.  1.
<scales pt_clust_5="13000.00000" pt_clust_6="13000.00000" pt_clust_7="13000.00000" pt_clust_8="13000.00000" pt_clust_9="24.43396"></scales>
<clustering>
<clus scale="   24.434">  1  9  2 -1</clus>
<clus scale="   78.916">  5  6 -1 -1</clus>
<clus scale="   89.114">  7  8 -1 -1</clus>
<clus scale="   95.762">  2  5  1 -1</clus>
<clus scale="   24.434">  1  5  2 -1</clus>
</clustering>
</event>
<event>
 9    1  0.6296820E-005  0.9310248E+02  0.7546771E-02  0.1302149E+00
         21   -1    0    0  501  502  0.00000000000E+00  0.00000000000E+00  0.22039952187E+03  0.22039952187E+03  0.00000000000E+00 0. -1.
          1   -1    0    0  502    0 -0.00000000000E+00 -0.00000000000E+00 -0.31922853766E+03  0.31922853766E+03  0.00000000000E+00 0. -1.
         23    2    1    2    0    0  0.19180869753E+02  0.44097314075E+01 -0.26633335136E+03  0.28236315214E+03  0.91695933087E+02 0.  0.
        -24    2    1    2    0    0 -0.10194547105E+01  0.77906150692E+01 -0.69539438163E+01  0.81440060737E+02  0.80761334729E+02 0.  0.
         11    1    4    4    0    0  0.13184772446E+01  0.21774703907E+02  0.32710735287E+02  0.39317531910E+02  0.00000000000E+00 0. -1.
        -12    1    4    4    0    0 -0.23379319551E+01 -0.13984088838E+02 -0.39664679103E+02  0.42122528827E+02  0.00000000000E+00 0.  1.
        -13    1    3    3    0    0 -0.20960177921E+02 -0.12318457033E+02 -0.17998164745E+02  0.30249088852E+02  0.00000000000E+00 0.  1.
         13    1    3    3    0    0  0.40141047675E+02  0.16728188440E+02 -0.24833518662E+03  0.25211406329E+03  0.00000000000E+00 0. -1.
          2    1    1    2  501    0 -0.18161415043E+02 -0.12200346477E+02  0.17445827939E+03  0.17582484664E+03  0.00000000000E+00 0. -1.
<scales pt_clust_5="13000.00000" pt_clust_6="13000.00000" pt_clust_7="13000.00000" pt_clust_8="13000.00000" pt_clust_9="21.87888"></scales>
<clustering>
<clus scale="   21.879">  1  9  2 -1</clus>
<clus scale="   80.761">  5  6 -1 -1</clus>
<clus scale="   82.355">  1  5  2 -1</clus>
<clus scale="   91.696">  7  8 -1 -1</clus>
<clus scale="   21.879">  1  5  2 -1</clus>
</clustering>
</event>
<event>
 9    1  0.6296820E-005  0.2124987E+03  0.7546771E-02  0.1140380E+00
         21   -1    0    0  501  502  0.00000000000E+00  0.00000000000E+00  0.45599218668E+02  0.45599218668E+02  0.00000000000E+00 0.  1.
          1   -1    0    0  502    0 -0.00000000000E+00 -0.00000000000E+00 -0.14407327125E+04  0.14407327125E+04  0.00000000000E+00 0. -1.
         23    2    1    2    0    0  0.20950744736E+03  0.14052560705E+02 -0.74766053408E+03  0.78174523947E+03  0.89657683814E+02 0.  0.
        -24    2    1    2    0    0 -0.16327720267E+03 -0.77337810730E+02 -0.49956026725E+03  0.53719367213E+03  0.79849852109E+02 0.  0.
         11    1    4    4    0    0 -0.87127905568E+02 -0.21860312518E+01 -0.17588584499E+03  0.19629539253E+03  0.00000000000E+00 0. -1.
        -12    1    4    4    0    0 -0.76149297101E+02 -0.75151779478E+02 -0.32367442226E+03  0.34089827960E+03  0.00000000000E+00 0.  1.
        -13    1    3    3    0    0  0.13351954417E+03 -0.33273753085E+02 -0.49118452274E+03  0.51009493890E+03  0.00000000000E+00 0. -1.
         13    1    3    3    0    0  0.75987903190E+02  0.47326313790E+02 -0.25647601134E+03  0.27165030057E+03  0.00000000000E+00 0.  1.
          2    1    1    2  501    0 -0.46230244689E+02  0.63285250025E+02 -0.14791269254E+03  0.16739301959E+03  0.00000000000E+00 0. -1.
<scales pt_clust_5="13000.00000" pt_clust_6="13000.00000" pt_clust_7="13000.00000" pt_clust_8="13000.00000" pt_clust_9="78.37256"></scales>
<clustering>
<clus scale="   78.373">  1  9  2 -1</clus>
<clus scale="   79.850">  5  6 -1 -1</clus>
<clus scale="   89.658">  7  8 -1 -1</clus>
<clus scale="  208.550">  1  5  2 -1</clus>
<clus scale="   78.373">  1  5  2 -1</clus>
</clustering>
</event>
<event>
 9    1  0.6296820E-005  0.1001165E+03  0.7546771E-02  0.1285749E+00
          3   -1    0    0  502    0 -0.00000000000E+00  0.00000000000E+00  0.13903111653E+03  0.13903111653E+03  0.00000000000E+00 0. -1.
         21   -1    0    0  501  502  0.00000000000E+00 -0.00000000000E+00 -0.34967449239E+03  0.34967449239E+03  0.00000000000E+00 0.  1.
         23    2    1    2    0    0 -0.15010462864E+01 -0.31446297179E+02  0.83633443789E+02  0.12895046975E+03  0.92965305264E+02 0.  0.
        -24    2    1    2    0    0  0.40530206218E+02  0.54701858770E+02 -0.62235091172E+02  0.12330755466E+03  0.81832484341E+02 0.  0.
         13    1    4    4    0    0  0.58984726397E+02  0.13949837561E+02 -0.44460011976E+02  0.75169731814E+02  0.00000000000E+00 0. -1.
        -14    1    4    4    0    0 -0.18454520178E+02  0.40752021209E+02 -0.17775079195E+02  0.48137822843E+02  0.00000000000E+00 0.  1.
        -13    1    3    3    0    0  0.27905872127E+02 -0.17826971607E+02  0.90021948195E+02  0.95919183548E+02  0.00000000000E+00 0. -1.
         13    1    3    3    0    0 -0.29406918413E+02 -0.13619325572E+02 -0.63885044062E+01  0.33031286202E+02  0.00000000000E+00 0.  1.
          4    1    1    2  501    0 -0.39029159932E+02 -0.23255561591E+02 -0.23204172847E+03  0.23644758451E+03  0.00000000000E+00 0. -1.
<scales pt_clust_5="13000.00000" pt_clust_6="13000.00000" pt_clust_7="13000.00000" pt_clust_8="13000.00000" pt_clust_9="45.43233"></scales>
<clustering>
<clus scale="   45.432">  2  9  1 -1</clus>
<clus scale="   81.832">  5  6 -1 -1</clus>
<clus scale="   89.874">  2  5  1 -1</clus>
<clus scale="   92.965">  7  8 -1 -1</clus>
<clus scale="   45.432">  2  5  1 -1</clus>
</clustering>
</event>
<event>
 9    1  0.6296820E-005  0.9464363E+02  0.7546771E-02  0.1299378E+00
          1   -1    0    0  502    0 -0.00000000000E+00  0.00000000000E+00  0.71379932283E+03  0.71379932283E+03  0.00000000000E+00 0. -1.
         21   -1    0    0  501  502  0.00000000000E+00 -0.00000000000E+00 -0.23873130892E+02  0.23873130892E+02  0.00000000000E+00 0. -1.
        -24    2    1    2    0    0 -0.17647447667E+02 -0.83568138978E+01  0.46632419073E+03  0.47381351977E+03  0.81607180511E+02 0.  0.
         23    2    1    2    0    0 -0.10725279729E+02 -0.22965260463E+02  0.14431371022E+03  0.17401063352E+03  0.93865961924E+02 0.  0.
         13    1    3    3    0    0 -0.18140702965E+02  0.35563141902E+02  0.21272611079E+03  0.21643987705E+03  0.00000000000E+00 0. -1.
        -14    1    3    3    0    0  0.49325529787E+00 -0.43919955800E+02  0.25359807993E+03  0.25737364272E+03  0.00000000000E+00 0.  1.
        -13    1    4    4    0    0  0.37360842197E+01 -0.48345436235E+02  0.13485282918E+03  0.14330570493E+03  0.00000000000E+00 0.  1.
         13    1    4    4    0    0 -0.14461363948E+02  0.25380175772E+02  0.94608810445E+01  0.30704928588E+02  0.00000000000E+00 0. -1.
          2    1    1    2  501    0  0.28372727396E+02  0.31322074360E+02  0.79288290994E+02  0.89848300434E+02  0.00000000000E+00 0. -1.
<scales pt_clust_5="13000.00000" pt_clust_6="13000.00000" pt_clust_7="13000.00000" pt_clust_8="13000.00000" pt_clust_9="42.26209"></scales>
<clustering>
<clus scale="   42.262">  2  9  1 -1</clus>
<clus scale="   81.607">  5  6 -1 -1</clus>
<clus scale="   82.500">  1  5  2 -1</clus>
<clus scale="   93.866">  7  8 -1 -1</clus>
<clus scale="   42.262">  2  5  1 -1</clus>
</clustering>
</event>
<event>
 9    1  0.6296820E-005  0.1758583E+03  0.7546771E-02  0.1174024E+00
         21   -1    0    0  501  502  0.00000000000E+00  0.00000000000E+00  0.26643980551E+02  0.26643980551E+02  0.00000000000E+00 0.  1.
         -2   -1    0    0    0  501 -0.00000000000E+00 -0.00000000000E+00 -0.15115003916E+04  0.15115003916E+04  0.00000000000E+00 0.  1.
        -24    2    1    2    0    0  0.63109087790E+01  0.15095172238E+03 -0.82739933104E+03  0.84475813706E+03  0.78742663541E+02 0.  0.
         23    2    1    2    0    0  0.36074373669E+02 -0.14201520128E+03 -0.56209778155E+03  0.58864956826E+03  0.95313799395E+02 0.  0.
         11    1    3    3    0    0 -0.36029624284E+02  0.63781891231E+02 -0.33564018026E+03  0.34354125528E+03  0.00000000000E+00 0. -1.
        -12    1    3    3    0    0  0.42340533063E+02  0.87169831145E+02 -0.49175915078E+03  0.50121688178E+03  0.00000000000E+00 0.  1.
        -13    1    4    4    0    0  0.14920329230E+02 -0.61809590372E+02 -0.95468694090E+02  0.11470533221E+03  0.00000000000E+00 0.  1.
         13    1    4    4    0    0  0.21154044438E+02 -0.80205610904E+02 -0.46662908746E+03  0.47394423605E+03  0.00000000000E+00 0. -1.
         -1    1    1    2    0  502 -0.42385282448E+02 -0.89365211004E+01 -0.95359298437E+02  0.10473666682E+03  0.00000000000E+00 0.  1.
<scales pt_clust_5="13000.00000" pt_clust_6="13000.00000" pt_clust_7="13000.00000" pt_clust_8="13000.00000" pt_clust_9="43.31713"></scales>
<clustering>
<clus scale="   43.317">  1  9  2 -1</clus>
<clus scale="   78.743">  5  6 -1 -1</clus>
<clus scale="   95.314">  7  8 -1 -1</clus>
<clus scale="  167.457">  2  5  1 -1</clus>
<clus scale="   43.317">  1  5  2 -1</clus>
</clustering>
</event>
<event>
 9    1  0.6296820E-005  0.9192809E+02  0.7546771E-02  0.1299891E+00
          1   -1    0    0  502    0 -0.00000000000E+00  0.00000000000E+00  0.13939897871E+03  0.13939897871E+03  0.00000000000E+00 0. -1.
         21   -1    0    0  501  502  0.00000000000E+00 -0.00000000000E+00 -0.17063781574E+03  0.17063781574E+03  0.00000000000E+00 0.  1.
         23    2    1    2    0    0 -0.11187933776E+02  0.18684914722E+02  0.92626721900E+02  0.13006998934E+03  0.88680305692E+02 0.  0.
        -24    2    1    2    0    0  0.32531453222E+02 -0.20103281364E+02 -0.57320166458E+02  0.11006797217E+03  0.85830761647E+02 0.  0.
         13    1    4    4    0    0  0.43344485018E+02  0.92290414928E+01  0.52095193495E+00  0.44319194253E+02  0.00000000000E+00 0. -1.
        -14    1    4    4    0    0 -0.10813031796E+02 -0.29332322857E+02 -0.57841118393E+02  0.65748777919E+02  0.00000000000E+00 0.  1.
        -13    1    3    3    0    0  0.38737816609E+02  0.44280728244E+01  0.33736019716E+02  0.51559143621E+02  0.00000000000E+00 0. -1.
         13    1    3    3    0    0 -0.49925750385E+02  0.14256841897E+02  0.58890702183E+02  0.78510845723E+02  0.00000000000E+00 0.  1.
          2    1    1    2  501    0 -0.21343519446E+02  0.14183666420E+01 -0.66545392471E+02  0.69898832933E+02  0.00000000000E+00 0. -1.
<scales pt_clust_5="13000.00000" pt_clust_6="13000.00000" pt_clust_7="13000.00000" pt_clust_8="13000.00000" pt_clust_9="21.39060"></scales>
<clustering>
<clus scale="   21.391">  2  9  1 -1</clus>
<clus scale="   85.831">  5  6 -1 -1</clus>
<clus scale="   88.680">  7  8 -1 -1</clus>
<clus scale="   89.182">  2  5  1 -1</clus>
<clus scale="   21.391">  2  5  1 -1</clus>
</clustering>
</event>
<event>
 9    1  0.6296820E-005  0.1178269E+03  0.7546771E-02  0.1249505E+00
         -2   -1    0    0    0  501 -0.00000000000E+00  0.00000000000E+00  0.39728681302E+03  0.39728681302E+03  0.00000000000E+00 0.  1.
         21   -1    0    0  501  502  0.00000000000E+00 -0.00000000000E+00 -0.12845380298E+03  0.12845380298E+03  0.00000000000E+00 0.  1.
         23    2    1    2    0    0  0.78730657171E+02  0.26233652863E+02  0.28568601090E+03  0.31111580235E+03  0.91048474629E+02 0.  0.
        -24    2    1    2    0    0 -0.61987323220E+02  0.22153452177E+02  0.60593534266E+02  0.12178292133E+03  0.82621424876E+02 0.  0.
         11    1    4    4    0    0 -0.33792729152E+02 -0.30598569289E+02  0.30265841103E+02  0.54719668528E+02  0.00000000000E+00 0. -1.
        -12    1    4    4    0    0 -0.28194594068E+02  0.52752021466E+02  0.30327693162E+02  0.67063252799E+02  0.00000000000E+00 0.  1.
        -13    1    3    3    0    0  0.23561544962E+02  0.55308199722E+02  0.15697558588E+03  0.16809365818E+03  0.00000000000E+00 0. -1.
         13    1    3    3    0    0  0.55169112209E+02 -0.29074546860E+02  0.12871042502E+03  0.14302214418E+03  0.00000000000E+00 0.  1.
         -1    1    1    2    0  502 -0.16743333951E+02 -0.48387105039E+02 -0.77446535127E+02  0.92841892317E+02  0.00000000000E+00 0.  1.
<scales pt_clust_5="13000.00000" pt_clust_6="13000.00000" pt_clust_7="13000.00000" pt_clust_8="13000.00000" pt_clust_9="51.20206"></scales>
<clustering>
<clus scale="   51.202">  2  9  1 -1</clus>
<clus scale="   82.621">  5  6 -1 -1</clus>
<clus scale="   91.048">  7  8 -1 -1</clus>
<clus scale="  111.443">  2  5  1 -1</clus>
<clus scale="   51.202">  2  5  1 -1</clus>
</clustering>
</event>
<event>
 9    1  0.6296820E-005  0.1018237E+03  0.7546771E-02  0.1279514E+00
          3   -1    0    0  502    0 -0.00000000000E+00  0.00000000000E+00  0.43682058820E+03  0.43682058820E+03  0.00000000000E+00 0. -1.
         21   -1    0    0  501  502  0.00000000000E+00 -0.00000000000E+00 -0.84925983393E+02  0.84925983393E+02  0.00000000000E+00 0.  1.
         23    2    1    2    0    0  0.44936937700E+02 -0.37876399306E+02  0.28477987207E+03  0.30418767556E+03  0.89311905309E+02 0.  0.
        -24    2    1    2    0    0 -0.17294701684E+02 -0.41048914096E+02 -0.20746750596E+02  0.96261993517E+02  0.82775743312E+02 0.  0.
         11    1    4    4    0    0 -0.16393354492E+02  0.22074613712E+02 -0.18407376389E+02  0.33088701207E+02  0.00000000000E+00 0. -1.
        -12    1    4    4    0    0 -0.90134719210E+00 -0.63123527808E+02 -0.23393742071E+01  0.63173292311E+02  0.00000000000E+00 0.  1.
        -11    1    3    3    0    0  0.50320081964E+02  0.15895860026E+02  0.13406879961E+03  0.14408064424E+03  0.00000000000E+00 0.  1.
         11    1    3    3    0    0 -0.53831442644E+01 -0.53772259332E+02  0.15071107246E+03  0.16010703132E+03  0.00000000000E+00 0. -1.
          4    1    1    2  501    0 -0.27642236016E+02  0.78925313402E+02  0.87861483336E+02  0.12129690252E+03  0.00000000000E+00 0. -1.
<scales pt_clust_5="13000.00000" pt_clust_6="13000.00000" pt_clust_7="13000.00000" pt_clust_8="13000.00000" pt_clust_9="83.62598"></scales>
<clustering>
<clus scale="   82.776">  5  6 -1 -1</clus>
<clus scale="   83.626">  2  9  1 -1</clus>
<clus scale="   89.312">  7  8 -1 -1</clus>
<clus scale="   96.142">  2  5  1 -1</clus>
<clus scale="   83.626">  2  5  1 -1</clus>
</clustering>
</event>
<event>
 9    1  0.6296820E-005  0.1041616E+03  0.7546771E-02  0.1277910E+00
         21   -1    0    0  501  502  0.00000000000E+00  0.00000000000E+00  0.48770228051E+02  0.48770228051E+02  0.00000000000E+00 0.  1.
          1   -1    0    0  502    0 -0.00000000000E+00 -0.00000000000E+00 -0.52191268791E+03  0.52191268791E+03  0.00000000000E+00 0. -1.
        -24    2    1    2    0    0  0.34036455593E+02 -0.47506263959E+02 -0.25615238973E+03  0.27431498857E+03  0.78862797076E+02 0.  0.
         23    2    1    2    0    0  0.30689323679E+02  0.31659943105E+02 -0.44467369407E+02  0.11142303114E+03  0.92160503151E+02 0.  0.
         13    1    3    3    0    0  0.37478694006E+02  0.11300307346E+02 -0.96138656750E+02  0.10380265301E+03  0.00000000000E+00 0. -1.
        -14    1    3    3    0    0 -0.34422384134E+01 -0.58806571304E+02 -0.16001373298E+03  0.17051233556E+03  0.00000000000E+00 0.  1.
        -11    1    4    4    0    0  0.46041899604E+02  0.44622839367E+02 -0.16651528652E+01  0.64139122588E+02  0.00000000000E+00 0.  1.
         11    1    4    4    0    0 -0.15352575925E+02 -0.12962896262E+02 -0.42802216542E+02  0.47283908552E+02  0.00000000000E+00 0. -1.
          2    1    1    2  501    0 -0.64725779272E+02  0.15846320854E+02 -0.17252270071E+03  0.18494489625E+03  0.00000000000E+00 0. -1.
<scales pt_clust_5="13000.00000" pt_clust_6="13000.00000" pt_clust_7="13000.00000" pt_clust_8="13000.00000" pt_clust_9="66.63735"></scales>
<clustering>
<clus scale="   66.637">  1  9  2 -1</clus>
<clus scale="   78.863">  5  6 -1 -1</clus>
<clus scale="   92.161">  7  8 -1 -1</clus>
<clus scale="   92.604">  2  5  1 -1</clus>
<clus scale="   66.637">  1  5  2 -1</clus>
</clustering>
</event>
<event>
 9    1  0.6296820E-005  0.8413315E+02  0.7546771E-02  0.1319337E+00
          1   -1    0    0  502    0 -0.00000000000E+00  0.00000000000E+00  0.16966076683E+03  0.16966076683E+03  0.00000000000E+00 0. -1.
         21   -1    0    0  501  502  0.00000000000E+00 -0.00000000000E+00 -0.67078852529E+02  0.67078852529E+02  0.00000000000E+00 0. -1.
        -24    2    1    2    0    0 -0.15620514401E+02  0.40082684372E+01  0.10142131960E+03  0.13080391292E+03  0.81014275768E+02 0.  0.
         23    2    1    2    0    0 -0.64100770544E+01 -0.53008007556E+01  0.13142124222E+01  0.83866696540E+02  0.83442843059E+02 0.  0.
         13    1    3    3    0    0 -0.45779043430E+02 -0.62762767265E+01  0.80075024384E+02  0.92450646276E+02  0.00000000000E+00 0. -1.
        -14    1    3    3    0    0  0.30158529028E+02  0.10284545164E+02  0.21346295217E+02  0.38353266639E+02  0.00000000000E+00 0.  1.
        -13    1    4    4    0    0 -0.37339616118E+02 -0.81020986118E+01  0.24254373784E+02  0.45256663392E+02  0.00000000000E+00 0.  1.
         13    1    4    4    0    0  0.30929539064E+02  0.28012978563E+01 -0.22940161361E+02  0.38610033148E+02  0.00000000000E+00 0. -1.
          2    1    1    2  501    0  0.22030591456E+02  0.12925323184E+01 -0.15361772273E+00  0.22069009903E+02  0.00000000000E+00 0. -1.
<scales pt_clust_5="13000.00000" pt_clust_6="13000.00000" pt_clust_7="13000.00000" pt_clust_8="13000.00000" pt_clust_9="22.06848"></scales>
<clustering>
<clus scale="   22.068">  2  9  1 -1</clus>
<clus scale="   81.014">  5  6 -1 -1</clus>
<clus scale="   81.725">  1  5  2 -1</clus>
<clus scale="   83.443">  7  8 -1 -1</clus>
<clus scale="   22.068">  2  5  1 -1</clus>
</clustering>
</event>
<event>
 9    1  0.6296820E-005  0.1536661E+03  0.7546771E-02  0.1197818E+00
          1   -1    0    0  502    0 -0.00000000000E+00  0.00000000000E+00  0.39873102620E+03  0.39873102620E+03  0.00000000000E+00 0. -1.
         21   -1    0    0  501  502  0.00000000000E+00 -0.00000000000E+00 -0.68125355143E+02  0.68125355143E+02  0.00000000000E+00 0. -1.
        -24    2    1    2    0    0 -0.45478194009E+02 -0.11087542613E+03  0.17560953506E+03  0.22707474343E+03  0.79765932883E+02 0.  0.
         23    2    1    2    0    0  0.31788895785E+02  0.12824893970E+03  0.12789545808E+03  0.20480046294E+03  0.90153519023E+02 0.  0.
         13    1    3    3    0    0 -0.63583099135E+02 -0.51334169692E+02  0.98577547704E+02  0.12804507169E+03  0.00000000000E+00 0. -1.
        -14    1    3    3    0    0  0.18104905125E+02 -0.59541256435E+02  0.77031987361E+02  0.99029671736E+02  0.00000000000E+00 0.  1.
        -13    1    4    4    0    0  0.45433234672E+02  0.60671471671E+02  0.10998008285E+03  0.13356955084E+03  0.00000000000E+00 0.  1.
         13    1    4    4    0    0 -0.13644338887E+02  0.67577468025E+02  0.17915375230E+02  0.71230912095E+02  0.00000000000E+00 0. -1.
          2    1    1    2  501    0  0.13689298225E+02 -0.17373513569E+02  0.27100677908E+02  0.34981174976E+02  0.00000000000E+00 0. -1.
<scales pt_clust_5="13000.00000" pt_clust_6="13000.00000" pt_clust_7="13000.00000" pt_clust_8="13000.00000" pt_clust_9="22.11869"></scales>
<clustering>
<clus scale="   22.119">  2  9  1 -1</clus>
<clus scale="   79.766">  5  6 -1 -1</clus>
<clus scale="   90.154">  7  8 -1 -1</clus>
<clus scale="  147.811">  1  5  2 -1</clus>
<clus scale="   22.119">  2  5  1 -1</clus>
</clustering>
</event>
<event>
 9    1  0.6296820E-005  0.1168190E+03  0.7546771E-02  0.1254464E+00
          1   -1    0    0  502    0 -0.00000000000E+00  0.00000000000E+00  0.20810558135E+03  0.20810558135E+03  0.00000000000E+00 0. -1.
         21   -1    0    0  501  502  0.00000000000E+00 -0.00000000000E+00 -0.78984491241E+02  0.78984491241E+02  0.00000000000E+00 0. -1.
         23    2    1    2    0    0 -0.33616290310E+01 -0.58338698748E+02  0.69951857500E+02  0.13231493355E+03  0.95912850817E+02 0.  0.
        -24    2    1    2    0    0  0.28884296368E+02  0.71601199528E+02  0.60229798999E+02  0.12599276117E+03  0.79281226205E+02 0.  0.
         13    1    4    4    0    0  0.34373317928E+02  0.83906406576E+02  0.65145505883E+02  0.11165010966E+03  0.00000000000E+00 0. -1.
        -14    1    4    4    0    0 -0.54890215604E+01 -0.12305207047E+02 -0.49157068838E+01  0.14342651510E+02  0.00000000000E+00 0.  1.
        -11    1    3    3    0    0 -0.14739358634E+02  0.16673148148E+02 -0.78938968558E+01  0.23612627335E+02  0.00000000000E+00 0.  1.
         11    1    3    3    0    0  0.11377729603E+02 -0.75011846896E+02  0.77845754356E+02  0.10870230622E+03  0.00000000000E+00 0. -1.
          2    1    1    2  501    0 -0.25522667337E+02 -0.13262500781E+02 -0.10605663891E+01  0.28782377873E+02  0.00000000000E+00 0. -1.
<scales pt_clust_5="13000.00000" pt_clust_6="13000.00000" pt_clust_7="13000.00000" pt_clust_8="13000.00000" pt_clust_9="28.76283"></scales>
<clustering>
<clus scale="   28.763">  2  9  1 -1</clus>
<clus scale="   79.281">  5  6 -1 -1</clus>
<clus scale="   95.913">  7  8 -1 -1</clus>
<clus scale="  103.600">  2  5  1 -1</clus>
<clus scale="   28.763">  2  5  1 -1</clus>
</clustering>
</event>
<event>
 9    1  0.6296820E-005  0.1201128E+03  0.7546771E-02  0.1246170E+00
         21   -1    0    0  501  502  0.00000000000E+00  0.00000000000E+00  0.56251019538E+02  0.56251019538E+02  0.00000000000E+00 0. -1.
          3   -1    0    0  502    0 -0.00000000000E+00 -0.00000000000E+00 -0.33450401029E+03  0.33450401029E+03  0.00000000000E+00 0. -1.
        -24    2    1    2    0    0 -0.47395708350E+02  0.50287284271E+02 -0.13031263867E+03  0.16845782706E+03  0.81372548033E+02 0.  0.
         23    2    1    2    0    0  0.41765791246E+02 -0.80398409880E+02 -0.14074998180E+03  0.19083170933E+03  0.91640047352E+02 0.  0.
         11    1    3    3    0    0 -0.47461067737E+02  0.24713990748E+02 -0.23179776060E+02  0.58314974986E+02  0.00000000000E+00 0. -1.
        -12    1    3    3    0    0  0.65359386765E-01  0.25573293523E+02 -0.10713286261E+03  0.11014285208E+03  0.00000000000E+00 0.  1.
        -11    1    4    4    0    0  0.27695836440E+02  0.15288832832E+02 -0.42318255579E+02  0.52835996449E+02  0.00000000000E+00 0.  1.
         11    1    4    4    0    0  0.14069954805E+02 -0.95687242713E+02 -0.98431726222E+02  0.13799571288E+03  0.00000000000E+00 0. -1.
          4    1    1    2  501    0  0.56299171045E+01  0.30111125609E+02 -0.71903702800E+01  0.31465493430E+02  0.00000000000E+00 0. -1.
<scales pt_clust_5="13000.00000" pt_clust_6="13000.00000" pt_clust_7="13000.00000" pt_clust_8="13000.00000" pt_clust_9="30.63292"></scales>
<clustering>
<clus scale="   30.633">  1  9  2 -1</clus>
<clus scale="   81.373">  5  6 -1 -1</clus>
<clus scale="   91.640">  7  8 -1 -1</clus>
<clus scale="  112.475">  2  5  1 -1</clus>
<clus scale="   30.633">  1  5  2 -1</clus>
</clustering>
</event>
<event>
 9    1  0.6296820E-005  0.1603512E+03  0.7546771E-02  0.1190004E+00
         21   -1    0    0  501  502  0.00000000000E+00  0.00000000000E+00  0.11841417064E+03  0.11841417064E+03  0.00000000000E+00 0. -1.
          3   -1    0    0  502    0 -0.00000000000E+00 -0.00000000000E+00 -0.32319670340E+03  0.32319670340E+03  0.00000000000E+00 0. -1.
        -24    2    1    2    0    0 -0.15362598971E+03 -0.38664326592E+02 -0.15217523558E+03  0.23363469450E+03  0.79573822877E+02 0.  0.
         23    2    1    2    0    0  0.10027753217E+03 -0.19875425883E+00 -0.32229918908E+02  0.13889916079E+03  0.90546044834E+02 0.  0.
         11    1    3    3    0    0 -0.92367094146E+02 -0.16731642680E+02 -0.13822993827E+03  0.16709022647E+03  0.00000000000E+00 0. -1.
        -12    1    3    3    0    0 -0.61258895559E+02 -0.21932683912E+02 -0.13945297312E+02  0.66544468033E+02  0.00000000000E+00 0.  1.
        -11    1    4    4    0    0  0.87286367429E+02 -0.31417928969E+02 -0.44549057718E+02  0.10291071248E+03  0.00000000000E+00 0.  1.
         11    1    4    4    0    0  0.12991164739E+02  0.31219174710E+02  0.12319138810E+02  0.35988448312E+02  0.00000000000E+00 0. -1.
          4    1    1    2  501    0  0.53348457538E+02  0.38863080851E+02 -0.20377378274E+02  0.69077018756E+02  0.00000000000E+00 0. -1.
<scales pt_clust_5="13000.00000" pt_clust_6="13000.00000" pt_clust_7="13000.00000" pt_clust_8="13000.00000" pt_clust_9="66.00301"></scales>
<clustering>
<clus scale="   66.003">  1  9  2 -1</clus>
<clus scale="   79.574">  5  6 -1 -1</clus>
<clus scale="   90.546">  7  8 -1 -1</clus>
<clus scale="  154.421">  2  5  1 -1</clus>
<clus scale="   66.003">  1  5  2 -1</clus>
</clustering>
</event>
<event>
 9    1  0.6296820E-005  0.9437936E+02  0.7546771E-02  0.1300809E+00
         21   -1    0    0  501  502  0.00000000000E+00  0.00000000000E+00  0.70459770765E+02  0.70459770765E+02  0.00000000000E+00 0.  1.
          1   -1    0    0  502    0 -0.00000000000E+00 -0.00000000000E+00 -0.32742562875E+03  0.32742562875E+03  0.00000000000E+00 0. -1.
         23    2    1    2    0    0  0.16635224426E+02 -0.64050466724E+01 -0.25456875578E+03  0.27164421068E+03  0.93099787668E+02 0.  0.
        -24    2    1    2    0    0 -0.11592565417E+02 -0.17263807069E+02 -0.31812490752E+02  0.88150400828E+02  0.79536356409E+02 0.  0.
         13    1    4    4    0    0  0.28345429889E+02 -0.78615771433E+01  0.85118106698E+01  0.30622193123E+02  0.00000000000E+00 0. -1.
        -14    1    4    4    0    0 -0.39937995306E+02 -0.94022299261E+01 -0.40324301422E+02  0.57528207705E+02  0.00000000000E+00 0.  1.
        -13    1    3    3    0    0  0.48374416996E+02  0.25473332574E+00 -0.21553099871E+03  0.22089309747E+03  0.00000000000E+00 0. -1.
         13    1    3    3    0    0 -0.31739192569E+02 -0.66597799982E+01 -0.39037757075E+02  0.50751113210E+02  0.00000000000E+00 0.  1.
          2    1    1    2  501    0 -0.50426590095E+01  0.23668853742E+02  0.29415388547E+02  0.38090788004E+02  0.00000000000E+00 0. -1.
<scales pt_clust_5="13000.00000" pt_clust_6="13000.00000" pt_clust_7="13000.00000" pt_clust_8="13000.00000" pt_clust_9="24.20006"></scales>
<clustering>
<clus scale="   24.200">  1  9  2 -1</clus>
<clus scale="   79.536">  5  6 -1 -1</clus>
<clus scale="   81.030">  1  5  2 -1</clus>
<clus scale="   93.100">  7  8 -1 -1</clus>
<clus scale="   24.200">  1  5  2 -1</clus>
</clustering>
</event>
<event>
 9    1  0.6296820E-005  0.9748775E+02  0.7546771E-02  0.1289730E+00
         21   -1    0    0  501  502  0.00000000000E+00  0.00000000000E+00  0.25997356438E+02  0.25997356438E+02  0.00000000000E+00 0.  1.
          3   -1    0    0  502    0 -0.00000000000E+00 -0.00000000000E+00 -0.60558040481E+03  0.60558040481E+03  0.00000000000E+00 0. -1.
         23    2    1    2    0    0  0.34278447508E+02 -0.30293542014E+02 -0.31936247165E+03  0.33535843368E+03  0.91543323559E+02 0.  0.
        -24    2    1    2    0    0 -0.28890272788E+02 -0.20011521043E+02 -0.16707222834E+03  0.19021816436E+03  0.83873188406E+02 0.  0.
         13    1    4    4    0    0 -0.32861661399E+02  0.84585290290E+01 -0.15561771513E+03  0.15927431923E+03  0.00000000000E+00 0. -1.
        -14    1    4    4    0    0  0.39713886103E+01 -0.28470050072E+02 -0.11454513209E+02  0.30943845131E+02  0.00000000000E+00 0.  1.
        -11    1    3    3    0    0 -0.23672204593E+02 -0.36320826223E+02 -0.11694030571E+03  0.12471812533E+03  0.00000000000E+00 0.  1.
         11    1    3    3    0    0  0.57950652102E+02  0.60272842089E+01 -0.20242216595E+03  0.21064030835E+03  0.00000000000E+00 0. -1.
          4    1    1    2  501    0 -0.53881747201E+01  0.50305063057E+02 -0.93148348376E+02  0.10600116321E+03  0.00000000000E+00 0. -1.
<scales pt_clust_5="13000.00000" pt_clust_6="13000.00000" pt_clust_7="13000.00000" pt_clust_8="13000.00000" pt_clust_9="50.59280"></scales>
<clustering>
<clus scale="   50.593">  1  9  2 -1</clus>
<clus scale="   83.873">  5  6 -1 -1</clus>
<clus scale="   90.324">  1  5  2 -1</clus>
<clus scale="   91.543">  7  8 -1 -1</clus>
<clus scale="   50.593">  1  5  2 -1</clus>
</clustering>
</event>
<event>
 9    1  0.6296820E-005  0.9625764E+02  0.7546771E-02  0.1294805E+00
         -4   -1    0    0    0  501 -0.00000000000E+00  0.00000000000E+00  0.50452477540E+03  0.50452477540E+03  0.00000000000E+00 0.  1.
         21   -1    0    0  501  502  0.00000000000E+00 -0.00000000000E+00 -0.32060851142E+02  0.32060851142E+02  0.00000000000E+00 0.  1.
         23    2    1    2    0    0  0.26692431903E+01  0.80992941452E+01  0.13769742449E+03  0.16533371723E+03  0.91114948913E+02 0.  0.
        -24    2    1    2    0    0 -0.55967767248E+02  0.18696531826E+02  0.18085308466E+03  0.20618195958E+03  0.79506043495E+02 0.  0.
         13    1    4    4    0    0 -0.50731546786E+02 -0.23909838424E+02  0.10215360596E+03  0.11653638669E+03  0.00000000000E+00 0. -1.
        -14    1    4    4    0    0 -0.52362204623E+01  0.42606370250E+02  0.78699478696E+02  0.89645572884E+02  0.00000000000E+00 0.  1.
        -13    1    3    3    0    0  0.31854124476E+01  0.47781283706E+02  0.98653830314E+02  0.10966209993E+03  0.00000000000E+00 0. -1.
         13    1    3    3    0    0 -0.51616925735E+00 -0.39681989561E+02  0.39043594177E+02  0.55671617297E+02  0.00000000000E+00 0.  1.
         -3    1    1    2    0  502  0.53298524058E+02 -0.26795825971E+02  0.15391341511E+03  0.16506994974E+03  0.00000000000E+00 0.  1.
<scales pt_clust_5="13000.00000" pt_clust_6="13000.00000" pt_clust_7="13000.00000" pt_clust_8="13000.00000" pt_clust_9="59.65528"></scales>
<clustering>
<clus scale="   59.655">  2  9  1 -1</clus>
<clus scale="   79.506">  5  6 -1 -1</clus>
<clus scale="   85.351">  2  5  1 -1</clus>
<clus scale="   91.115">  7  8 -1 -1</clus>
<clus scale="   59.655">  2  5  1 -1</clus>
</clustering>
</event>
<event>
 9    1  0.6296820E-005  0.9353323E+02  0.7546771E-02  0.1300326E+00
          3   -1    0    0  502    0 -0.00000000000E+00  0.00000000000E+00  0.15070771898E+03  0.15070771898E+03  0.00000000000E+00 0. -1.
         21   -1    0    0  501  502  0.00000000000E+00 -0.00000000000E+00 -0.20513510781E+03  0.20513510781E+03  0.00000000000E+00 0. -1.
        -24    2    1    2    0    0  0.14887316076E+02 -0.31137031044E+01  0.89151404829E+02  0.12174809038E+03  0.81506424291E+02 0.  0.
         23    2    1    2    0    0 -0.41608390579E+02 -0.40196110245E+02 -0.34062460537E+02  0.11333222992E+03  0.91306942102E+02 0.  0.
         11    1    3    3    0    0 -0.12615247989E+02 -0.32780360270E+02  0.16981712777E+02  0.39013780516E+02  0.00000000000E+00 0. -1.
        -12    1    3    3    0    0  0.27502564065E+02  0.29666657166E+02  0.72169692051E+02  0.82734309862E+02  0.00000000000E+00 0.  1.
        -13    1    4    4    0    0 -0.20585852009E+02 -0.67518652084E+02 -0.35121013337E+02  0.78841811623E+02  0.00000000000E+00 0. -1.
         13    1    4    4    0    0 -0.21022538571E+02  0.27322541839E+02  0.10585528008E+01  0.34490418300E+02  0.00000000000E+00 0.  1.
          4    1    1    2  501    0  0.26721074503E+02  0.43309813349E+02 -0.10951633311E+03  0.12076250649E+03  0.00000000000E+00 0. -1.
<scales pt_clust_5="13000.00000" pt_clust_6="13000.00000" pt_clust_7="13000.00000" pt_clust_8="13000.00000" pt_clust_9="50.88964"></scales>
<clustering>
<clus scale="   50.890">  2  9  1 -1</clus>
<clus scale="   81.506">  5  6 -1 -1</clus>
<clus scale="   83.993">  1  5  2 -1</clus>
<clus scale="   91.307">  7  8 -1 -1</clus>
<clus scale="   50.890">  2  5  1 -1</clus>
</clustering>
</event>
<event>
 9    1  0.6296820E-005  0.1255932E+03  0.7546771E-02  0.1236042E+00
         21   -1    0    0  501  502  0.00000000000E+00  0.00000000000E+00  0.29619654561E+03  0.29619654561E+03  0.00000000000E+00 0.  1.
          3   -1    0    0  502    0 -0.00000000000E+00 -0.00000000000E+00 -0.95034005977E+02  0.95034005977E+02  0.00000000000E+00 0. -1.
        -24    2    1    2    0    0 -0.85540299311E+02 -0.49974956523E+02  0.49557962789E+01  0.12955173806E+03  0.83333389663E+02 0.  0.
         23    2    1    2    0    0  0.60177469032E+02  0.34643697519E+02  0.73519444104E+02  0.13546275250E+03  0.90130655704E+02 0.  0.
         11    1    3    3    0    0 -0.89494594931E+02 -0.11147636004E+02  0.70959971543E+01  0.90464940645E+02  0.00000000000E+00 0. -1.
        -12    1    3    3    0    0  0.39542956204E+01 -0.38827320519E+02 -0.21402008753E+01  0.39086797417E+02  0.00000000000E+00 0.  1.
        -13    1    4    4    0    0 -0.21395794244E+02  0.21902017134E+02  0.26223233698E+02  0.40312979937E+02  0.00000000000E+00 0. -1.
         13    1    4    4    0    0  0.81573263277E+02  0.12741680386E+02  0.47296210406E+02  0.95149772566E+02  0.00000000000E+00 0.  1.
          4    1    1    2  501    0  0.25362830279E+02  0.15331259004E+02  0.12268729925E+03  0.12621606103E+03  0.00000000000E+00 0. -1.
<scales pt_clust_5="13000.00000" pt_clust_6="13000.00000" pt_clust_7="13000.00000" pt_clust_8="13000.00000" pt_clust_9="29.63648"></scales>
<clustering>
<clus scale="   29.636">  1  9  2 -1</clus>
<clus scale="   83.333">  5  6 -1 -1</clus>
<clus scale="   90.131">  7  8 -1 -1</clus>
<clus scale="  120.808">  2  5  1 -1</clus>
<clus scale="   29.636">  1  5  2 -1</clus>
</clustering>
</event>
<event>
 9    1  0.6296820E-005  0.1960922E+03  0.7546771E-02  0.1173172E+00
         21   -1    0    0  501  502  0.00000000000E+00  0.00000000000E+00  0.76350692996E+02  0.76350692996E+02  0.00000000000E+00 0.  1.
          3   -1    0    0  502    0 -0.00000000000E+00 -0.00000000000E+00 -0.84538608386E+03  0.84538608386E+03  0.00000000000E+00 0. -1.
         23    2    1    2    0    0  0.51911419453E+02  0.64041755681E+02 -0.16802338650E+03  0.20831860645E+03  0.91480278982E+02 0.  0.
        -24    2    1    2    0    0 -0.14548433269E+03  0.10081292410E+03 -0.32605751098E+03  0.37945270966E+03  0.79636183209E+02 0.  0.
         11    1    4    4    0    0 -0.42874824107E+02 -0.81743658575E+00 -0.12310433665E+03  0.13035948928E+03  0.00000000000E+00 0. -1.
        -12    1    4    4    0    0 -0.10260950859E+03  0.10163036069E+03 -0.20295317434E+03  0.24909322038E+03  0.00000000000E+00 0.  1.
        -11    1    3    3    0    0  0.33119604624E+02  0.78176208429E+02 -0.16370400385E+03  0.18441103180E+03  0.00000000000E+00 0. -1.
         11    1    3    3    0    0  0.18791814829E+02 -0.14134452749E+02 -0.43193826522E+01  0.23907574648E+02  0.00000000000E+00 0.  1.
          4    1    1    2  501    0  0.93572913241E+02 -0.16485467978E+03 -0.27495449338E+03  0.33396546074E+03  0.00000000000E+00 0. -1.
<scales pt_clust_5="13000.00000" pt_clust_6="13000.00000" pt_clust_7="13000.00000" pt_clust_8="13000.00000" pt_clust_9="179.19332"></scales>
<clustering>
<clus scale="   79.636">  5  6 -1 -1</clus>
<clus scale="   91.480">  7  8 -1 -1</clus>
<clus scale="  123.145">  2  7  1 -1</clus>
<clus scale="  179.193">  1  9  2 -1</clus>
<clus scale="  179.193">  1  5  2 -1</clus>
</clustering>
</event>
<event>
 9    1  0.6296820E-005  0.3101053E+03  0.7546771E-02  0.1080295E+00
         21   -1    0    0  501  502  0.00000000000E+00  0.00000000000E+00  0.53549551855E+03  0.53549551855E+03  0.00000000000E+00 0. -1.
          1   -1    0    0  502    0 -0.00000000000E+00 -0.00000000000E+00 -0.20740906844E+03  0.20740906844E+03  0.00000000000E+00 0. -1.
        -24    2    1    2    0    0 -0.15570166598E+03 -0.12263065318E+03 -0.33637263205E+02  0.21652168262E+03  0.80429395617E+02 0.  0.
         23    2    1    2    0    0 -0.43531159153E+02 -0.11660085621E+02  0.34990079248E+01  0.95044683606E+02  0.83608189858E+02 0.  0.
         13    1    3    3    0    0 -0.96545801749E+02 -0.25378179611E+02 -0.20797236357E+02  0.10196896035E+03  0.00000000000E+00 0. -1.
        -14    1    3    3    0    0 -0.59155864228E+02 -0.97252473569E+02 -0.12840026848E+02  0.11455272226E+03  0.00000000000E+00 0.  1.
        -13    1    4    4    0    0 -0.25880776481E+02  0.14212156450E+02 -0.34755784960E+02  0.45604435863E+02  0.00000000000E+00 0.  1.
         13    1    4    4    0    0 -0.17650382672E+02 -0.25872242071E+02  0.38254792884E+02  0.49440247743E+02  0.00000000000E+00 0. -1.
          2    1    1    2  501    0  0.19923282513E+03  0.13429073880E+03  0.35822470540E+03  0.43133822077E+03  0.00000000000E+00 0. -1.
<scales pt_clust_5="13000.00000" pt_clust_6="13000.00000" pt_clust_7="13000.00000" pt_clust_8="13000.00000" pt_clust_9="240.26594"></scales>
<clustering>
<clus scale="   80.429">  5  6 -1 -1</clus>
<clus scale="   83.608">  7  8 -1 -1</clus>
<clus scale="   85.907">  5  7 -1 -1</clus>
<clus scale="  240.266">  1  9  2 -1</clus>
<clus scale="  240.266">  1  5  2 -1</clus>
</clustering>
</event>
<event>
 9    1  0.6296820E-005  0.1189288E+03  0.7546771E-02  0.1256158E+00
         21   -1    0    0  501  502  0.00000000000E+00  0.00000000000E+00  0.16087232646E+03  0.16087232646E+03  0.00000000000E+00 0.  1.
          3   -1    0    0  502    0 -0.00000000000E+00 -0.00000000000E+00 -0.32447266456E+03  0.32447266456E+03  0.00000000000E+00 0. -1.
         23    2    1    2    0    0 -0.16438073406E+02 -0.45620671028E+01  0.31635069067E+01  0.94996320911E+02  0.93398450186E+02 0.  0.
        -24    2    1    2    0    0 -0.18812932449E+02 -0.84466773771E+02  0.68315362384E+02  0.13651604481E+03  0.80505151722E+02 0.  0.
         13    1    4    4    0    0  0.42562878311E+01 -0.85997185859E+02  0.28905225213E+02  0.90824798411E+02  0.00000000000E+00 0. -1.
        -14    1    4    4    0    0 -0.23069220280E+02  0.15304120880E+01  0.39410137171E+02  0.45691246397E+02  0.00000000000E+00 0.  1.
        -11    1    3    3    0    0 -0.55515097499E+02 -0.86104847446E+00  0.46510913971E+01  0.55716246338E+02  0.00000000000E+00 0. -1.
         11    1    3    3    0    0  0.39077024093E+02 -0.37010186283E+01 -0.14875844904E+01  0.39280074573E+02  0.00000000000E+00 0.  1.
          4    1    1    2  501    0  0.35251005856E+02  0.89028840874E+02 -0.23507920738E+03  0.25383262530E+03  0.00000000000E+00 0. -1.
<scales pt_clust_5="13000.00000" pt_clust_6="13000.00000" pt_clust_7="13000.00000" pt_clust_8="13000.00000" pt_clust_9="87.53852"></scales>
<clustering>
<clus scale="   80.505">  5  6 -1 -1</clus>
<clus scale="   93.398">  7  8 -1 -1</clus>
<clus scale="   94.944">  2  7  1 -1</clus>
<clus scale="   87.539">  1  9  2 -1</clus>
<clus scale="   87.539">  1  5  2 -1</clus>
</clustering>
</event>
<event>
 9    1  0.6296820E-005  0.1055302E+03  0.7546771E-02  0.1274858E+00
         21   -1    0    0  501  502  0.00000000000E+00  0.00000000000E+00  0.70770841507E+02  0.70770841507E+02  0.00000000000E+00 0.  1.
         -2   -1    0    0    0  501 -0.00000000000E+00 -0.00000000000E+00 -0.55291677494E+03  0.55291677494E+03  0.00000000000E+00 0.  1.
        -24    2    1    2    0    0 -0.47239982065E+02 -0.57800864726E+01 -0.37376821543E+03  0.38537253126E+03  0.80896747024E+02 0.  0.
         23    2    1    2    0    0  0.54719946612E+02 -0.71431156602E+02 -0.91674850861E+02  0.15896452314E+03  0.93641650170E+02 0.  0.
         11    1    3    3    0    0 -0.49805666781E+02  0.16065844483E+02 -0.12337876289E+03  0.13401878576E+03  0.00000000000E+00 0. -1.
        -12    1    3    3    0    0  0.25656847162E+01 -0.21845930955E+02 -0.25038945253E+03  0.25135374550E+03  0.00000000000E+00 0.  1.
        -13    1    4    4    0    0  0.34563097435E+02 -0.31816316176E+02  0.99721310220E+01  0.48024255084E+02  0.00000000000E+00 0.  1.
         13    1    4    4    0    0  0.20156849177E+02 -0.39614840426E+02 -0.10164698188E+03  0.11094026806E+03  0.00000000000E+00 0. -1.
         -1    1    1    2    0  502 -0.74799645467E+01  0.77211243074E+02 -0.16702867148E+02  0.79350562050E+02  0.00000000000E+00 0.  1.
<scales pt_clust_5="13000.00000" pt_clust_6="13000.00000" pt_clust_7="13000.00000" pt_clust_8="13000.00000" pt_clust_9="77.57271"></scales>
<clustering>
<clus scale="   77.573">  1  9  2 -1</clus>
<clus scale="   80.897">  5  6 -1 -1</clus>
<clus scale="   93.642">  7  8 -1 -1</clus>
<clus scale="   94.404">  2  5  1 -1</clus>
<clus scale="   77.573">  1  5  2 -1</clus>
</clustering>
</event>
<event>
 9    1  0.6296820E-005  0.1005134E+03  0.7546771E-02  0.1286073E+00
         -2   -1    0    0    0  501 -0.00000000000E+00  0.00000000000E+00  0.28993063870E+03  0.28993063870E+03  0.00000000000E+00 0.  1.
         21   -1    0    0  501  502  0.00000000000E+00 -0.00000000000E+00 -0.92933975920E+02  0.92933975920E+02  0.00000000000E+00 0.  1.
        -24    2    1    2    0    0 -0.46341599726E+02 -0.20798477249E+01  0.18160962794E+03  0.20275314893E+03  0.77297560185E+02 0.  0.
         23    2    1    2    0    0  0.32112103093E+02  0.17162272712E+02  0.70810023617E+02  0.12093659094E+03  0.91026747792E+02 0.  0.
         13    1    3    3    0    0 -0.63343449037E+02 -0.52073016398E+01  0.94105133878E+02  0.11355740728E+03  0.00000000000E+00 0. -1.
        -14    1    3    3    0    0  0.17001849311E+02  0.31274539149E+01  0.87504494059E+02  0.89195741650E+02  0.00000000000E+00 0.  1.
        -11    1    4    4    0    0  0.60877034943E+02  0.17627040764E+02  0.66470340035E+02  0.91842430575E+02  0.00000000000E+00 0.  1.
         11    1    4    4    0    0 -0.28764931850E+02 -0.46476805251E+00  0.43396835818E+01  0.29094160364E+02  0.00000000000E+00 0. -1.
         -1    1    1    2    0  502  0.14229496634E+02 -0.15082424987E+02 -0.55422988770E+02  0.59174874754E+02  0.00000000000E+00 0.  1.
<scales pt_clust_5="13000.00000" pt_clust_6="13000.00000" pt_clust_7="13000.00000" pt_clust_8="13000.00000" pt_clust_9="20.73543"></scales>
<clustering>
<clus scale="   20.735">  2  9  1 -1</clus>
<clus scale="   77.298">  5  6 -1 -1</clus>
<clus scale="   88.272">  1  5  2 -1</clus>
<clus scale="   91.027">  7  8 -1 -1</clus>
<clus scale="   20.735">  2  5  1 -1</clus>
</clustering>
</event>
<event>
 9    1  0.6296820E-005  0.9312627E+02  0.7546771E-02  0.1299776E+00
         21   -1    0    0  501  502  0.00000000000E+00  0.00000000000E+00  0.36913906168E+02  0.36913906168E+02  0.00000000000E+00 0. -1.
          1   -1    0    0  502    0 -0.00000000000E+00 -0.00000000000E+00 -0.54269046144E+03  0.54269046144E+03  0.00000000000E+00 0. -1.
         23    2    1    2    0    0 -0.36399767676E+02  0.32384914943E+02 -0.33975142375E+03  0.35460696682E+03  0.89114225438E+02 0.  0.
        -24    2    1    2    0    0  0.14243886239E+01  0.18577239265E+02 -0.12631530079E+03  0.15153115712E+03  0.81602657206E+02 0.  0.
         11    1    4    4    0    0 -0.60749360465E+01  0.40224845706E+02 -0.25201737690E+02  0.47854682557E+02  0.00000000000E+00 0. -1.
        -12    1    4    4    0    0  0.74993246704E+01 -0.21647606442E+02 -0.10111356310E+03  0.10367647456E+03  0.00000000000E+00 0.  1.
        -11    1    3    3    0    0  0.27758205528E+02  0.19601369010E+02 -0.83805335503E+02  0.90432659477E+02  0.00000000000E+00 0.  1.
         11    1    3    3    0    0 -0.64157973204E+02  0.12783545933E+02 -0.25594608825E+03  0.26417430734E+03  0.00000000000E+00 0. -1.
          2    1    1    2  501    0  0.34975379052E+02 -0.50962154207E+02 -0.39709830729E+02  0.73466243662E+02  0.00000000000E+00 0. -1.
<scales pt_clust_5="13000.00000" pt_clust_6="13000.00000" pt_clust_7="13000.00000" pt_clust_8="13000.00000" pt_clust_9="61.80953"></scales>
<clustering>
<clus scale="   61.810">  1  9  2 -1</clus>
<clus scale="   81.603">  5  6 -1 -1</clus>
<clus scale="   85.966">  1  5  2 -1</clus>
<clus scale="   89.114">  7  8 -1 -1</clus>
<clus scale="   61.810">  1  5  2 -1</clus>
</clustering>
</event>
<event>
 9    1  0.6296820E-005  0.3267958E+03  0.7546771E-02  0.1120411E+00
         21   -1    0    0  501  502  0.00000000000E+00  0.00000000000E+00  0.16096593148E+03  0.16096593148E+03  0.00000000000E+00 0.  1.
         -2   -1    0    0    0  501 -0.00000000000E+00 -0.00000000000E+00 -0.15854332760E+04  0.15854332760E+04  0.00000000000E+00 0.  1.
        -24    2    1    2    0    0  0.36533096984E+02 -0.37966391488E+02 -0.24352482550E+03  0.26089516709E+03  0.77368168643E+02 0.  0.
         23    2    1    2    0    0  0.25681512673E+03  0.15520243801E+03 -0.11206590972E+04  0.11638962639E+04  0.93466009380E+02 0.  0.
         11    1    3    3    0    0  0.33129739256E+02 -0.48970911326E+02 -0.94809254531E+02  0.11173416901E+03  0.00000000000E+00 0. -1.
        -12    1    3    3    0    0  0.34033577276E+01  0.11004519838E+02 -0.14871557096E+03  0.14916099808E+03  0.00000000000E+00 0.  1.
        -13    1    4    4    0    0  0.16849705818E+03  0.81263017413E+02 -0.83886677008E+03  0.85947216043E+03  0.00000000000E+00 0.  1.
         13    1    4    4    0    0  0.88318068550E+02  0.73939420598E+02 -0.28179232714E+03  0.30442410349E+03  0.00000000000E+00 0. -1.
         -1    1    1    2    0  502 -0.29334822371E+03 -0.11723604652E+03 -0.60283421829E+02  0.32160777650E+03  0.00000000000E+00 0.  1.
<scales pt_clust_5="13000.00000" pt_clust_6="13000.00000" pt_clust_7="13000.00000" pt_clust_8="13000.00000" pt_clust_9="313.14470"></scales>
<clustering>
<clus scale="   77.368">  5  6 -1 -1</clus>
<clus scale="   93.466">  7  8 -1 -1</clus>
<clus scale="   93.605">  2  5  1 -1</clus>
<clus scale="  313.145">  1  9  2 -1</clus>
<clus scale="  313.145">  1  5  2 -1</clus>
</clustering>
</event>
<event>
 9    1  0.6296820E-005  0.1019703E+03  0.7546771E-02  0.1284317E+00
         21   -1    0    0  501  502  0.00000000000E+00  0.00000000000E+00  0.19259376222E+03  0.19259376222E+03  0.00000000000E+00 0. -1.
          1   -1    0    0  502    0 -0.00000000000E+00 -0.00000000000E+00 -0.97026017333E+02  0.97026017333E+02  0.00000000000E+00 0. -1.
         23    2    1    2    0    0  0.15544957370E+02 -0.14991118479E+02 -0.60309294460E+01  0.98638802062E+02  0.96056555369E+02 0.  0.
        -24    2    1    2    0    0 -0.47782491456E+02  0.16330486510E+02  0.11947741301E+02  0.95700642142E+02  0.80411523458E+02 0.  0.
         13    1    4    4    0    0 -0.43229036477E+02 -0.13864231699E+02  0.35096217753E+02  0.57382148931E+02  0.00000000000E+00 0. -1.
        -14    1    4    4    0    0 -0.45534549786E+01  0.30194718209E+02 -0.23148476452E+02  0.38318493212E+02  0.00000000000E+00 0.  1.
        -13    1    3    3    0    0  0.48447451264E+00  0.40598973446E+02  0.10204315608E+01  0.40614685041E+02  0.00000000000E+00 0.  1.
         13    1    3    3    0    0  0.15060482857E+02 -0.55590091924E+02 -0.70513610067E+01  0.58024117021E+02  0.00000000000E+00 0. -1.
          2    1    1    2  501    0  0.32237534086E+02 -0.13393680310E+01  0.89650933030E+02  0.95280335347E+02  0.00000000000E+00 0. -1.
<scales pt_clust_5="13000.00000" pt_clust_6="13000.00000" pt_clust_7="13000.00000" pt_clust_8="13000.00000" pt_clust_9="32.26535"></scales>
<clustering>
<clus scale="   32.265">  1  9  2 -1</clus>
<clus scale="   80.412">  5  6 -1 -1</clus>
<clus scale="   87.390">  1  5  2 -1</clus>
<clus scale="   96.057">  7  8 -1 -1</clus>
<clus scale="   32.265">  1  5  2 -1</clus>
</clustering>
</event>
<event>
 9    1  0.6296820E-005  0.9285355E+02  0.7546771E-02  0.1296664E+00
          1   -1    0    0  502    0 -0.00000000000E+00  0.00000000000E+00  0.55736096185E+03  0.55736096185E+03  0.00000000000E+00 0. -1.
         21   -1    0    0  501  502  0.00000000000E+00 -0.00000000000E+00 -0.88005086817E+02  0.88005086817E+02  0.00000000000E+00 0.  1.
         23    2    1    2    0    0  0.32172217548E+02  0.82847960966E+01  0.30727917395E+03  0.32148014478E+03  0.88460744489E+02 0.  0.
        -24    2    1    2    0    0  0.29912139698E+02  0.61431309602E+02 -0.32058807187E+02  0.10847142346E+03  0.77908540530E+02 0.  0.
         11    1    4    4    0    0  0.44041199579E+02  0.57238935804E+01 -0.23869361342E+02  0.50419605601E+02  0.00000000000E+00 0. -1.
        -12    1    4    4    0    0 -0.14129059881E+02  0.55707416022E+02 -0.81894458448E+01  0.58051817854E+02  0.00000000000E+00 0.  1.
        -11    1    3    3    0    0 -0.29793954611E+02 -0.62771104682E+01  0.86193815345E+02  0.91413651338E+02  0.00000000000E+00 0.  1.
         11    1    3    3    0    0  0.61966172159E+02  0.14561906565E+02  0.22108535861E+03  0.23006649344E+03  0.00000000000E+00 0. -1.
          2    1    1    2  501    0 -0.62084357246E+02 -0.69716105699E+02  0.19413550827E+03  0.21541448043E+03  0.00000000000E+00 0. -1.
<scales pt_clust_5="13000.00000" pt_clust_6="13000.00000" pt_clust_7="13000.00000" pt_clust_8="13000.00000" pt_clust_9="93.35315"></scales>
<clustering>
<clus scale="   77.909">  5  6 -1 -1</clus>
<clus scale="   88.461">  7  8 -1 -1</clus>
<clus scale="   93.353">  2  9  1 -1</clus>
<clus scale="   93.353">  2  5  1 -1</clus>
<clus scale="   92.854">  2  5  1 -1</clus>
</clustering>
</event>
<event>
 9    1  0.6296820E-005  0.1397940E+03  0.7546771E-02  0.1215614E+00
         21   -1    0    0  501  502  0.00000000000E+00  0.00000000000E+00  0.26248097272E+03  0.26248097272E+03  0.00000000000E+00 0. -1.
         -4   -1    0    0    0  501 -0.00000000000E+00 -0.00000000000E+00 -0.13070075704E+03  0.13070075704E+03  0.00000000000E+00 0.  1.
         23    2    1    2    0    0  0.11469046718E+03  0.40512342305E+02 -0.31396193596E+02  0.15438186288E+03  0.89737870893E+02 0.  0.
        -24    2    1    2    0    0 -0.58173046745E+02 -0.42405969922E+02  0.14216875778E+03  0.17847469751E+03  0.80367234064E+02 0.  0.
         11    1    4    4    0    0 -0.42688621499E+02 -0.49508250940E+02  0.14690481604E+03  0.16079306668E+03  0.00000000000E+00 0. -1.
        -12    1    4    4    0    0 -0.15484425246E+02  0.71022810188E+01 -0.47360582653E+01  0.17681630829E+02  0.00000000000E+00 0.  1.
        -13    1    3    3    0    0  0.81245570857E+02  0.65173199551E+02 -0.32752090394E+01  0.10420708094E+03  0.00000000000E+00 0.  1.
         13    1    3    3    0    0  0.33444896320E+02 -0.24660857246E+02 -0.28120984557E+02  0.50174781937E+02  0.00000000000E+00 0. -1.
         -3    1    1    2    0  502 -0.56517420433E+02  0.18936276171E+01  0.21007651496E+02  0.60325169369E+02  0.00000000000E+00 0.  1.
<scales pt_clust_5="13000.00000" pt_clust_6="13000.00000" pt_clust_7="13000.00000" pt_clust_8="13000.00000" pt_clust_9="56.54913"></scales>
<clustering>
<clus scale="   56.549">  1  9  2 -1</clus>
<clus scale="   80.367">  5  6 -1 -1</clus>
<clus scale="   89.738">  7  8 -1 -1</clus>
<clus scale="  133.972">  1  5  2 -1</clus>
<clus scale="   56.549">  1  5  2 -1</clus>
</clustering>
</event>
<event>
 9    1  0.6296820E-005  0.1329780E+03  0.7546771E-02  0.1225536E+00
         -2   -1    0    0    0  501 -0.00000000000E+00  0.00000000000E+00  0.15406690259E+03  0.15406690259E+03  0.00000000000E+00 0.  1.
         21   -1    0    0  501  502  0.00000000000E+00 -0.00000000000E+00 -0.22006952320E+03  0.22006952320E+03  0.00000000000E+00 0.  1.
         23    2    1    2    0    0 -0.61807297023E+02 -0.61376480960E+02  0.18095931712E+02  0.12661159905E+03  0.90087845397E+02 0.  0.
        -24    2    1    2    0    0  0.89696650072E+02  0.92226398249E+02 -0.11944436990E+03  0.19294589096E+03  0.80062236854E+02 0.  0.
         11    1    4    4    0    0  0.52989793978E+02  0.78595802336E+00 -0.42074098124E+02  0.67666577635E+02  0.00000000000E+00 0. -1.
        -12    1    4    4    0    0  0.36706856094E+02  0.91440440226E+02 -0.77370271778E+02  0.12527931333E+03  0.00000000000E+00 0.  1.
        -11    1    3    3    0    0 -0.18383350696E+02  0.23541239158E+02  0.60808053215E+01  0.30481366722E+02  0.00000000000E+00 0. -1.
         11    1    3    3    0    0 -0.43423946327E+02 -0.84917720117E+02  0.12015126391E+02  0.96130232324E+02  0.00000000000E+00 0.  1.
         -1    1    1    2    0  502 -0.27889353050E+02 -0.30849917290E+02  0.35345817578E+02  0.54578935777E+02  0.00000000000E+00 0.  1.
<scales pt_clust_5="13000.00000" pt_clust_6="13000.00000" pt_clust_7="13000.00000" pt_clust_8="13000.00000" pt_clust_9="41.58768"></scales>
<clustering>
<clus scale="   41.588">  2  9  1 -1</clus>
<clus scale="   80.062">  5  6 -1 -1</clus>
<clus scale="   90.088">  7  8 -1 -1</clus>
<clus scale="  126.401">  2  5  1 -1</clus>
<clus scale="   41.588">  2  5  1 -1</clus>
</clustering>
</event>
<event>
 9    1  0.6296820E-005  0.1249179E+03  0.7546771E-02  0.1237601E+00
         21   -1    0    0  501  502  0.00000000000E+00  0.00000000000E+00  0.31884415384E+02  0.31884415384E+02  0.00000000000E+00 0. -1.
         -4   -1    0    0    0  501 -0.00000000000E+00 -0.00000000000E+00 -0.61298296756E+03  0.61298296756E+03  0.00000000000E+00 0.  1.
        -24    2    1    2    0    0  0.31154403352E+02  0.80314090275E+02 -0.27970159937E+03  0.30409796865E+03  0.82593219497E+02 0.  0.
         23    2    1    2    0    0 -0.55137922825E+02 -0.67651621513E+02 -0.20538550721E+03  0.24100095731E+03  0.91001771558E+02 0.  0.
         11    1    3    3    0    0 -0.21483625624E+02  0.37670895893E+02 -0.58931727686E+02  0.73168238296E+02  0.00000000000E+00 0. -1.
        -12    1    3    3    0    0  0.52638028976E+02  0.42643194382E+02 -0.22076987168E+03  0.23092973036E+03  0.00000000000E+00 0.  1.
        -11    1    4    4    0    0  0.13353792055E+02 -0.33129217218E+02 -0.12453872200E+03  0.12955987833E+03  0.00000000000E+00 0.  1.
         11    1    4    4    0    0 -0.68491714881E+02 -0.34522404296E+02 -0.80846785208E+02  0.11144107898E+03  0.00000000000E+00 0. -1.
         -3    1    1    2    0  502  0.23983519473E+02 -0.12662468762E+02 -0.96011445606E+02  0.99768456983E+02  0.00000000000E+00 0.  1.
<scales pt_clust_5="13000.00000" pt_clust_6="13000.00000" pt_clust_7="13000.00000" pt_clust_8="13000.00000" pt_clust_9="27.12099"></scales>
<clustering>
<clus scale="   27.121">  1  9  2 -1</clus>
<clus scale="   82.593">  5  6 -1 -1</clus>
<clus scale="   91.002">  7  8 -1 -1</clus>
<clus scale="  118.932">  2  5  1 -1</clus>
<clus scale="   27.121">  1  5  2 -1</clus>
</clustering>
</event>
<event>
 9    1  0.6296820E-005  0.1059275E+03  0.7546771E-02  0.1279854E+00
         21   -1    0    0  501  502  0.00000000000E+00  0.00000000000E+00  0.34722115691E+03  0.34722115691E+03  0.00000000000E+00 0. -1.
          1   -1    0    0  502    0 -0.00000000000E+00 -0.00000000000E+00 -0.60439665074E+02  0.60439665074E+02  0.00000000000E+00 0. -1.
        -24    2    1    2    0    0  0.16034380880E+02 -0.19372214193E+02  0.51270002772E+01  0.86030173239E+02  0.82112852361E+02 0.  0.
         23    2    1    2    0    0 -0.18258781698E+02 -0.54239691824E+01  0.12750313608E+03  0.16548187653E+03  0.10375162263E+03 0.  0.
         13    1    3    3    0    0  0.30054875246E+02  0.30081266678E+00 -0.30606455977E+02  0.42896866573E+02  0.00000000000E+00 0. -1.
        -14    1    3    3    0    0 -0.14020494365E+02 -0.19673026860E+02  0.35733456255E+02  0.43133306666E+02  0.00000000000E+00 0.  1.
        -13    1    4    4    0    0 -0.24290136419E+02  0.43500945883E+02  0.92362094055E+02  0.10494331536E+03  0.00000000000E+00 0.  1.
         13    1    4    4    0    0  0.60313547216E+01 -0.48924915065E+02  0.35141042027E+02  0.60538561171E+02  0.00000000000E+00 0. -1.
          2    1    1    2  501    0  0.22244008174E+01  0.24796183375E+02  0.15415135547E+03  0.15614877221E+03  0.00000000000E+00 0. -1.
<scales pt_clust_5="13000.00000" pt_clust_6="13000.00000" pt_clust_7="13000.00000" pt_clust_8="13000.00000" pt_clust_9="24.89576"></scales>
<clustering>
<clus scale="   24.896">  1  9  2 -1</clus>
<clus scale="   82.113">  5  6 -1 -1</clus>
<clus scale="   84.845">  2  5  1 -1</clus>
<clus scale="  103.752">  7  8 -1 -1</clus>
<clus scale="   24.896">  1  5  2 -1</clus>
</clustering>
</event>
<event>
 9    1  0.6296820E-005  0.2232978E+03  0.7546771E-02  0.1131448E+00
         21   -1    0    0  501  502  0.00000000000E+00  0.00000000000E+00  0.55329607166E+02  0.55329607166E+02  0.00000000000E+00 0.  1.
          1   -1    0    0  502    0 -0.00000000000E+00 -0.00000000000E+00 -0.77266721359E+03  0.77266721359E+03  0.00000000000E+00 0. -1.
        -24    2    1    2    0    0 -0.42542563411E+02 -0.74956300741E+02 -0.61495076216E+02  0.13472584635E+03  0.83313219555E+02 0.  0.
         23    2    1    2    0    0 -0.13887286262E+02 -0.99340505722E+00 -0.13136891212E+03  0.16033076968E+03  0.90853294171E+02 0.  0.
         13    1    3    3    0    0 -0.49193522944E+02 -0.43872710214E+02 -0.75296418720E+02  0.10007181458E+03  0.00000000000E+00 0. -1.
        -14    1    3    3    0    0  0.66509595335E+01 -0.31083590527E+02  0.13801342504E+02  0.34654031767E+02  0.00000000000E+00 0.  1.
        -13    1    4    4    0    0  0.33276614174E+02 -0.21045019019E+02 -0.70596080084E+02  0.80833361922E+02  0.00000000000E+00 0.  1.
         13    1    4    4    0    0 -0.47163900436E+02  0.20051613962E+02 -0.60772832036E+02  0.79497407759E+02  0.00000000000E+00 0. -1.
          2    1    1    2  501    0  0.56429849673E+02  0.75949705798E+02 -0.52447361809E+03  0.53294020473E+03  0.00000000000E+00 0. -1.
<scales pt_clust_5="13000.00000" pt_clust_6="13000.00000" pt_clust_7="13000.00000" pt_clust_8="13000.00000" pt_clust_9="94.61868"></scales>
<clustering>
<clus scale="   83.313">  5  6 -1 -1</clus>
<clus scale="   90.853">  7  8 -1 -1</clus>
<clus scale="   91.817">  5  7 -1 -1</clus>
<clus scale="   94.619">  1  9  2 -1</clus>
<clus scale="   94.619">  1  5  2 -1</clus>
</clustering>
</event>
<event>
 9    1  0.6296820E-005  0.1123788E+03  0.7546771E-02  0.1260342E+00
          1   -1    0    0  502    0 -0.00000000000E+00  0.00000000000E+00  0.95750331468E+02  0.95750331468E+02  0.00000000000E+00 0. -1.
         21   -1    0    0  501  502  0.00000000000E+00 -0.00000000000E+00 -0.25332052123E+03  0.25332052123E+03  0.00000000000E+00 0.  1.
         23    2    1    2    0    0 -0.42999088618E+02  0.44967103444E+02  0.30351258734E+02  0.11456000236E+03  0.91278876087E+02 0.  0.
        -24    2    1    2    0    0  0.42905450306E+02 -0.69336614682E+02 -0.16677407823E+03  0.20224487576E+03  0.80255546853E+02 0.  0.
         11    1    4    4    0    0 -0.19077619146E+02 -0.14423756265E+02 -0.12110629037E+02  0.26807977035E+02  0.00000000000E+00 0. -1.
        -12    1    4    4    0    0  0.61983069452E+02 -0.54912858417E+02 -0.15466344920E+03  0.17543689873E+03  0.00000000000E+00 0.  1.
        -11    1    3    3    0    0 -0.30408470344E+02  0.69584948179E+02  0.35038835486E+01  0.76019847946E+02  0.00000000000E+00 0.  1.
         11    1    3    3    0    0 -0.12590618274E+02 -0.24617844735E+02  0.26847375186E+02  0.38540154414E+02  0.00000000000E+00 0. -1.
          2    1    1    2  501    0  0.93638312249E-01  0.24369511238E+02 -0.21147370261E+02  0.32265974572E+02  0.00000000000E+00 0. -1.
<scales pt_clust_5="13000.00000" pt_clust_6="13000.00000" pt_clust_7="13000.00000" pt_clust_8="13000.00000" pt_clust_9="24.36969"></scales>
<clustering>
<clus scale="   24.370">  2  9  1 -1</clus>
<clus scale="   80.256">  5  6 -1 -1</clus>
<clus scale="   91.279">  7  8 -1 -1</clus>
<clus scale="  103.625">  2  5  1 -1</clus>
<clus scale="   24.370">  2  5  1 -1</clus>
</clustering>
</event>
<event>
 9    1  0.6296820E-005  0.9560713E+02  0.7546771E-02  0.1295767E+00
         21   -1    0    0  501  502  0.00000000000E+00  0.00000000000E+00  0.51467006004E+02  0.51467006004E+02  0.00000000000E+00 0.  1.
         -2   -1    0    0    0  501 -0.00000000000E+00 -0.00000000000E+00 -0.24271009229E+03  0.24271009229E+03  0.00000000000E+00 0.  1.
        -24    2    1    2    0    0 -0.38887845312E+01  0.18968714623E+02 -0.11348646580E+03  0.14075309153E+03  0.80977281241E+02 0.  0.
         23    2    1    2    0    0  0.19263129496E+02 -0.42998000955E+02 -0.53690223938E+02  0.11610151317E+03  0.91526089016E+02 0.  0.
         13    1    3    3    0    0 -0.38607918673E+02  0.15571091305E+02 -0.33309359135E+02  0.53315510639E+02  0.00000000000E+00 0. -1.
        -14    1    3    3    0    0  0.34719134142E+02  0.33976233182E+01 -0.80177106665E+02  0.87437580896E+02  0.00000000000E+00 0.  1.
        -13    1    4    4    0    0  0.43381748115E+02  0.12952124227E+01 -0.13579295615E+01  0.43422317043E+02  0.00000000000E+00 0.  1.
         13    1    4    4    0    0 -0.24118618619E+02 -0.44293213377E+02 -0.52332294377E+02  0.72679196130E+02  0.00000000000E+00 0. -1.
         -1    1    1    2    0  502 -0.15374344965E+02  0.24029286332E+02 -0.24066396547E+02  0.37322493586E+02  0.00000000000E+00 0.  1.
<scales pt_clust_5="13000.00000" pt_clust_6="13000.00000" pt_clust_7="13000.00000" pt_clust_8="13000.00000" pt_clust_9="28.52678"></scales>
<clustering>
<clus scale="   28.527">  1  9  2 -1</clus>
<clus scale="   80.977">  5  6 -1 -1</clus>
<clus scale="   85.563">  2  5  1 -1</clus>
<clus scale="   91.526">  7  8 -1 -1</clus>
<clus scale="   28.527">  1  5  2 -1</clus>
</clustering>
</event>
<event>
 9    1  0.6296820E-005  0.4385122E+03  0.7546771E-02  0.1076992E+00
         21   -1    0    0  501  502  0.00000000000E+00  0.00000000000E+00  0.33255749790E+03  0.33255749790E+03  0.00000000000E+00 0. -1.
          1   -1    0    0  502    0 -0.00000000000E+00 -0.00000000000E+00 -0.77100032097E+03  0.77100032097E+03  0.00000000000E+00 0. -1.
         23    2    1    2    0    0 -0.29817863944E+02  0.72633569206E+02 -0.58675252242E+02  0.13349234527E+03  0.90623841420E+02 0.  0.
        -24    2    1    2    0    0  0.37923483975E+03 -0.25459162983E+03 -0.70344021853E+02  0.46912247139E+03  0.80570776899E+02 0.  0.
         13    1    4    4    0    0  0.22446223444E+03 -0.19240414313E+03 -0.62284104162E+02  0.30212904299E+03  0.00000000000E+00 0. -1.
        -14    1    4    4    0    0  0.15477260531E+03 -0.62187486697E+02 -0.80599176915E+01  0.16699342840E+03  0.00000000000E+00 0.  1.
        -11    1    3    3    0    0 -0.36587459823E+02 -0.60394201413E+01 -0.36798704401E+01  0.37264705264E+02  0.00000000000E+00 0.  1.
         11    1    3    3    0    0  0.67695958793E+01  0.78672989347E+02 -0.54995381802E+02  0.96227640004E+02  0.00000000000E+00 0. -1.
          2    1    1    2  501    0 -0.34941697581E+03  0.18195806062E+03 -0.30942354898E+03  0.50094300222E+03  0.00000000000E+00 0. -1.
<scales pt_clust_5="13000.00000" pt_clust_6="13000.00000" pt_clust_7="13000.00000" pt_clust_8="13000.00000" pt_clust_9="431.04699"></scales>
<clustering>
<clus scale="   80.571">  5  6 -1 -1</clus>
<clus scale="   90.624">  7  8 -1 -1</clus>
<clus scale="  119.906">  2  7  1 -1</clus>
<clus scale="  431.047">  1  9  2 -1</clus>
<clus scale="  431.047">  1  5  2 -1</clus>
</clustering>
</event>
<event>
 9    1  0.6296820E-005  0.1091962E+03  0.7546771E-02  0.1267646E+00
         21   -1    0    0  501  502  0.00000000000E+00  0.00000000000E+00  0.95529549069E+02  0.95529549069E+02  0.00000000000E+00 0.  1.
          1   -1    0    0  502    0 -0.00000000000E+00 -0.00000000000E+00 -0.29353418181E+03  0.29353418181E+03  0.00000000000E+00 0. -1.
         23    2    1    2    0    0 -0.52810561772E+02  0.17243098966E+02 -0.18586901836E+03  0.21481822450E+03  0.92267533264E+02 0.  0.
        -24    2    1    2    0    0  0.66943493213E+02  0.33611243633E+01 -0.60559474209E+02  0.11975565438E+03  0.78620852192E+02 0.  0.
         11    1    4    4    0    0  0.58999760757E+01 -0.31423301296E+02 -0.11141561238E+02  0.33858056189E+02  0.00000000000E+00 0. -1.
        -12    1    4    4    0    0  0.61043517137E+02  0.34784425659E+02 -0.49417912970E+02  0.85897598193E+02  0.00000000000E+00 0.  1.
        -13    1    3    3    0    0 -0.44300614626E+02 -0.17346517402E+02 -0.16869095551E+03  0.17527145972E+03  0.00000000000E+00 0. -1.
         13    1    3    3    0    0 -0.85099471456E+01  0.34589616368E+02 -0.17178062844E+02  0.39546764773E+02  0.00000000000E+00 0.  1.
          2    1    1    2  501    0 -0.14132931441E+02 -0.20604223330E+02  0.48423859828E+02  0.54489851998E+02  0.00000000000E+00 0. -1.
<scales pt_clust_5="13000.00000" pt_clust_6="13000.00000" pt_clust_7="13000.00000" pt_clust_8="13000.00000" pt_clust_9="24.98547"></scales>
<clustering>
<clus scale="   24.985">  1  9  2 -1</clus>
<clus scale="   78.621">  5  6 -1 -1</clus>
<clus scale="   92.268">  7  8 -1 -1</clus>
<clus scale="   97.937">  1  5  2 -1</clus>
<clus scale="   24.985">  1  5  2 -1</clus>
</clustering>
</event>
<event>
 9    1  0.6296820E-005  0.3328274E+03  0.7546771E-02  0.1101047E+00
         21   -1    0    0  501  502  0.00000000000E+00  0.00000000000E+00  0.17145031335E+03  0.17145031335E+03  0.00000000000E+00 0. -1.
          1   -1    0    0  502    0 -0.00000000000E+00 -0.00000000000E+00 -0.11510962331E+04  0.11510962331E+04  0.00000000000E+00 0. -1.
        -24    2    1    2    0    0 -0.11292119973E+03 -0.24059200561E+02 -0.18758331767E+03  0.23710176120E+03  0.87747943645E+02 0.  0.
         23    2    1    2    0    0  0.39682282559E+02 -0.29945693065E+03 -0.65402889438E+03  0.72616782996E+03  0.91196412919E+02 0.  0.
         13    1    3    3    0    0 -0.82490688847E+02 -0.39038310757E+02 -0.18077890419E+03  0.20250855698E+03  0.00000000000E+00 0. -1.
        -14    1    3    3    0    0 -0.30430510882E+02  0.14979110196E+02 -0.68044134869E+01  0.34593204213E+02  0.00000000000E+00 0.  1.
        -13    1    4    4    0    0 -0.16021317949E+02 -0.20487008237E+03 -0.41170329120E+03  0.46013914554E+03  0.00000000000E+00 0.  1.
         13    1    4    4    0    0  0.55703600507E+02 -0.94586848275E+02 -0.24232560318E+03  0.26602868442E+03  0.00000000000E+00 0. -1.
          2    1    1    2  501    0  0.73238917170E+02  0.32351613121E+03 -0.13803370769E+03  0.35927695529E+03  0.00000000000E+00 0. -1.
<scales pt_clust_5="13000.00000" pt_clust_6="13000.00000" pt_clust_7="13000.00000" pt_clust_8="13000.00000" pt_clust_9="320.08949"></scales>
<clustering>
<clus scale="   87.748">  5  6 -1 -1</clus>
<clus scale="   91.196">  7  8 -1 -1</clus>
<clus scale="  145.016">  2  5  1 -1</clus>
<clus scale="  320.089">  1  9  2 -1</clus>
<clus scale="  320.089">  1  5  2 -1</clus>
</clustering>
</event>
<event>
 9    1  0.7563739E-005  0.1908167E+03  0.7546771E-02  0.1182067E+00
         21   -1    0    0  501  502  0.00000000000E+00  0.00000000000E+00  0.95184476032E+02  0.95184476032E+02  0.00000000000E+00 0. -1.
          1   -1    0    0  502    0 -0.00000000000E+00 -0.00000000000E+00 -0.67816121401E+03  0.67816121401E+03  0.00000000000E+00 0. -1.
         23    2    1    2    0    0 -0.52034625377E+02 -0.33209492646E+02 -0.65774273429E+02  0.12759385139E+03  0.90241139330E+02 0.  0.
        -24    2    1    2    0    0 -0.35349377837E+02  0.17567609904E+03 -0.16940931555E+03  0.25988557627E+03  0.82032470843E+02 0.  0.
         13    1    4    4    0    0 -0.44121843648E+02  0.18043580036E+03 -0.16659726858E+03  0.24951646246E+03  0.00000000000E+00 0. -1.
        -14    1    4    4    0    0  0.87724658108E+01 -0.47597013245E+01 -0.28120469662E+01  0.10369113812E+02  0.00000000000E+00 0.  1.
        -11    1    3    3    0    0  0.15510290671E+02  0.18235702825E+02 -0.96281063672E+01  0.25803302238E+02  0.00000000000E+00 0.  1.
         11    1    3    3    0    0 -0.67544916048E+02 -0.51445195470E+02 -0.56146167062E+02  0.10179054915E+03  0.00000000000E+00 0. -1.
          2    1    1    2  501    0  0.87384003214E+02 -0.14246660639E+03 -0.34779314900E+03  0.38586626239E+03  0.00000000000E+00 0. -1.
<scales pt_clust_5="13000.00000" pt_clust_6="13000.00000" pt_clust_7="13000.00000" pt_clust_8="13000.00000" pt_clust_9="172.28378"></scales>
<clustering>
<clus scale="   82.032">  5  6 -1 -1</clus>
<clus scale="   90.241">  7  8 -1 -1</clus>
<clus scale="  109.334">  2  7  1 -1</clus>
<clus scale="  172.284">  1  9  2 -1</clus>
<clus scale="  172.284">  1  5  2 -1</clus>
</clustering>
</event>
<event>
 9    1  0.6296820E-005  0.2211952E+03  0.7546771E-02  0.1155610E+00
         21   -1    0    0  501  502  0.00000000000E+00  0.00000000000E+00  0.48193222567E+03  0.48193222567E+03  0.00000000000E+00 0. -1.
          1   -1    0    0  502    0 -0.00000000000E+00 -0.00000000000E+00 -0.32083664713E+03  0.32083664713E+03  0.00000000000E+00 0. -1.
         23    2    1    2    0    0  0.78670338323E+02 -0.44858849035E+02 -0.17850950162E+03  0.22008232791E+03  0.91483607389E+02 0.  0.
        -24    2    1    2    0    0 -0.44877683507E+02  0.21894707066E+03  0.32772201492E+03  0.40495118074E+03  0.81436561159E+02 0.  0.
         11    1    4    4    0    0 -0.35433461868E+02  0.22361278771E+03  0.30443774237E+03  0.37939497628E+03  0.00000000000E+00 0. -1.
        -12    1    4    4    0    0 -0.94442216388E+01 -0.46657170585E+01  0.23284272554E+02  0.25556204460E+02  0.00000000000E+00 0.  1.
        -11    1    3    3    0    0  0.84834634503E+02 -0.14513360356E+02 -0.16540678512E+03  0.18645899657E+03  0.00000000000E+00 0.  1.
         11    1    3    3    0    0 -0.61642961806E+01 -0.30345488678E+02 -0.13102716507E+02  0.33623331340E+02  0.00000000000E+00 0. -1.
          2    1    1    2  501    0 -0.33792654816E+02 -0.17408822162E+03  0.11883065245E+02  0.17773536414E+03  0.00000000000E+00 0. -1.
<scales pt_clust_5="13000.00000" pt_clust_6="13000.00000" pt_clust_7="13000.00000" pt_clust_8="13000.00000" pt_clust_9="205.65855"></scales>
<clustering>
<clus scale="   81.437">  5  6 -1 -1</clus>
<clus scale="   91.484">  7  8 -1 -1</clus>
<clus scale="  128.727">  2  7  1 -1</clus>
<clus scale="  205.659">  1  9  2 -1</clus>
<clus scale="  205.659">  1  5  2 -1</clus>
</clustering>
</event>
<event>
 9    1  0.6296820E-005  0.1293607E+03  0.7546771E-02  0.1230023E+00
          1   -1    0    0  502    0 -0.00000000000E+00  0.00000000000E+00  0.43638046372E+03  0.43638046372E+03  0.00000000000E+00 0. -1.
         21   -1    0    0  501  502  0.00000000000E+00 -0.00000000000E+00 -0.53693025886E+02  0.53693025886E+02  0.00000000000E+00 0. -1.
        -24    2    1    2    0    0  0.67159930273E+02 -0.75361586438E+02  0.28296900273E+03  0.31111964190E+03  0.80834090129E+02 0.  0.
         23    2    1    2    0    0 -0.62674828595E+02  0.52893055519E+02  0.62081466050E+02  0.13489147761E+03  0.87268510031E+02 0.  0.
         11    1    3    3    0    0  0.57467938193E+02 -0.55879564968E+01  0.10720923125E+03  0.12176866774E+03  0.00000000000E+00 0. -1.
        -12    1    3    3    0    0  0.96919920795E+01 -0.69773629941E+02  0.17575977148E+03  0.18935097416E+03  0.00000000000E+00 0.  1.
        -13    1    4    4    0    0 -0.27974763645E+02  0.39713479896E+02 -0.13730367695E+02  0.50480400984E+02  0.00000000000E+00 0. -1.
         13    1    4    4    0    0 -0.34700064950E+02  0.13179575622E+02  0.75811833745E+02  0.84411076625E+02  0.00000000000E+00 0.  1.
          2    1    1    2  501    0 -0.44851016776E+01  0.22468530920E+02  0.37636969051E+02  0.44062370092E+02  0.00000000000E+00 0. -1.
<scales pt_clust_5="13000.00000" pt_clust_6="13000.00000" pt_clust_7="13000.00000" pt_clust_8="13000.00000" pt_clust_9="22.91182"></scales>
<clustering>
<clus scale="   22.912">  2  9  1 -1</clus>
<clus scale="   80.834">  5  6 -1 -1</clus>
<clus scale="   87.269">  7  8 -1 -1</clus>
<clus scale="  125.110">  1  5  2 -1</clus>
<clus scale="   22.912">  2  5  1 -1</clus>
</clustering>
</event>
<event>
 9    1  0.6296820E-005  0.1622927E+03  0.7546771E-02  0.1206288E+00
          1   -1    0    0  502    0 -0.00000000000E+00  0.00000000000E+00  0.45305418910E+03  0.45305418910E+03  0.00000000000E+00 0. -1.
         21   -1    0    0  501  502  0.00000000000E+00 -0.00000000000E+00 -0.11419638766E+03  0.11419638766E+03  0.00000000000E+00 0. -1.
        -24    2    1    2    0    0  0.22110234700E+01 -0.65830087074E+02  0.21572416625E+03  0.23968253205E+03  0.81069792624E+02 0.  0.
         23    2    1    2    0    0  0.10067191140E+03 -0.48675883058E+02  0.88609779423E+02  0.16980742826E+03  0.92079825953E+02 0.  0.
         11    1    3    3    0    0  0.67388020322E+00 -0.84708397962E+02  0.16373431844E+03  0.18434992225E+03  0.00000000000E+00 0. -1.
        -12    1    3    3    0    0  0.15371432668E+01  0.18878310888E+02  0.51989847817E+02  0.55332609801E+02  0.00000000000E+00 0.  1.
        -11    1    4    4    0    0  0.68499183126E+02 -0.87888077487E+01  0.95760851081E+02  0.11806575215E+03  0.00000000000E+00 0.  1.
         11    1    4    4    0    0  0.32172728274E+02 -0.39887075310E+02 -0.71510716577E+01  0.51741676115E+02  0.00000000000E+00 0. -1.
          2    1    1    2  501    0 -0.10288293487E+03  0.11450597013E+03  0.34523855756E+02  0.15776061644E+03  0.00000000000E+00 0. -1.
<scales pt_clust_5="13000.00000" pt_clust_6="13000.00000" pt_clust_7="13000.00000" pt_clust_8="13000.00000" pt_clust_9="133.64212"></scales>
<clustering>
<clus scale="   81.070">  5  6 -1 -1</clus>
<clus scale="   92.080">  7  8 -1 -1</clus>
<clus scale="  104.455">  1  5  2 -1</clus>
<clus scale="  133.642">  2  9  1 -1</clus>
<clus scale="  133.642">  2  5  1 -1</clus>
</clustering>
</event>
<event>
 9    1  0.6296820E-005  0.2348067E+03  0.7546771E-02  0.1153699E+00
          1   -1    0    0  502    0 -0.00000000000E+00  0.00000000000E+00  0.34926050399E+03  0.34926050399E+03  0.00000000000E+00 0. -1.
         21   -1    0    0  501  502  0.00000000000E+00 -0.00000000000E+00 -0.25636154999E+03  0.25636154999E+03  0.00000000000E+00 0.  1.
         23    2    1    2    0    0 -0.10065905680E+02  0.65165941830E+02  0.72975437844E+02  0.13414078422E+03  0.91216298060E+02 0.  0.
        -24    2    1    2    0    0  0.58039951498E+02 -0.25541837648E+03  0.29202233496E+02  0.27505420300E+03  0.78707440134E+02 0.  0.
         13    1    4    4    0    0  0.24075986923E+02 -0.12091611581E+02  0.95478702367E+01  0.28583597447E+02  0.00000000000E+00 0. -1.
        -14    1    4    4    0    0  0.33963964575E+02 -0.24332676490E+03  0.19654363259E+02  0.24647060555E+03  0.00000000000E+00 0.  1.
        -13    1    3    3    0    0 -0.14063372469E+02  0.20351495413E+02 -0.19369209490E+02  0.31418594606E+02  0.00000000000E+00 0.  1.
         13    1    3    3    0    0  0.39974667891E+01  0.44814446416E+02  0.92344647335E+02  0.10272218962E+03  0.00000000000E+00 0. -1.
          2    1    1    2  501    0 -0.47974045818E+02  0.19025243465E+03 -0.92787173381E+01  0.19642706677E+03  0.00000000000E+00 0. -1.
<scales pt_clust_5="13000.00000" pt_clust_6="13000.00000" pt_clust_7="13000.00000" pt_clust_8="13000.00000" pt_clust_9="221.22235"></scales>
<clustering>
<clus scale="   78.707">  5  6 -1 -1</clus>
<clus scale="   91.216">  7  8 -1 -1</clus>
<clus scale="  112.554">  1  7  2 -1</clus>
<clus scale="  221.222">  2  9  1 -1</clus>
<clus scale="  221.222">  2  5  1 -1</clus>
</clustering>
</event>
<event>
 9    1  0.6296820E-005  0.9839035E+02  0.7546771E-02  0.1289791E+00
          1   -1    0    0  502    0 -0.00000000000E+00  0.00000000000E+00  0.51032143933E+03  0.51032143933E+03  0.00000000000E+00 0. -1.
         21   -1    0    0  501  502  0.00000000000E+00 -0.00000000000E+00 -0.29912739214E+02  0.29912739214E+02  0.00000000000E+00 0.  1.
        -24    2    1    2    0    0  0.27272737874E+02  0.34243853617E+01  0.27656654393E+03  0.28930914759E+03  0.80344265578E+02 0.  0.
         23    2    1    2    0    0 -0.48552584176E+02 -0.32196378845E+02  0.16905950409E+03  0.20102019798E+03  0.91837050429E+02 0.  0.
         13    1    3    3    0    0  0.55092813848E+02 -0.38009371621E+01  0.20141710787E+03  0.20885046469E+03  0.00000000000E+00 0. -1.
        -14    1    3    3    0    0 -0.27820075975E+02  0.72253225238E+01  0.75149436065E+02  0.80458682898E+02  0.00000000000E+00 0.  1.
        -11    1    4    4    0    0  0.22169147570E+02 -0.18423598109E+02  0.18898460383E+02  0.34468128411E+02  0.00000000000E+00 0.  1.
         11    1    4    4    0    0 -0.70721731746E+02 -0.13772780735E+02  0.15016104370E+03  0.16655206957E+03  0.00000000000E+00 0. -1.
          2    1    1    2  501    0  0.21279846302E+02  0.28771993483E+02  0.34782652099E+02  0.49904832979E+02  0.00000000000E+00 0. -1.
<scales pt_clust_5="13000.00000" pt_clust_6="13000.00000" pt_clust_7="13000.00000" pt_clust_8="13000.00000" pt_clust_9="35.78630"></scales>
<clustering>
<clus scale="   35.786">  2  9  1 -1</clus>
<clus scale="   80.344">  5  6 -1 -1</clus>
<clus scale="   87.760">  1  5  2 -1</clus>
<clus scale="   91.837">  7  8 -1 -1</clus>
<clus scale="   35.786">  2  5  1 -1</clus>
</clustering>
</event>
<event>
 9    1  0.6296820E-005  0.1747310E+03  0.7546771E-02  0.1192566E+00
         21   -1    0    0  501  502  0.00000000000E+00  0.00000000000E+00  0.83783850973E+02  0.83783850973E+02  0.00000000000E+00 0. -1.
          3   -1    0    0  502    0 -0.00000000000E+00 -0.00000000000E+00 -0.72985268673E+03  0.72985268673E+03  0.00000000000E+00 0. -1.
        -24    2    1    2    0    0  0.40870661813E+02  0.68024144706E+02 -0.30906509297E+03  0.32900356652E+03  0.80152478644E+02 0.  0.
         23    2    1    2    0    0  0.10153435148E+03 -0.11538791761E+03 -0.10547748413E+03  0.20872189267E+03  0.93892133653E+02 0.  0.
         11    1    3    3    0    0  0.62823677826E+02  0.31747597972E+02 -0.19234448462E+03  0.20481973839E+03  0.00000000000E+00 0. -1.
        -12    1    3    3    0    0 -0.21953016013E+02  0.36276546735E+02 -0.11672060835E+03  0.12418382813E+03  0.00000000000E+00 0.  1.
        -11    1    4    4    0    0  0.33269306092E+02 -0.99431575994E+02 -0.86943762931E+02  0.13620830718E+03  0.00000000000E+00 0.  1.
         11    1    4    4    0    0  0.68265045387E+02 -0.15956341617E+02 -0.18533721199E+02  0.72513585492E+02  0.00000000000E+00 0. -1.
          4    1    1    2  501    0 -0.14240501329E+03  0.47363772904E+02 -0.23152625866E+03  0.27591107851E+03  0.00000000000E+00 0. -1.
<scales pt_clust_5="13000.00000" pt_clust_6="13000.00000" pt_clust_7="13000.00000" pt_clust_8="13000.00000" pt_clust_9="147.36085"></scales>
<clustering>
<clus scale="   80.152">  5  6 -1 -1</clus>
<clus scale="   93.892">  7  8 -1 -1</clus>
<clus scale="  112.792">  2  5  1 -1</clus>
<clus scale="  147.361">  1  9  2 -1</clus>
<clus scale="  147.361">  1  5  2 -1</clus>
</clustering>
</event>
<event>
 9    1  0.6296820E-005  0.1018253E+03  0.7546771E-02  0.1283996E+00
          1   -1    0    0  502    0 -0.00000000000E+00  0.00000000000E+00  0.43852031582E+03  0.43852031582E+03  0.00000000000E+00 0. -1.
         21   -1    0    0  501  502  0.00000000000E+00 -0.00000000000E+00 -0.29516431371E+02  0.29516431371E+02  0.00000000000E+00 0.  1.
         23    2    1    2    0    0  0.21682021926E+02  0.38259404834E+02  0.27304747155E+03  0.29221047750E+03  0.94330002162E+02 0.  0.
        -24    2    1    2    0    0 -0.29775545077E+02 -0.15459917511E+02  0.11515974438E+03  0.14392292879E+03  0.79538987744E+02 0.  0.
         11    1    4    4    0    0 -0.25441047438E+02 -0.47450337593E+02  0.67159456411E+02  0.86076559050E+02  0.00000000000E+00 0. -1.
        -12    1    4    4    0    0 -0.43344976397E+01  0.31990420082E+02  0.48000287974E+02  0.57846369743E+02  0.00000000000E+00 0.  1.
        -11    1    3    3    0    0  0.16795100169E+01 -0.28899098078E+02  0.12651748610E+03  0.12978695201E+03  0.00000000000E+00 0.  1.
         11    1    3    3    0    0  0.20002511909E+02  0.67158502912E+02  0.14652998546E+03  0.16242352550E+03  0.00000000000E+00 0. -1.
          2    1    1    2  501    0  0.80935231519E+01 -0.22799487323E+02  0.20796668512E+02  0.31903340897E+02  0.00000000000E+00 0. -1.
<scales pt_clust_5="13000.00000" pt_clust_6="13000.00000" pt_clust_7="13000.00000" pt_clust_8="13000.00000" pt_clust_9="24.19342"></scales>
<clustering>
<clus scale="   24.193">  2  9  1 -1</clus>
<clus scale="   79.539">  5  6 -1 -1</clus>
<clus scale="   88.299">  2  5  1 -1</clus>
<clus scale="   94.330">  7  8 -1 -1</clus>
<clus scale="   24.193">  2  5  1 -1</clus>
</clustering>
</event>
<event>
 9    1  0.6296820E-005  0.1004249E+03  0.7546771E-02  0.1283312E+00
         21   -1    0    0  501  502  0.00000000000E+00  0.00000000000E+00  0.55351382994E+03  0.55351382994E+03  0.00000000000E+00 0.  1.
         -2   -1    0    0    0  501 -0.00000000000E+00 -0.00000000000E+00 -0.31724158574E+02  0.31724158574E+02  0.00000000000E+00 0.  1.
        -24    2    1    2    0    0  0.20470212876E+01 -0.26984089700E+02  0.94714020954E+02  0.13015637390E+03  0.85074111856E+02 0.  0.
         23    2    1    2    0    0  0.29360684599E+01  0.66925914660E+02  0.27796356467E+03  0.30063228739E+03  0.92888806584E+02 0.  0.
         13    1    3    3    0    0 -0.27731821644E+02 -0.23163018523E+02  0.93353890293E+02  0.10010258834E+03  0.00000000000E+00 0. -1.
        -14    1    3    3    0    0  0.29778842931E+02 -0.38210711770E+01  0.13601306616E+01  0.30053785563E+02  0.00000000000E+00 0.  1.
        -11    1    4    4    0    0 -0.33770069526E+02  0.24546630701E+02  0.20171400834E+03  0.20598906727E+03  0.00000000000E+00 0.  1.
         11    1    4    4    0    0  0.36706137986E+02  0.42379283959E+02  0.76249556329E+02  0.94643220122E+02  0.00000000000E+00 0. -1.
         -1    1    1    2    0  502 -0.49830897475E+01 -0.39941824960E+02  0.14911208574E+03  0.15444932722E+03  0.00000000000E+00 0.  1.
<scales pt_clust_5="13000.00000" pt_clust_6="13000.00000" pt_clust_7="13000.00000" pt_clust_8="13000.00000" pt_clust_9="40.25147"></scales>
<clustering>
<clus scale="   40.251">  1  9  2 -1</clus>
<clus scale="   85.074">  5  6 -1 -1</clus>
<clus scale="   92.889">  7  8 -1 -1</clus>
<clus scale="   93.244">  2  5  1 -1</clus>
<clus scale="   40.251">  1  5  2 -1</clus>
</clustering>
</event>
<event>
 9    1  0.6296820E-005  0.1339403E+03  0.7546771E-02  0.1224417E+00
         21   -1    0    0  501  502  0.00000000000E+00  0.00000000000E+00  0.36210358647E+03  0.36210358647E+03  0.00000000000E+00 0.  1.
          3   -1    0    0  502    0 -0.00000000000E+00 -0.00000000000E+00 -0.93752753109E+02  0.93752753109E+02  0.00000000000E+00 0. -1.
         23    2    1    2    0    0 -0.88544598604E+00  0.69099024717E+02  0.14422648516E+03  0.18436846022E+03  0.91733259344E+02 0.  0.
        -24    2    1    2    0    0  0.50520455406E+02 -0.11939955084E+03  0.13005846167E+03  0.20057250169E+03  0.80657025902E+02 0.  0.
         11    1    4    4    0    0  0.37361939083E+01 -0.93310171733E+02  0.10764121087E+03  0.14250395634E+03  0.00000000000E+00 0. -1.
        -12    1    4    4    0    0  0.46784261497E+02 -0.26089379108E+02  0.22417250794E+02  0.58068545351E+02  0.00000000000E+00 0.  1.
        -13    1    3    3    0    0 -0.24040283855E+02  0.82028119991E+02  0.12573227789E+03  0.15203668446E+03  0.00000000000E+00 0.  1.
         13    1    3    3    0    0  0.23154837869E+02 -0.12929095273E+02  0.18494207272E+02  0.32331775762E+02  0.00000000000E+00 0. -1.
          4    1    1    2  501    0 -0.49635009420E+02  0.50300526123E+02 -0.59341134627E+01  0.70915377676E+02  0.00000000000E+00 0. -1.
<scales pt_clust_5="13000.00000" pt_clust_6="13000.00000" pt_clust_7="13000.00000" pt_clust_8="13000.00000" pt_clust_9="70.66670"></scales>
<clustering>
<clus scale="   70.667">  1  9  2 -1</clus>
<clus scale="   80.657">  5  6 -1 -1</clus>
<clus scale="   91.733">  7  8 -1 -1</clus>
<clus scale="  126.612">  1  5  2 -1</clus>
<clus scale="   70.667">  1  5  2 -1</clus>
</clustering>
</event>
<event>
 9    1  0.6296820E-005  0.9903564E+02  0.7546771E-02  0.1289536E+00
         21   -1    0    0  501  502  0.00000000000E+00  0.00000000000E+00  0.19876492543E+03  0.19876492543E+03  0.00000000000E+00 0. -1.
          3   -1    0    0  502    0 -0.00000000000E+00 -0.00000000000E+00 -0.23786730619E+03  0.23786730619E+03  0.00000000000E+00 0. -1.
        -24    2    1    2    0    0  0.29010543621E+02 -0.22254540194E+02 -0.11594998727E+03  0.14545298899E+03  0.79845452321E+02 0.  0.
         23    2    1    2    0    0  0.28414188012E+02  0.23252672339E+02  0.16077494969E+03  0.18948167628E+03  0.93309529791E+02 0.  0.
         11    1    3    3    0    0  0.52851913821E+02 -0.32280307323E+02 -0.80189346406E+02  0.10131966400E+03  0.00000000000E+00 0. -1.
        -12    1    3    3    0    0 -0.23841370200E+02  0.10025767130E+02 -0.35760640865E+02  0.44133324990E+02  0.00000000000E+00 0.  1.
        -13    1    4    4    0    0 -0.22930573312E+02  0.28839406158E+02  0.25846873984E+02  0.45006482141E+02  0.00000000000E+00 0.  1.
         13    1    4    4    0    0  0.51344761324E+02 -0.55867338189E+01  0.13492807570E+03  0.14447519414E+03  0.00000000000E+00 0. -1.
          4    1    1    2  501    0 -0.57424731633E+02 -0.99813214540E+00 -0.83927343166E+02  0.10169756635E+03  0.00000000000E+00 0. -1.
<scales pt_clust_5="13000.00000" pt_clust_6="13000.00000" pt_clust_7="13000.00000" pt_clust_8="13000.00000" pt_clust_9="57.43343"></scales>
<clustering>
<clus scale="   57.433">  1  9  2 -1</clus>
<clus scale="   79.845">  5  6 -1 -1</clus>
<clus scale="   86.468">  2  5  1 -1</clus>
<clus scale="   93.310">  7  8 -1 -1</clus>
<clus scale="   57.433">  1  5  2 -1</clus>
</clustering>
</event>
<event>
 9    1  0.6296820E-005  0.9751875E+02  0.7546771E-02  0.1290085E+00
         -2   -1    0    0    0  501 -0.00000000000E+00  0.00000000000E+00  0.53972167201E+02  0.53972167201E+02  0.00000000000E+00 0.  1.
         21   -1    0    0  501  502  0.00000000000E+00 -0.00000000000E+00 -0.24979913719E+03  0.24979913719E+03  0.00000000000E+00 0. -1.
        -24    2    1    2    0    0  0.36906184539E+02 -0.30496105756E+02 -0.37055160905E+02  0.10180387301E+03  0.81846592394E+02 0.  0.
         23    2    1    2    0    0 -0.95153934282E+01  0.13988868187E+02 -0.10682761910E+03  0.14096789693E+03  0.90407834936E+02 0.  0.
         13    1    3    3    0    0  0.33066339327E+02 -0.10101231806E+02  0.20793087646E+02  0.40345633895E+02  0.00000000000E+00 0. -1.
        -14    1    3    3    0    0  0.38398452121E+01 -0.20394873950E+02 -0.57848248551E+02  0.61458239115E+02  0.00000000000E+00 0.  1.
        -13    1    4    4    0    0 -0.30731192097E+02 -0.11990348054E+02 -0.45119116007E+01  0.33294623597E+02  0.00000000000E+00 0.  1.
         13    1    4    4    0    0  0.21215798669E+02  0.25979216241E+02 -0.10231570750E+03  0.10767327334E+03  0.00000000000E+00 0. -1.
         -1    1    1    2    0  502 -0.27390791111E+02  0.16507237569E+02 -0.51944189984E+02  0.60999534448E+02  0.00000000000E+00 0.  1.
<scales pt_clust_5="13000.00000" pt_clust_6="13000.00000" pt_clust_7="13000.00000" pt_clust_8="13000.00000" pt_clust_9="31.98037"></scales>
<clustering>
<clus scale="   31.980">  2  9  1 -1</clus>
<clus scale="   81.847">  5  6 -1 -1</clus>
<clus scale="   89.639">  1  5  2 -1</clus>
<clus scale="   90.408">  7  8 -1 -1</clus>
<clus scale="   31.980">  2  5  1 -1</clus>
</clustering>
</event>
<event>
 9    1  0.6296820E-005  0.9456090E+02  0.7546771E-02  0.1300173E+00
          1   -1    0    0  502    0 -0.00000000000E+00  0.00000000000E+00  0.13801909670E+03  0.13801909670E+03  0.00000000000E+00 0. -1.
         21   -1    0    0  501  502  0.00000000000E+00 -0.00000000000E+00 -0.79882593230E+02  0.79882593230E+02  0.00000000000E+00 0. -1.
         23    2    1    2    0    0  0.19566296152E+02 -0.42959071346E+01  0.45254040002E+02  0.10642653738E+03  0.94219875602E+02 0.  0.
        -24    2    1    2    0    0  0.57753885472E+01 -0.91645739165E+01  0.12429231036E+02  0.82776878162E+02  0.81118316342E+02 0.  0.
         11    1    4    4    0    0  0.31251830301E+02 -0.20349200473E+02  0.31688563725E+02  0.48938041727E+02  0.00000000000E+00 0. -1.
        -12    1    4    4    0    0 -0.25476441754E+02  0.11184626557E+02 -0.19259332689E+02  0.33838836435E+02  0.00000000000E+00 0.  1.
        -13    1    3    3    0    0  0.16319426278E+02 -0.28894638849E+02 -0.18515043627E+02  0.38000403534E+02  0.00000000000E+00 0. -1.
         13    1    3    3    0    0  0.32468698742E+01  0.24598731714E+02  0.63769083629E+02  0.68426133844E+02  0.00000000000E+00 0.  1.
          2    1    1    2  501    0 -0.25341684699E+02  0.13460481051E+02  0.45323243615E+00  0.28698274393E+02  0.00000000000E+00 0. -1.
<scales pt_clust_5="13000.00000" pt_clust_6="13000.00000" pt_clust_7="13000.00000" pt_clust_8="13000.00000" pt_clust_9="28.69470"></scales>
<clustering>
<clus scale="   28.695">  2  9  1 -1</clus>
<clus scale="   81.118">  5  6 -1 -1</clus>
<clus scale="   81.514">  2  5  1 -1</clus>
<clus scale="   94.220">  7  8 -1 -1</clus>
<clus scale="   28.695">  2  5  1 -1</clus>
</clustering>
</event>
<event>
 9    1  0.6296820E-005  0.9554322E+02  0.7546771E-02  0.1295043E+00
         21   -1    0    0  501  502  0.00000000000E+00  0.00000000000E+00  0.30180447968E+03  0.30180447968E+03  0.00000000000E+00 0.  1.
          1   -1    0    0  502    0 -0.00000000000E+00 -0.00000000000E+00 -0.41273817975E+02  0.41273817975E+02  0.00000000000E+00 0. -1.
         23    2    1    2    0    0  0.20702733358E+02 -0.48620869824E+00  0.63613277818E+02  0.11322949526E+03  0.91353324591E+02 0.  0.
        -24    2    1    2    0    0 -0.38224624208E+02  0.14743319058E+02  0.12987315214E+03  0.15910128749E+03  0.82266011709E+02 0.  0.
         13    1    4    4    0    0 -0.57856750021E+02  0.17020691085E+02  0.12493572445E+03  0.13873010737E+03  0.00000000000E+00 0. -1.
        -14    1    4    4    0    0  0.19632125813E+02 -0.22773720272E+01  0.49374276908E+01  0.20371180120E+02  0.00000000000E+00 0.  1.
        -11    1    3    3    0    0 -0.24096136485E+02 -0.69178054333E+01 -0.98574099589E+01  0.26937861025E+02  0.00000000000E+00 0. -1.
         11    1    3    3    0    0  0.44798869843E+02  0.64315967350E+01  0.73470687777E+02  0.86291634230E+02  0.00000000000E+00 0.  1.
          2    1    1    2  501    0  0.17521890850E+02 -0.14257110359E+02  0.67044231744E+02  0.70747514902E+02  0.00000000000E+00 0. -1.
<scales pt_clust_5="13000.00000" pt_clust_6="13000.00000" pt_clust_7="13000.00000" pt_clust_8="13000.00000" pt_clust_9="22.58942"></scales>
<clustering>
<clus scale="   22.589">  1  9  2 -1</clus>
<clus scale="   82.266">  5  6 -1 -1</clus>
<clus scale="   86.895">  1  5  2 -1</clus>
<clus scale="   91.353">  7  8 -1 -1</clus>
<clus scale="   22.589">  1  5  2 -1</clus>
</clustering>
</event>
<event>
 9    1  0.6296820E-005  0.2085651E+03  0.7546771E-02  0.1153616E+00
          1   -1    0    0  502    0 -0.00000000000E+00  0.00000000000E+00  0.13453086604E+04  0.13453086604E+04  0.00000000000E+00 0. -1.
         21   -1    0    0  501  502  0.00000000000E+00 -0.00000000000E+00 -0.13486698695E+03  0.13486698695E+03  0.00000000000E+00 0. -1.
        -24    2    1    2    0    0  0.12178646153E+03  0.66739430456E+02  0.19651191009E+03  0.25399335773E+03  0.81299453727E+02 0.  0.
         23    2    1    2    0    0 -0.15681056664E+03 -0.24398368874E+03  0.99997164284E+03  0.10449723446E+04  0.88917492019E+02 0.  0.
         11    1    3    3    0    0  0.95738810200E+02  0.39968772376E+02  0.18942526101E+03  0.21597535056E+03  0.00000000000E+00 0. -1.
        -12    1    3    3    0    0  0.26047651327E+02  0.26770658081E+02  0.70866490801E+01  0.38018007166E+02  0.00000000000E+00 0.  1.
        -11    1    4    4    0    0 -0.11553568608E+03 -0.11541856255E+03  0.64004589194E+03  0.66055180200E+03  0.00000000000E+00 0.  1.
         11    1    4    4    0    0 -0.41274880566E+02 -0.12856512619E+03  0.35992575090E+03  0.38442054263E+03  0.00000000000E+00 0. -1.
          2    1    1    2  501    0  0.35024105115E+02  0.17724425828E+03  0.13958120531E+02  0.18120994499E+03  0.00000000000E+00 0. -1.
<scales pt_clust_5="13000.00000" pt_clust_6="13000.00000" pt_clust_7="13000.00000" pt_clust_8="13000.00000" pt_clust_9="188.66127"></scales>
<clustering>
<clus scale="   81.299">  5  6 -1 -1</clus>
<clus scale="   88.917">  7  8 -1 -1</clus>
<clus scale="  160.921">  1  5  2 -1</clus>
<clus scale="  188.661">  2  9  1 -1</clus>
<clus scale="  188.661">  2  5  1 -1</clus>
</clustering>
</event>
<event>
 9    1  0.6296820E-005  0.9178987E+02  0.7546771E-02  0.1304590E+00
         21   -1    0    0  501  502  0.00000000000E+00  0.00000000000E+00  0.67008228577E+02  0.67008228577E+02  0.00000000000E+00 0.  1.
         -4   -1    0    0    0  501 -0.00000000000E+00 -0.00000000000E+00 -0.25114296621E+03  0.25114296621E+03  0.00000000000E+00 0.  1.
         23    2    1    2    0    0 -0.46148230180E+01  0.82091406013E+01 -0.16403696480E+03  0.18803420654E+03  0.91433311353E+02 0.  0.
        -24    2    1    2    0    0 -0.34529167612E+02 -0.14774821021E+01 -0.12114727060E+02  0.89604073662E+02  0.81778218590E+02 0.  0.
         11    1    4    4    0    0 -0.71578008676E+01  0.24039415459E+02  0.26044430839E+02  0.36158539609E+02  0.00000000000E+00 0. -1.
        -12    1    4    4    0    0 -0.27371366744E+02 -0.25516897561E+02 -0.38159157899E+02  0.53445534053E+02  0.00000000000E+00 0.  1.
        -11    1    3    3    0    0 -0.33410622102E+02  0.36479018136E+02 -0.70097112134E+02  0.85793901665E+02  0.00000000000E+00 0. -1.
         11    1    3    3    0    0  0.28795799084E+02 -0.28269877534E+02 -0.93939852668E+02  0.10224030487E+03  0.00000000000E+00 0.  1.
         -3    1    1    2    0  502  0.39143990630E+02 -0.67316584992E+01 -0.79830457683E+01  0.40512914587E+02  0.00000000000E+00 0.  1.
<scales pt_clust_5="13000.00000" pt_clust_6="13000.00000" pt_clust_7="13000.00000" pt_clust_8="13000.00000" pt_clust_9="39.71860"></scales>
<clustering>
<clus scale="   39.719">  1  9  2 -1</clus>
<clus scale="   81.778">  5  6 -1 -1</clus>
<clus scale="   82.177">  1  5  2 -1</clus>
<clus scale="   91.433">  7  8 -1 -1</clus>
<clus scale="   39.719">  1  5  2 -1</clus>
</clustering>
</event>
<event>
 9    1  0.6296820E-005  0.8922267E+02  0.7546771E-02  0.1308549E+00
          1   -1    0    0  502    0 -0.00000000000E+00  0.00000000000E+00  0.24385917336E+02  0.24385917336E+02  0.00000000000E+00 0. -1.
         21   -1    0    0  501  502  0.00000000000E+00 -0.00000000000E+00 -0.57705138084E+03  0.57705138084E+03  0.00000000000E+00 0. -1.
         23    2    1    2    0    0  0.15296400176E+02  0.13235985638E+02 -0.96080256247E+02  0.13187597216E+03  0.88037975997E+02 0.  0.
        -24    2    1    2    0    0 -0.79244808309E+00  0.84251144064E+01 -0.37349501113E+03  0.38247775366E+03  0.81970105429E+02 0.  0.
         13    1    4    4    0    0 -0.30302936433E+01  0.37688491655E+02 -0.92139234217E+02  0.99595399316E+02  0.00000000000E+00 0. -1.
        -14    1    4    4    0    0  0.22378455602E+01 -0.29263377248E+02 -0.28135577691E+03  0.28288235435E+03  0.00000000000E+00 0.  1.
        -13    1    3    3    0    0 -0.82579125802E+01  0.24133056738E+02 -0.10209685851E+03  0.10523481395E+03  0.00000000000E+00 0.  1.
         13    1    3    3    0    0  0.23554312757E+02 -0.10897071101E+02  0.60166022667E+01  0.26641158211E+02  0.00000000000E+00 0. -1.
          2    1    1    2  501    0 -0.14503952093E+02 -0.21661100044E+02 -0.83090196128E+02  0.87083572355E+02  0.00000000000E+00 0. -1.
<scales pt_clust_5="13000.00000" pt_clust_6="13000.00000" pt_clust_7="13000.00000" pt_clust_8="13000.00000" pt_clust_9="26.06852"></scales>
<clustering>
<clus scale="   26.069">  2  9  1 -1</clus>
<clus scale="   81.970">  5  6 -1 -1</clus>
<clus scale="   83.241">  2  5  1 -1</clus>
<clus scale="   88.038">  7  8 -1 -1</clus>
<clus scale="   26.069">  2  5  1 -1</clus>
</clustering>
</event>
<event>
 9    1  0.6296820E-005  0.1749378E+03  0.7546771E-02  0.1193127E+00
          1   -1    0    0  502    0 -0.00000000000E+00  0.00000000000E+00  0.19759315558E+04  0.19759315558E+04  0.00000000000E+00 0. -1.
         21   -1    0    0  501  502  0.00000000000E+00 -0.00000000000E+00 -0.31536039800E+02  0.31536039800E+02  0.00000000000E+00 0. -1.
         23    2    1    2    0    0 -0.57552652723E+02 -0.27518436549E+02  0.19055024110E+03  0.22053115467E+03  0.90857160480E+02 0.  0.
        -24    2    1    2    0    0  0.25137050439E+01 -0.14185181901E+03  0.76229343957E+03  0.77951864708E+03  0.80185883191E+02 0.  0.
         11    1    4    4    0    0 -0.31820626396E+02 -0.10814145548E+03  0.47270912738E+03  0.48596403752E+03  0.00000000000E+00 0. -1.
        -12    1    4    4    0    0  0.34334331439E+02 -0.33710363525E+02  0.28958431219E+03  0.29355460956E+03  0.00000000000E+00 0.  1.
        -11    1    3    3    0    0 -0.77041544238E+02 -0.38245701577E+02  0.12864742719E+03  0.15475236266E+03  0.00000000000E+00 0. -1.
         11    1    3    3    0    0  0.19488891515E+02  0.10727265028E+02  0.61902813914E+02  0.65778792007E+02  0.00000000000E+00 0.  1.
          2    1    1    2  501    0  0.55038947679E+02  0.16937025556E+03  0.99155183531E+03  0.10074177938E+04  0.00000000000E+00 0. -1.
<scales pt_clust_5="13000.00000" pt_clust_6="13000.00000" pt_clust_7="13000.00000" pt_clust_8="13000.00000" pt_clust_9="155.47821"></scales>
<clustering>
<clus scale="   80.186">  5  6 -1 -1</clus>
<clus scale="   90.857">  7  8 -1 -1</clus>
<clus scale="  111.016">  1  7  2 -1</clus>
<clus scale="  155.478">  2  9  1 -1</clus>
<clus scale="  155.478">  2  5  1 -1</clus>
</clustering>
</event>
<event>
 9    1  0.6296820E-005  0.9700212E+02  0.7546771E-02  0.1292968E+00
          3   -1    0    0  502    0 -0.00000000000E+00  0.00000000000E+00  0.17819023834E+03  0.17819023834E+03  0.00000000000E+00 0. -1.
         21   -1    0    0  501  502  0.00000000000E+00 -0.00000000000E+00 -0.13385789415E+03  0.13385789415E+03  0.00000000000E+00 0.  1.
         23    2    1    2    0    0  0.29444284728E+02 -0.30880813630E+02  0.10287959399E+03  0.14404187114E+03  0.91341443100E+02 0.  0.
        -24    2    1    2    0    0  0.23218452573E+02  0.56515079812E+01 -0.69552932365E+02  0.10858398597E+03  0.79886391366E+02 0.  0.
         11    1    4    4    0    0  0.45508969368E+02  0.67562683357E+01 -0.13034249485E+02  0.47818459976E+02  0.00000000000E+00 0. -1.
        -12    1    4    4    0    0 -0.22290516795E+02 -0.11047603545E+01 -0.56518682880E+02  0.60765525991E+02  0.00000000000E+00 0.  1.
        -11    1    3    3    0    0  0.26737709769E+02  0.15696717766E+02  0.90655718250E+02  0.95811018801E+02  0.00000000000E+00 0. -1.
         11    1    3    3    0    0  0.27065749590E+01 -0.46577531396E+02  0.12223875740E+02  0.48230852336E+02  0.00000000000E+00 0.  1.
          4    1    1    2  501    0 -0.52662737302E+02  0.25229305649E+02  0.11005682570E+02  0.59422275390E+02  0.00000000000E+00 0. -1.
<scales pt_clust_5="13000.00000" pt_clust_6="13000.00000" pt_clust_7="13000.00000" pt_clust_8="13000.00000" pt_clust_9="58.39422"></scales>
<clustering>
<clus scale="   58.394">  2  9  1 -1</clus>
<clus scale="   79.886">  5  6 -1 -1</clus>
<clus scale="   86.302">  2  5  1 -1</clus>
<clus scale="   91.341">  7  8 -1 -1</clus>
<clus scale="   58.394">  2  5  1 -1</clus>
</clustering>
</event>
<event>
 9    1  0.6296820E-005  0.1122830E+03  0.7546771E-02  0.1260562E+00
         -4   -1    0    0    0  501 -0.00000000000E+00  0.00000000000E+00  0.23574939373E+03  0.23574939373E+03  0.00000000000E+00 0.  1.
         21   -1    0    0  501  502  0.00000000000E+00 -0.00000000000E+00 -0.29790329393E+03  0.29790329393E+03  0.00000000000E+00 0.  1.
         23    2    1    2    0    0 -0.30920559420E+02 -0.51915770510E+02  0.17612196689E+03  0.20759379127E+03  0.91787290677E+02 0.  0.
        -24    2    1    2    0    0  0.77388572155E+02  0.57895448976E+02 -0.55932037441E+02  0.13779231685E+03  0.80730760296E+02 0.  0.
         13    1    4    4    0    0  0.15004831463E+02  0.57793596070E+02 -0.44262559719E+02  0.74326434778E+02  0.00000000000E+00 0. -1.
        -14    1    4    4    0    0  0.62383740693E+02  0.10185290669E+00 -0.11669477722E+02  0.63465882072E+02  0.00000000000E+00 0.  1.
        -13    1    3    3    0    0 -0.56993989058E+02 -0.13425532543E+02  0.66996299557E+02  0.88977884146E+02  0.00000000000E+00 0.  1.
         13    1    3    3    0    0  0.26073429638E+02 -0.38490237967E+02  0.10912566733E+03  0.11861590712E+03  0.00000000000E+00 0. -1.
         -3    1    1    2    0  502 -0.46468012735E+02 -0.59796784663E+01 -0.18234382964E+03  0.18826657954E+03  0.00000000000E+00 0.  1.
<scales pt_clust_5="13000.00000" pt_clust_6="13000.00000" pt_clust_7="13000.00000" pt_clust_8="13000.00000" pt_clust_9="46.85118"></scales>
<clustering>
<clus scale="   46.851">  2  9  1 -1</clus>
<clus scale="   80.731">  5  6 -1 -1</clus>
<clus scale="   91.787">  7  8 -1 -1</clus>
<clus scale="  103.441">  2  5  1 -1</clus>
<clus scale="   46.851">  2  5  1 -1</clus>
</clustering>
</event>
<event>
 9    1  0.6296820E-005  0.9568303E+02  0.7546771E-02  0.1298371E+00
         21   -1    0    0  501  502  0.00000000000E+00  0.00000000000E+00  0.10376079565E+03  0.10376079565E+03  0.00000000000E+00 0.  1.
         -4   -1    0    0    0  501 -0.00000000000E+00 -0.00000000000E+00 -0.36424567448E+03  0.36424567448E+03  0.00000000000E+00 0.  1.
        -24    2    1    2    0    0 -0.18729759846E+01  0.13323037262E+02 -0.25298741502E+03  0.26570686759E+03  0.80103033439E+02 0.  0.
         23    2    1    2    0    0 -0.31317747662E+02 -0.13087456580E+02 -0.76099625555E+02  0.12608978538E+03  0.94632965343E+02 0.  0.
         11    1    3    3    0    0 -0.26316976326E+01 -0.29758182970E+02 -0.16561247739E+03  0.16828537653E+03  0.00000000000E+00 0. -1.
        -12    1    3    3    0    0  0.75872164804E+00  0.43081220232E+02 -0.87374937631E+02  0.97421491064E+02  0.00000000000E+00 0.  1.
        -13    1    4    4    0    0  0.31227692353E+02 -0.20793249951E+02 -0.28189281395E+02  0.46927215971E+02  0.00000000000E+00 0. -1.
         13    1    4    4    0    0 -0.62545440015E+02  0.77057933705E+01 -0.47910344160E+02  0.79162569411E+02  0.00000000000E+00 0.  1.
         -3    1    1    2    0  502  0.33190723647E+02 -0.23558068185E+00  0.68602161746E+02  0.76209817154E+02  0.00000000000E+00 0.  1.
<scales pt_clust_5="13000.00000" pt_clust_6="13000.00000" pt_clust_7="13000.00000" pt_clust_8="13000.00000" pt_clust_9="33.19156"></scales>
<clustering>
<clus scale="   33.192">  1  9  2 -1</clus>
<clus scale="   80.103">  5  6 -1 -1</clus>
<clus scale="   81.341">  2  5  1 -1</clus>
<clus scale="   94.633">  7  8 -1 -1</clus>
<clus scale="   33.192">  1  5  2 -1</clus>
</clustering>
</event>
<event>
 9    1  0.6296820E-005  0.1040807E+03  0.7546771E-02  0.1283155E+00
          1   -1    0    0  502    0 -0.00000000000E+00  0.00000000000E+00  0.80361712699E+03  0.80361712699E+03  0.00000000000E+00 0. -1.
         21   -1    0    0  501  502  0.00000000000E+00 -0.00000000000E+00 -0.18760211829E+02  0.18760211829E+02  0.00000000000E+00 0. -1.
        -24    2    1    2    0    0  0.16382771985E+02  0.25001576778E+02  0.38873035129E+03  0.39762292743E+03  0.78097582197E+02 0.  0.
         23    2    1    2    0    0 -0.45824359082E+02 -0.35643923691E+01  0.23063818259E+03  0.25530599958E+03  0.99371048973E+02 0.  0.
         13    1    3    3    0    0  0.10656571195E+01  0.50448759863E+02  0.18578474653E+03  0.19251541507E+03  0.00000000000E+00 0. -1.
        -14    1    3    3    0    0  0.15317114866E+02 -0.25447183085E+02  0.20294560476E+03  0.20510751236E+03  0.00000000000E+00 0.  1.
        -11    1    4    4    0    0  0.15375793637E+02  0.30567566815E+02  0.11605329179E+03  0.12099238697E+03  0.00000000000E+00 0.  1.
         11    1    4    4    0    0 -0.61200152719E+02 -0.34131959184E+02  0.11458489080E+03  0.13431361260E+03  0.00000000000E+00 0. -1.
          2    1    1    2  501    0  0.29441587096E+02 -0.21437184409E+02  0.16548838128E+03  0.16944841181E+03  0.00000000000E+00 0. -1.
<scales pt_clust_5="13000.00000" pt_clust_6="13000.00000" pt_clust_7="13000.00000" pt_clust_8="13000.00000" pt_clust_9="36.41924"></scales>
<clustering>
<clus scale="   36.419">  2  9  1 -1</clus>
<clus scale="   78.098">  5  6 -1 -1</clus>
<clus scale="   84.008">  1  5  2 -1</clus>
<clus scale="   99.371">  7  8 -1 -1</clus>
<clus scale="   36.419">  2  5  1 -1</clus>
</clustering>
</event>
<event>
 9    1  0.6296820E-005  0.1229839E+03  0.7546771E-02  0.1241370E+00
         21   -1    0    0  501  502  0.00000000000E+00  0.00000000000E+00  0.32776806569E+03  0.32776806569E+03  0.00000000000E+00 0. -1.
          1   -1    0    0  502    0 -0.00000000000E+00 -0.00000000000E+00 -0.80388472276E+02  0.80388472276E+02  0.00000000000E+00 0. -1.
         23    2    1    2    0    0  0.36652074056E+02  0.80293028789E+02  0.66903956521E+02  0.14276747841E+03  0.90089225150E+02 0.  0.
        -24    2    1    2    0    0 -0.42385865059E+01 -0.78151419300E+02  0.19889944027E+03  0.22804395014E+03  0.79482362197E+02 0.  0.
         13    1    4    4    0    0 -0.35419732187E+02 -0.70520921269E+02  0.15107534447E+03  0.17044505705E+03  0.00000000000E+00 0. -1.
        -14    1    4    4    0    0  0.31181145681E+02 -0.76304980315E+01  0.47824095796E+02  0.57598893087E+02  0.00000000000E+00 0.  1.
        -13    1    3    3    0    0 -0.18319747223E+02  0.32094197045E+02  0.58474948754E+02  0.69173479413E+02  0.00000000000E+00 0.  1.
         13    1    3    3    0    0  0.54971821279E+02  0.48198831744E+02  0.84290077673E+01  0.73593998996E+02  0.00000000000E+00 0. -1.
          2    1    1    2  501    0 -0.32413487550E+02 -0.21416094890E+01 -0.18423803381E+02  0.37345109417E+02  0.00000000000E+00 0. -1.
<scales pt_clust_5="13000.00000" pt_clust_6="13000.00000" pt_clust_7="13000.00000" pt_clust_8="13000.00000" pt_clust_9="32.48418"></scales>
<clustering>
<clus scale="   32.484">  1  9  2 -1</clus>
<clus scale="   79.482">  5  6 -1 -1</clus>
<clus scale="   90.089">  7  8 -1 -1</clus>
<clus scale="  115.440">  1  5  2 -1</clus>
<clus scale="   32.484">  1  5  2 -1</clus>
</clustering>
</event>
<event>
 9    1  0.6296820E-005  0.9386586E+02  0.7546771E-02  0.1299812E+00
         21   -1    0    0  501  502  0.00000000000E+00  0.00000000000E+00  0.44952457442E+02  0.44952457442E+02  0.00000000000E+00 0. -1.
          1   -1    0    0  502    0 -0.00000000000E+00 -0.00000000000E+00 -0.41050946636E+03  0.41050946636E+03  0.00000000000E+00 0. -1.
        -24    2    1    2    0    0 -0.16210360990E+02 -0.37652012692E+01 -0.21480783276E+03  0.23023839965E+03  0.81181051444E+02 0.  0.
         23    2    1    2    0    0  0.20832033781E+02  0.48763184264E+02 -0.54629190676E+02  0.11899156125E+03  0.91448463104E+02 0.  0.
         11    1    3    3    0    0  0.29957769392E+02 -0.17299379446E+02 -0.82769592011E+02  0.89708092376E+02  0.00000000000E+00 0. -1.
        -12    1    3    3    0    0 -0.46168130382E+02  0.13534178177E+02 -0.13203824075E+03  0.14053030727E+03  0.00000000000E+00 0.  1.
        -11    1    4    4    0    0 -0.10391168822E+02  0.30490543652E+02 -0.71987222443E+02  0.78865771009E+02  0.00000000000E+00 0.  1.
         11    1    4    4    0    0  0.31223202603E+02  0.18272640611E+02  0.17358031768E+02  0.40125790242E+02  0.00000000000E+00 0. -1.
          2    1    1    2  501    0 -0.46216727912E+01 -0.44997982994E+02 -0.96119985485E+02  0.10623196290E+03  0.00000000000E+00 0. -1.
<scales pt_clust_5="13000.00000" pt_clust_6="13000.00000" pt_clust_7="13000.00000" pt_clust_8="13000.00000" pt_clust_9="45.23473"></scales>
<clustering>
<clus scale="   45.235">  1  9  2 -1</clus>
<clus scale="   81.181">  5  6 -1 -1</clus>
<clus scale="   83.895">  2  5  1 -1</clus>
<clus scale="   91.448">  7  8 -1 -1</clus>
<clus scale="   45.235">  1  5  2 -1</clus>
</clustering>
</event>
<event>
 9    1  0.6296820E-005  0.1329577E+03  0.7546771E-02  0.1240264E+00
         -2   -1    0    0    0  501 -0.00000000000E+00  0.00000000000E+00  0.42455938171E+03  0.42455938171E+03  0.00000000000E+00 0.  1.
         21   -1    0    0  501  502  0.00000000000E+00 -0.00000000000E+00 -0.20284461181E+03  0.20284461181E+03  0.00000000000E+00 0.  1.
        -24    2    1    2    0    0 -0.44292322069E+02 -0.23019289706E+02  0.93569703017E+02  0.13223094625E+03  0.78981240377E+02 0.  0.
         23    2    1    2    0    0 -0.44499630884E+02 -0.19523846675E+02  0.28871900909E+03  0.30681721307E+03  0.91742783310E+02 0.  0.
         13    1    3    3    0    0  0.19178965058E+02 -0.59388683256E+01  0.29645970225E+01  0.20295115008E+02  0.00000000000E+00 0. -1.
        -14    1    3    3    0    0 -0.63471287128E+02 -0.17080421380E+02  0.90605105995E+02  0.11193583125E+03  0.00000000000E+00 0.  1.
        -13    1    4    4    0    0 -0.58055209748E+01  0.32639836331E+02  0.54787252862E+02  0.64036755584E+02  0.00000000000E+00 0.  1.
         13    1    4    4    0    0 -0.38694109910E+02 -0.52163683006E+02  0.23393175622E+03  0.24278045748E+03  0.00000000000E+00 0. -1.
         -1    1    1    2    0  502  0.88791952954E+02  0.42543136381E+02 -0.16057394220E+03  0.18835583420E+03  0.00000000000E+00 0.  1.
<scales pt_clust_5="13000.00000" pt_clust_6="13000.00000" pt_clust_7="13000.00000" pt_clust_8="13000.00000" pt_clust_9="96.23411"></scales>
<clustering>
<clus scale="   78.981">  5  6 -1 -1</clus>
<clus scale="   91.743">  7  8 -1 -1</clus>
<clus scale="   93.433">  1  5  2 -1</clus>
<clus scale="   96.234">  2  9  1 -1</clus>
<clus scale="   96.234">  2  5  1 -1</clus>
</clustering>
</event>
<event>
 9    1  0.6296820E-005  0.1476171E+03  0.7546771E-02  0.1229027E+00
          1   -1    0    0  502    0 -0.00000000000E+00  0.00000000000E+00  0.65611171002E+03  0.65611171002E+03  0.00000000000E+00 0. -1.
         21   -1    0    0  501  502  0.00000000000E+00 -0.00000000000E+00 -0.50448511269E+02  0.50448511269E+02  0.00000000000E+00 0. -1.
        -24    2    1    2    0    0  0.12545007555E+02 -0.24668502731E+02  0.11329840748E+03  0.14220950883E+03  0.81370160522E+02 0.  0.
         23    2    1    2    0    0  0.89516508946E+02  0.80075910350E+02  0.34791888435E+03  0.37901006933E+03  0.90419720037E+02 0.  0.
         11    1    3    3    0    0 -0.15612309013E+02  0.23260774140E+02  0.54595473705E+02  0.61363454559E+02  0.00000000000E+00 0. -1.
        -12    1    3    3    0    0  0.28157316569E+02 -0.47929276872E+02  0.58702933772E+02  0.80846054271E+02  0.00000000000E+00 0.  1.
        -11    1    4    4    0    0 -0.84656266969E+01  0.37473617330E+02  0.53980568592E+02  0.66255872319E+02  0.00000000000E+00 0.  1.
         11    1    4    4    0    0  0.97982135643E+02  0.42602293020E+02  0.29393831576E+03  0.31275419701E+03  0.00000000000E+00 0. -1.
          2    1    1    2  501    0 -0.10206151650E+03 -0.55407407618E+02  0.14444590692E+03  0.18534064313E+03  0.00000000000E+00 0. -1.
<scales pt_clust_5="13000.00000" pt_clust_6="13000.00000" pt_clust_7="13000.00000" pt_clust_8="13000.00000" pt_clust_9="116.68374"></scales>
<clustering>
<clus scale="   81.370">  5  6 -1 -1</clus>
<clus scale="   85.948">  1  5  2 -1</clus>
<clus scale="   90.420">  7  8 -1 -1</clus>
<clus scale="  116.684">  2  9  1 -1</clus>
<clus scale="  116.684">  2  5  1 -1</clus>
</clustering>
</event>
<event>
 9    1  0.6349880E-005  0.1414702E+03  0.7546771E-02  0.1232058E+00
         21   -1    0    0  501  502  0.00000000000E+00  0.00000000000E+00  0.23590500370E+03  0.23590500370E+03  0.00000000000E+00 0. -1.
          1   -1    0    0  502    0 -0.00000000000E+00 -0.00000000000E+00 -0.36602945398E+03  0.36602945398E+03  0.00000000000E+00 0. -1.
         23    2    1    2    0    0  0.17077954855E+02 -0.26001211232E+01 -0.46036050609E+02  0.10263002189E+03  0.90084328639E+02 0.  0.
        -24    2    1    2    0    0 -0.11455107617E+03 -0.57934422651E+02 -0.25293555943E+03  0.29516035987E+03  0.81638804712E+02 0.  0.
         13    1    4    4    0    0 -0.88088166556E+02 -0.29277783652E+02 -0.23412450879E+03  0.25185511573E+03  0.00000000000E+00 0. -1.
        -14    1    4    4    0    0 -0.26462909610E+02 -0.28656638999E+02 -0.18811050640E+02  0.43305244139E+02  0.00000000000E+00 0.  1.
        -11    1    3    3    0    0  0.43665638775E+02  0.27155699287E+02 -0.30649978927E+02  0.59862686388E+02  0.00000000000E+00 0.  1.
         11    1    3    3    0    0 -0.26587683919E+02 -0.29755820410E+02 -0.15386071682E+02  0.42767335506E+02  0.00000000000E+00 0. -1.
          2    1    1    2  501    0  0.97473121311E+02  0.60534543774E+02  0.16884715977E+03  0.20414407591E+03  0.00000000000E+00 0. -1.
<scales pt_clust_5="13000.00000" pt_clust_6="13000.00000" pt_clust_7="13000.00000" pt_clust_8="13000.00000" pt_clust_9="115.53752"></scales>
<clustering>
<clus scale="   81.639">  5  6 -1 -1</clus>
<clus scale="   90.084">  7  8 -1 -1</clus>
<clus scale="   91.726">  2  7  1 -1</clus>
<clus scale="  115.538">  1  9  2 -1</clus>
<clus scale="  115.538">  1  5  2 -1</clus>
</clustering>
</event>
<event>
 9    1  0.6296820E-005  0.1696659E+03  0.7546771E-02  0.1207704E+00
         21   -1    0    0  501  502  0.00000000000E+00  0.00000000000E+00  0.81721187724E+02  0.81721187724E+02  0.00000000000E+00 0. -1.
          1   -1    0    0  502    0 -0.00000000000E+00 -0.00000000000E+00 -0.54586095098E+03  0.54586095098E+03  0.00000000000E+00 0. -1.
        -24    2    1    2    0    0 -0.33181891670E+02  0.66708604759E+00 -0.16876747555E+03  0.19065037552E+03  0.82241242358E+02 0.  0.
         23    2    1    2    0    0 -0.12315957515E+03 -0.18690096388E+02 -0.20502622612E+03  0.25546580497E+03  0.87803322571E+02 0.  0.
         11    1    3    3    0    0 -0.27872867363E+01 -0.37044368354E+02 -0.98804275079E+02  0.10555727814E+03  0.00000000000E+00 0. -1.
        -12    1    3    3    0    0 -0.30394604933E+02  0.37711454402E+02 -0.69963200470E+02  0.85093097382E+02  0.00000000000E+00 0.  1.
        -13    1    4    4    0    0 -0.12239167793E+02 -0.20250067522E+02 -0.15462239605E+01  0.23711880386E+02  0.00000000000E+00 0.  1.
         13    1    4    4    0    0 -0.11092040735E+03  0.15599711336E+01 -0.20348000216E+03  0.23175392458E+03  0.00000000000E+00 0. -1.
          2    1    1    2  501    0  0.15634146682E+03  0.18023010340E+02 -0.90346061582E+02  0.18146595822E+03  0.00000000000E+00 0. -1.
<scales pt_clust_5="13000.00000" pt_clust_6="13000.00000" pt_clust_7="13000.00000" pt_clust_8="13000.00000" pt_clust_9="145.17947"></scales>
<clustering>
<clus scale="   82.241">  5  6 -1 -1</clus>
<clus scale="   87.803">  7  8 -1 -1</clus>
<clus scale="   88.685">  2  5  1 -1</clus>
<clus scale="  145.179">  1  9  2 -1</clus>
<clus scale="  145.179">  1  5  2 -1</clus>
</clustering>
</event>
<event>
 9    1  0.6296820E-005  0.1358601E+03  0.7546771E-02  0.1221125E+00
          1   -1    0    0  502    0 -0.00000000000E+00  0.00000000000E+00  0.16607475640E+03  0.16607475640E+03  0.00000000000E+00 0. -1.
         21   -1    0    0  501  502  0.00000000000E+00 -0.00000000000E+00 -0.66389604794E+03  0.66389604794E+03  0.00000000000E+00 0.  1.
         23    2    1    2    0    0  0.50185255250E+02 -0.67884545310E+02  0.71879142764E+02  0.14421157958E+03  0.92214408759E+02 0.  0.
        -24    2    1    2    0    0 -0.12424444004E+03  0.15376776955E+03 -0.18043152235E+03  0.28030765322E+03  0.83280480081E+02 0.  0.
         13    1    4    4    0    0 -0.98428159068E+02  0.55768282395E+02 -0.92358434996E+02  0.14604206358E+03  0.00000000000E+00 0. -1.
        -14    1    4    4    0    0 -0.25816280969E+02  0.97999487154E+02 -0.88073087355E+02  0.13426558964E+03  0.00000000000E+00 0.  1.
        -13    1    3    3    0    0  0.24259772992E+02 -0.10661726196E+02 -0.19795912511E+02  0.33076988123E+02  0.00000000000E+00 0.  1.
         13    1    3    3    0    0  0.25925482258E+02 -0.57222819114E+02  0.91675055276E+02  0.11113459145E+03  0.00000000000E+00 0. -1.
          2    1    1    2  501    0  0.74059184787E+02 -0.85883224239E+02 -0.38926891195E+03  0.40545157155E+03  0.00000000000E+00 0. -1.
<scales pt_clust_5="13000.00000" pt_clust_6="13000.00000" pt_clust_7="13000.00000" pt_clust_8="13000.00000" pt_clust_9="113.40499"></scales>
<clustering>
<clus scale="   83.280">  5  6 -1 -1</clus>
<clus scale="   92.214">  7  8 -1 -1</clus>
<clus scale="  113.405">  2  9  1 -1</clus>
<clus scale="  129.962">  2  5  1 -1</clus>
<clus scale="  113.405">  2  5  1 -1</clus>
</clustering>
</event>
<event>
 9    1  0.6296820E-005  0.1129158E+03  0.7546771E-02  0.1258876E+00
         21   -1    0    0  501  502  0.00000000000E+00  0.00000000000E+00  0.72683314516E+03  0.72683314516E+03  0.00000000000E+00 0.  1.
         -4   -1    0    0    0  501 -0.00000000000E+00 -0.00000000000E+00 -0.58820796751E+02  0.58820796751E+02  0.00000000000E+00 0.  1.
        -24    2    1    2    0    0 -0.32729369454E+02 -0.52334968587E+02  0.23275620793E+02  0.10385277650E+03  0.80209002618E+02 0.  0.
         23    2    1    2    0    0  0.96883573549E+02  0.53944489735E+02  0.31538755058E+03  0.34625797464E+03  0.90160097293E+02 0.  0.
         13    1    3    3    0    0 -0.23401735138E+02 -0.10114081335E+02  0.47777837105E+02  0.54154017092E+02  0.00000000000E+00 0. -1.
        -14    1    3    3    0    0 -0.93276343161E+01 -0.42220887251E+02 -0.24502216312E+02  0.49698759405E+02  0.00000000000E+00 0.  1.
        -11    1    4    4    0    0  0.48993520585E+02  0.28616455795E+02  0.50723478974E+02  0.76106096476E+02  0.00000000000E+00 0.  1.
         11    1    4    4    0    0  0.47890052964E+02  0.25328033940E+02  0.26466407160E+03  0.27015187816E+03  0.00000000000E+00 0. -1.
         -3    1    1    2    0  502 -0.64154204095E+02 -0.16095211486E+01  0.32934917704E+03  0.33554319078E+03  0.00000000000E+00 0.  1.
<scales pt_clust_5="13000.00000" pt_clust_6="13000.00000" pt_clust_7="13000.00000" pt_clust_8="13000.00000" pt_clust_9="64.17439"></scales>
<clustering>
<clus scale="   64.174">  1  9  2 -1</clus>
<clus scale="   80.209">  5  6 -1 -1</clus>
<clus scale="   90.160">  7  8 -1 -1</clus>
<clus scale="  105.141">  2  5  1 -1</clus>
<clus scale="   64.174">  1  5  2 -1</clus>
</clustering>
</event>
<event>
 9    1  0.6296820E-005  0.1051769E+03  0.7546771E-02  0.1273809E+00
          1   -1    0    0  502    0 -0.00000000000E+00  0.00000000000E+00  0.39855288646E+02  0.39855288646E+02  0.00000000000E+00 0. -1.
         21   -1    0    0  501  502  0.00000000000E+00 -0.00000000000E+00 -0.41148498246E+03  0.41148498246E+03  0.00000000000E+00 0. -1.
        -24    2    1    2    0    0 -0.56620249735E+02 -0.27519480657E+02 -0.99933941187E+02  0.14482324153E+03  0.83808139170E+02 0.  0.
         23    2    1    2    0    0  0.24905987846E+02  0.21412457762E+02 -0.14163116608E+03  0.17250252734E+03  0.92838209562E+02 0.  0.
         11    1    3    3    0    0 -0.48576930183E+02 -0.34253621989E+01 -0.10775269912E+03  0.11824591079E+03  0.00000000000E+00 0. -1.
        -12    1    3    3    0    0 -0.80433195520E+01 -0.24094118459E+02  0.78187579299E+01  0.26577330740E+02  0.00000000000E+00 0.  1.
        -13    1    4    4    0    0 -0.67026018807E+01 -0.24878824094E+02 -0.98392215236E+02  0.10170992468E+03  0.00000000000E+00 0.  1.
         13    1    4    4    0    0  0.31608589727E+02  0.46291281856E+02 -0.43238950846E+02  0.70792602655E+02  0.00000000000E+00 0. -1.
          2    1    1    2  501    0  0.31714261890E+02  0.61070228956E+01 -0.13006458654E+03  0.13401450223E+03  0.00000000000E+00 0. -1.
<scales pt_clust_5="13000.00000" pt_clust_6="13000.00000" pt_clust_7="13000.00000" pt_clust_8="13000.00000" pt_clust_9="32.29691"></scales>
<clustering>
<clus scale="   32.297">  2  9  1 -1</clus>
<clus scale="   83.808">  5  6 -1 -1</clus>
<clus scale="   92.838">  7  8 -1 -1</clus>
<clus scale="   97.299">  1  5  2 -1</clus>
<clus scale="   32.297">  2  5  1 -1</clus>
</clustering>
</event>
<event>
 9    1  0.6296820E-005  0.1102658E+03  0.7546771E-02  0.1264548E+00
          3   -1    0    0  502    0 -0.00000000000E+00  0.00000000000E+00  0.15392635072E+03  0.15392635072E+03  0.00000000000E+00 0. -1.
         21   -1    0    0  501  502  0.00000000000E+00 -0.00000000000E+00 -0.16033915434E+03  0.16033915434E+03  0.00000000000E+00 0. -1.
         23    2    1    2    0    0 -0.53368803998E+02  0.49705267352E+02  0.74189888611E+02  0.13857374580E+03  0.91540704663E+02 0.  0.
        -24    2    1    2    0    0  0.12803770291E+02 -0.46409364262E+02 -0.98019241741E+01  0.94026995160E+02  0.80170022305E+02 0.  0.
         13    1    4    4    0    0 -0.13431537058E+02  0.15549312677E+02  0.11379008278E+02  0.23487638065E+02  0.00000000000E+00 0. -1.
        -14    1    4    4    0    0  0.26235307350E+02 -0.61958676939E+02 -0.21180932452E+02  0.70539357095E+02  0.00000000000E+00 0.  1.
        -11    1    3    3    0    0 -0.49227565079E+02 -0.86366915203E+01  0.86357927026E+01  0.50720040612E+02  0.00000000000E+00 0.  1.
         11    1    3    3    0    0 -0.41412389182E+01  0.58341958873E+02  0.65554095909E+02  0.87853705188E+02  0.00000000000E+00 0. -1.
          4    1    1    2  501    0  0.40565033706E+02 -0.32959030903E+01 -0.70800768063E+02  0.81664764098E+02  0.00000000000E+00 0. -1.
<scales pt_clust_5="13000.00000" pt_clust_6="13000.00000" pt_clust_7="13000.00000" pt_clust_8="13000.00000" pt_clust_9="40.69871"></scales>
<clustering>
<clus scale="   40.699">  2  9  1 -1</clus>
<clus scale="   80.170">  5  6 -1 -1</clus>
<clus scale="   91.541">  7  8 -1 -1</clus>
<clus scale="  101.025">  2  5  1 -1</clus>
<clus scale="   40.699">  2  5  1 -1</clus>
</clustering>
</event>
<event>
 9    1  0.6419771E-005  0.1206107E+03  0.7546771E-02  0.1244580E+00
         21   -1    0    0  501  502  0.00000000000E+00  0.00000000000E+00  0.22102522419E+03  0.22102522419E+03  0.00000000000E+00 0. -1.
          1   -1    0    0  502    0 -0.00000000000E+00 -0.00000000000E+00 -0.32704733906E+03  0.32704733906E+03  0.00000000000E+00 0. -1.
        -24    2    1    2    0    0  0.73697882221E+02  0.72372356492E+01 -0.30488180251E+02  0.11366842286E+03  0.80667377519E+02 0.  0.
         23    2    1    2    0    0 -0.11027308049E+03  0.80292447850E+02  0.12980148690E+03  0.20821433967E+03  0.88869318552E+02 0.  0.
         11    1    3    3    0    0  0.73350327989E+02 -0.24825651815E+02 -0.21776661178E+02  0.80441323809E+02  0.00000000000E+00 0. -1.
        -12    1    3    3    0    0  0.34755423225E+00  0.32062887464E+02 -0.87115190732E+01  0.33227099046E+02  0.00000000000E+00 0.  1.
        -11    1    4    4    0    0 -0.33527307841E+02  0.34123499452E+02 -0.31141016420E+01  0.47939453637E+02  0.00000000000E+00 0.  1.
         11    1    4    4    0    0 -0.76745772652E+02  0.46168948397E+02  0.13291558854E+03  0.16027488603E+03  0.00000000000E+00 0. -1.
          2    1    1    2  501    0  0.36575198272E+02 -0.87529683499E+02 -0.20533542152E+03  0.22618980073E+03  0.00000000000E+00 0. -1.
<scales pt_clust_5="13000.00000" pt_clust_6="13000.00000" pt_clust_7="13000.00000" pt_clust_8="13000.00000" pt_clust_9="94.86411"></scales>
<clustering>
<clus scale="   80.667">  5  6 -1 -1</clus>
<clus scale="   88.869">  7  8 -1 -1</clus>
<clus scale="   94.864">  1  9  2 -1</clus>
<clus scale="  114.701">  2  5  1 -1</clus>
<clus scale="   94.864">  1  5  2 -1</clus>
</clustering>
</event>
<event>
 9    1  0.6296820E-005  0.1370411E+03  0.7546771E-02  0.1218755E+00
         21   -1    0    0  501  502  0.00000000000E+00  0.00000000000E+00  0.22511552498E+03  0.22511552498E+03  0.00000000000E+00 0.  1.
          1   -1    0    0  502    0 -0.00000000000E+00 -0.00000000000E+00 -0.18549117136E+03  0.18549117136E+03  0.00000000000E+00 0. -1.
         23    2    1    2    0    0 -0.10362266235E+03  0.38637841018E+00 -0.10259103326E+01  0.13496629013E+03  0.86469888039E+02 0.  0.
        -24    2    1    2    0    0  0.95551335326E+02 -0.95845703563E+02  0.74543597326E+02  0.17402157368E+03  0.80064371781E+02 0.  0.
         13    1    4    4    0    0 -0.10349101561E+02 -0.22560248549E+02 -0.76705913593E+00  0.24832581368E+02  0.00000000000E+00 0. -1.
        -14    1    4    4    0    0  0.10590043689E+03 -0.73285455015E+02  0.75310656462E+02  0.14918899231E+03  0.00000000000E+00 0.  1.
        -11    1    3    3    0    0 -0.86794872461E+02 -0.30908937625E+02  0.19152520984E+02  0.94103832923E+02  0.00000000000E+00 0.  1.
         11    1    3    3    0    0 -0.16827789889E+02  0.31295316035E+02 -0.20178431317E+02  0.40862457203E+02  0.00000000000E+00 0. -1.
          2    1    1    2  501    0  0.80713270246E+01  0.95459325153E+02 -0.33893333375E+02  0.10161883254E+03  0.00000000000E+00 0. -1.
<scales pt_clust_5="13000.00000" pt_clust_6="13000.00000" pt_clust_7="13000.00000" pt_clust_8="13000.00000" pt_clust_9="95.79999"></scales>
<clustering>
<clus scale="   80.064">  5  6 -1 -1</clus>
<clus scale="   86.470">  7  8 -1 -1</clus>
<clus scale="   95.800">  1  9  2 -1</clus>
<clus scale="  133.092">  1  5  2 -1</clus>
<clus scale="   95.800">  1  5  2 -1</clus>
</clustering>
</event>
<event>
 9    1  0.6296820E-005  0.1811760E+03  0.7546771E-02  0.1196378E+00
         21   -1    0    0  501  502  0.00000000000E+00  0.00000000000E+00  0.19882408066E+03  0.19882408066E+03  0.00000000000E+00 0. -1.
          1   -1    0    0  502    0 -0.00000000000E+00 -0.00000000000E+00 -0.32921014945E+03  0.32921014945E+03  0.00000000000E+00 0. -1.
        -24    2    1    2    0    0  0.37876223331E+02  0.30718180531E+02 -0.15685489368E+03  0.18238675119E+03  0.79266981958E+02 0.  0.
         23    2    1    2    0    0  0.95864850628E+02  0.92684598335E+02  0.17612172350E+02  0.16345702640E+03  0.92884371720E+02 0.  0.
         11    1    3    3    0    0 -0.64355781190E+01  0.37817966939E+02 -0.32827973302E+02  0.50490505248E+02  0.00000000000E+00 0. -1.
        -12    1    3    3    0    0  0.44311801450E+02 -0.70997864070E+01 -0.12402692038E+03  0.13189624594E+03  0.00000000000E+00 0.  1.
        -13    1    4    4    0    0  0.62616310599E+02  0.19428709690E+02  0.43808918325E+02  0.78851115642E+02  0.00000000000E+00 0. -1.
         13    1    4    4    0    0  0.33248540030E+02  0.73255888645E+02 -0.26196745975E+02  0.84605910757E+02  0.00000000000E+00 0.  1.
          2    1    1    2  501    0 -0.13374107396E+03 -0.12340277887E+03  0.88566525374E+01  0.18219045252E+03  0.00000000000E+00 0. -1.
<scales pt_clust_5="13000.00000" pt_clust_6="13000.00000" pt_clust_7="13000.00000" pt_clust_8="13000.00000" pt_clust_9="155.55469"></scales>
<clustering>
<clus scale="   79.267">  5  6 -1 -1</clus>
<clus scale="   92.884">  7  8 -1 -1</clus>
<clus scale="   93.067">  2  5  1 -1</clus>
<clus scale="  155.555">  1  9  2 -1</clus>
<clus scale="  155.555">  1  5  2 -1</clus>
</clustering>
</event>
<event>
 9    1  0.6296820E-005  0.1021383E+03  0.7546771E-02  0.1280871E+00
          1   -1    0    0  502    0 -0.00000000000E+00  0.00000000000E+00  0.58421541765E+03  0.58421541765E+03  0.00000000000E+00 0. -1.
         21   -1    0    0  501  502  0.00000000000E+00 -0.00000000000E+00 -0.23847585689E+02  0.23847585689E+02  0.00000000000E+00 0.  1.
         23    2    1    2    0    0  0.60363530081E-01  0.31649451639E+02  0.26376699506E+03  0.28091329964E+03  0.91310255702E+02 0.  0.
        -24    2    1    2    0    0  0.14754594655E+02 -0.61815920858E+02  0.24360982265E+03  0.26439983165E+03  0.80762733677E+02 0.  0.
         13    1    4    4    0    0  0.88272747902E+01 -0.53558311983E+02  0.24759990659E+03  0.25348003335E+03  0.00000000000E+00 0. -1.
        -14    1    4    4    0    0  0.59273198645E+01 -0.82576088750E+01 -0.39900839417E+01  0.10919798303E+02  0.00000000000E+00 0.  1.
        -11    1    3    3    0    0 -0.41971725105E+02  0.27505448541E+02  0.18317858337E+03  0.18992779894E+03  0.00000000000E+00 0. -1.
         11    1    3    3    0    0  0.42032088636E+02  0.41440030980E+01  0.80588411697E+02  0.90985500694E+02  0.00000000000E+00 0.  1.
          2    1    1    2  501    0 -0.14814958185E+02  0.30166469219E+02  0.52991014256E+02  0.62749872056E+02  0.00000000000E+00 0. -1.
<scales pt_clust_5="13000.00000" pt_clust_6="13000.00000" pt_clust_7="13000.00000" pt_clust_8="13000.00000" pt_clust_9="33.60802"></scales>
<clustering>
<clus scale="   33.608">  2  9  1 -1</clus>
<clus scale="   80.763">  5  6 -1 -1</clus>
<clus scale="   91.310">  7  8 -1 -1</clus>
<clus scale="   92.829">  2  5  1 -1</clus>
<clus scale="   33.608">  2  5  1 -1</clus>
</clustering>
</event>
<event>
 9    1  0.6296820E-005  0.2062466E+03  0.7546771E-02  0.1159180E+00
          3   -1    0    0  502    0 -0.00000000000E+00  0.00000000000E+00  0.27434468563E+03  0.27434468563E+03  0.00000000000E+00 0. -1.
         21   -1    0    0  501  502  0.00000000000E+00 -0.00000000000E+00 -0.40742681460E+03  0.40742681460E+03  0.00000000000E+00 0. -1.
        -24    2    1    2    0    0  0.94260779162E+02  0.93947811671E+02  0.71957864143E+02  0.16283675069E+03  0.60221153732E+02 0.  0.
         23    2    1    2    0    0  0.10305544764E+03 -0.14257811770E+03 -0.23464207474E+03  0.31356950599E+03  0.11099543644E+03 0.  0.
         13    1    3    3    0    0  0.20197546309E+02 -0.55495063823E+01  0.17817774849E+02  0.27499290873E+02  0.00000000000E+00 0. -1.
        -14    1    3    3    0    0  0.74063232854E+02  0.99497318053E+02  0.54140089294E+02  0.13533745982E+03  0.00000000000E+00 0.  1.
        -13    1    4    4    0    0  0.22158275826E+02 -0.31295919359E+02  0.35388868874E+01  0.38509057071E+02  0.00000000000E+00 0.  1.
         13    1    4    4    0    0  0.80897171814E+02 -0.11128219834E+03 -0.23818096163E+03  0.27506044892E+03  0.00000000000E+00 0. -1.
          4    1    1    2  501    0 -0.19731622680E+03  0.48630306025E+02  0.29602081623E+02  0.20536524355E+03  0.00000000000E+00 0. -1.
<scales pt_clust_5="13000.00000" pt_clust_6="13000.00000" pt_clust_7="13000.00000" pt_clust_8="13000.00000" pt_clust_9="173.83245"></scales>
<clustering>
<clus scale="   60.221">  5  6 -1 -1</clus>
<clus scale="  110.995">  7  8 -1 -1</clus>
<clus scale="  146.075">  1  5  2 -1</clus>
<clus scale="  173.832">  2  9  1 -1</clus>
<clus scale="  173.832">  2  5  1 -1</clus>
</clustering>
</event>
<event>
 9    1  0.6296820E-005  0.1746765E+03  0.7546771E-02  0.1201268E+00
         21   -1    0    0  501  502  0.00000000000E+00  0.00000000000E+00  0.10490789711E+03  0.10490789711E+03  0.00000000000E+00 0. -1.
          1   -1    0    0  502    0 -0.00000000000E+00 -0.00000000000E+00 -0.47662219082E+03  0.47662219082E+03  0.00000000000E+00 0. -1.
        -24    2    1    2    0    0  0.43005554861E+02 -0.23242125164E+02 -0.17886263977E+03  0.20176355711E+03  0.79542535413E+02 0.  0.
         23    2    1    2    0    0  0.69700302586E+02  0.12850871189E+03 -0.11112524379E+03  0.20523037211E+03  0.91640954913E+02 0.  0.
         13    1    3    3    0    0  0.12341002842E+02  0.24619980025E+02 -0.10505179385E+03  0.10860167198E+03  0.00000000000E+00 0. -1.
        -14    1    3    3    0    0  0.30664552019E+02 -0.47862105189E+02 -0.73810845928E+02  0.93161885126E+02  0.00000000000E+00 0.  1.
        -13    1    4    4    0    0 -0.46258976328E+01  0.19532125380E+02  0.13152571669E+02  0.23997770569E+02  0.00000000000E+00 0.  1.
         13    1    4    4    0    0  0.74326200218E+02  0.10897658651E+03 -0.12427781546E+03  0.18123260154E+03  0.00000000000E+00 0. -1.
          2    1    1    2  501    0 -0.11270585745E+03 -0.10526658673E+03 -0.81726410138E+02  0.17453615871E+03  0.00000000000E+00 0. -1.
<scales pt_clust_5="13000.00000" pt_clust_6="13000.00000" pt_clust_7="13000.00000" pt_clust_8="13000.00000" pt_clust_9="148.70715"></scales>
<clustering>
<clus scale="   79.543">  5  6 -1 -1</clus>
<clus scale="   91.641">  7  8 -1 -1</clus>
<clus scale="   93.363">  2  5  1 -1</clus>
<clus scale="  148.707">  1  9  2 -1</clus>
<clus scale="  148.707">  1  5  2 -1</clus>
</clustering>
</event>
<event>
 9    1  0.6296820E-005  0.1577688E+03  0.7546771E-02  0.1192590E+00
          1   -1    0    0  502    0 -0.00000000000E+00  0.00000000000E+00  0.12471968811E+04  0.12471968811E+04  0.00000000000E+00 0. -1.
         21   -1    0    0  501  502  0.00000000000E+00 -0.00000000000E+00 -0.35663368318E+02  0.35663368318E+02  0.00000000000E+00 0. -1.
         23    2    1    2    0    0  0.49759013400E+02 -0.13277778961E+03  0.86197285619E+03  0.87828103487E+03  0.90964116981E+02 0.  0.
        -24    2    1    2    0    0 -0.80529223665E+02  0.74201712056E+02  0.24617178364E+03  0.28183060253E+03  0.82686707084E+02 0.  0.
         13    1    4    4    0    0 -0.91021565841E+02  0.48807202572E+02  0.22349243455E+03  0.24620303973E+03  0.00000000000E+00 0. -1.
        -14    1    4    4    0    0  0.10492342176E+02  0.25394509484E+02  0.22679349091E+02  0.35627562806E+02  0.00000000000E+00 0.  1.
        -13    1    3    3    0    0 -0.23469955832E+02 -0.60553290708E+02  0.29630073324E+03  0.30333424528E+03  0.00000000000E+00 0.  1.
         13    1    3    3    0    0  0.73228969232E+02 -0.72224498906E+02  0.56567212295E+03  0.57494678959E+03  0.00000000000E+00 0. -1.
          2    1    1    2  501    0  0.30770210264E+02  0.58576077557E+02  0.10338887299E+03  0.12274861205E+03  0.00000000000E+00 0. -1.
<scales pt_clust_5="13000.00000" pt_clust_6="13000.00000" pt_clust_7="13000.00000" pt_clust_8="13000.00000" pt_clust_9="66.16617"></scales>
<clustering>
<clus scale="   66.166">  2  9  1 -1</clus>
<clus scale="   82.687">  5  6 -1 -1</clus>
<clus scale="   90.964">  7  8 -1 -1</clus>
<clus scale="  153.146">  2  5  1 -1</clus>
<clus scale="   66.166">  2  5  1 -1</clus>
</clustering>
</event>
<event>
 9    1  0.6296820E-005  0.1549868E+03  0.7546771E-02  0.1218247E+00
         21   -1    0    0  501  502  0.00000000000E+00  0.00000000000E+00  0.69916491033E+03  0.69916491033E+03  0.00000000000E+00 0. -1.
         -2   -1    0    0    0  501 -0.00000000000E+00 -0.00000000000E+00 -0.10882578362E+03  0.10882578362E+03  0.00000000000E+00 0.  1.
         23    2    1    2    0    0 -0.21652781606E+02  0.46436944740E+01  0.33768620854E+03  0.35025725238E+03  0.90320321980E+02 0.  0.
        -24    2    1    2    0    0 -0.58605055056E+02 -0.97441908914E+02  0.29098160199E+03  0.32919583247E+03  0.10377921432E+03 0.  0.
         11    1    4    4    0    0 -0.84661449088E+02 -0.66993155813E+02  0.24772394549E+03  0.27022730628E+03  0.00000000000E+00 0. -1.
        -12    1    4    4    0    0  0.26056394032E+02 -0.30448753101E+02  0.43257656501E+02  0.58968526192E+02  0.00000000000E+00 0.  1.
        -13    1    3    3    0    0  0.25571613974E+01 -0.41098262391E+02  0.14319750131E+03  0.14900043835E+03  0.00000000000E+00 0.  1.
         13    1    3    3    0    0 -0.24209943003E+02  0.45741956865E+02  0.19448870722E+03  0.20125681403E+03  0.00000000000E+00 0. -1.
         -1    1    1    2    0  502  0.80257836662E+02  0.92798214439E+02 -0.38328683814E+02  0.12853760909E+03  0.00000000000E+00 0.  1.
<scales pt_clust_5="13000.00000" pt_clust_6="13000.00000" pt_clust_7="13000.00000" pt_clust_8="13000.00000" pt_clust_9="115.11211"></scales>
<clustering>
<clus scale="   90.320">  7  8 -1 -1</clus>
<clus scale="   92.996">  2  7  1 -1</clus>
<clus scale="  103.779">  5  6 -1 -1</clus>
<clus scale="  115.112">  1  9  2 -1</clus>
<clus scale="  115.112">  1  5  2 -1</clus>
</clustering>
</event>
<event>
 9    1  0.6296820E-005  0.9316441E+02  0.7546771E-02  0.1303937E+00
         21   -1    0    0  501  502  0.00000000000E+00  0.00000000000E+00  0.32992137953E+02  0.32992137953E+02  0.00000000000E+00 0. -1.
          1   -1    0    0  502    0 -0.00000000000E+00 -0.00000000000E+00 -0.42715958500E+03  0.42715958500E+03  0.00000000000E+00 0. -1.
        -24    2    1    2    0    0  0.16970149820E+02 -0.36717631498E+02 -0.20718926979E+03  0.22451169709E+03  0.76432572683E+02 0.  0.
         23    2    1    2    0    0  0.10104887182E+02 -0.76697334444E+01 -0.11964439264E+03  0.15056867730E+03  0.90527412080E+02 0.  0.
         11    1    3    3    0    0  0.31725468718E+02  0.61191680462E+00 -0.15735295070E+03  0.16052049994E+03  0.00000000000E+00 0. -1.
        -12    1    3    3    0    0 -0.14755318898E+02 -0.37329548302E+02 -0.49836319091E+02  0.63991197150E+02  0.00000000000E+00 0.  1.
        -11    1    4    4    0    0  0.10484815314E+02 -0.33144189473E+02 -0.74950189982E+01  0.35561832880E+02  0.00000000000E+00 0. -1.
         11    1    4    4    0    0 -0.37992813188E+00  0.25474456028E+02 -0.11214937365E+03  0.11500684442E+03  0.00000000000E+00 0.  1.
          2    1    1    2  501    0 -0.27075037003E+02  0.44387364942E+02 -0.67333784616E+02  0.85071348560E+02  0.00000000000E+00 0. -1.
<scales pt_clust_5="13000.00000" pt_clust_6="13000.00000" pt_clust_7="13000.00000" pt_clust_8="13000.00000" pt_clust_9="51.99323"></scales>
<clustering>
<clus scale="   51.993">  1  9  2 -1</clus>
<clus scale="   76.433">  5  6 -1 -1</clus>
<clus scale="   79.538">  2  5  1 -1</clus>
<clus scale="   90.527">  7  8 -1 -1</clus>
<clus scale="   51.993">  1  5  2 -1</clus>
</clustering>
</event>
<event>
 9    1  0.6296820E-005  0.9385683E+02  0.7546771E-02  0.1299136E+00
          3   -1    0    0  502    0 -0.00000000000E+00  0.00000000000E+00  0.58681328658E+02  0.58681328658E+02  0.00000000000E+00 0. -1.
         21   -1    0    0  501  502  0.00000000000E+00 -0.00000000000E+00 -0.34028631136E+03  0.34028631136E+03  0.00000000000E+00 0.  1.
         23    2    1    2    0    0 -0.82138141072E-01 -0.22916379682E+02  0.16354486134E+01  0.92879995537E+02  0.89993620187E+02 0.  0.
        -24    2    1    2    0    0 -0.64253803890E+01  0.44169998008E+02 -0.20564092285E+03  0.22536746235E+03  0.80684755056E+02 0.  0.
         13    1    4    4    0    0 -0.39312785299E+02  0.41012676233E+01 -0.74136936308E+02  0.84015479581E+02  0.00000000000E+00 0. -1.
        -14    1    4    4    0    0  0.32887404910E+02  0.40068730384E+02 -0.13150398654E+03  0.14135198277E+03  0.00000000000E+00 0.  1.
        -11    1    3    3    0    0  0.24693572282E+02 -0.36309594204E+02 -0.27934960136E+02  0.52043454354E+02  0.00000000000E+00 0.  1.
         11    1    3    3    0    0 -0.24775710423E+02  0.13393214522E+02  0.29570408749E+02  0.40836541183E+02  0.00000000000E+00 0. -1.
          4    1    1    2  501    0  0.65075185300E+01 -0.21253618325E+02 -0.77599508463E+02  0.80720182130E+02  0.00000000000E+00 0. -1.
<scales pt_clust_5="13000.00000" pt_clust_6="13000.00000" pt_clust_7="13000.00000" pt_clust_8="13000.00000" pt_clust_9="22.22755"></scales>
<clustering>
<clus scale="   22.228">  2  9  1 -1</clus>
<clus scale="   80.685">  5  6 -1 -1</clus>
<clus scale="   84.972">  2  5  1 -1</clus>
<clus scale="   89.994">  7  8 -1 -1</clus>
<clus scale="   22.228">  2  5  1 -1</clus>
</clustering>
</event>
<event>
 9    1  0.6296820E-005  0.1032914E+03  0.7546771E-02  0.1274365E+00
         21   -1    0    0  501  502  0.00000000000E+00  0.00000000000E+00  0.15988013169E+03  0.15988013169E+03  0.00000000000E+00 0. -1.
          1   -1    0    0  502    0 -0.00000000000E+00 -0.00000000000E+00 -0.30952511741E+03  0.30952511741E+03  0.00000000000E+00 0. -1.
         23    2    1    2    0    0 -0.99811808712E+01  0.50712275423E+02 -0.20034472037E+03  0.22664357197E+03  0.92509150280E+02 0.  0.
        -24    2    1    2    0    0  0.32745208387E+02 -0.25833871532E+02 -0.67086423242E+02  0.12024345433E+03  0.90654633276E+02 0.  0.
         13    1    4    4    0    0 -0.24416431584E+02  0.43711705370E+01 -0.45962634569E+02  0.52228661094E+02  0.00000000000E+00 0. -1.
        -14    1    4    4    0    0  0.57161639971E+02 -0.30205042069E+02 -0.21123788673E+02  0.68014793233E+02  0.00000000000E+00 0.  1.
        -13    1    3    3    0    0 -0.63606840169E+01 -0.25901288290E+02 -0.32053270849E+02  0.41698287835E+02  0.00000000000E+00 0.  1.
         13    1    3    3    0    0 -0.36204968543E+01  0.76613563714E+02 -0.16829144952E+03  0.18494528413E+03  0.00000000000E+00 0. -1.
          2    1    1    2  501    0 -0.22764027516E+02 -0.24878403891E+02  0.11778615789E+03  0.12251822280E+03  0.00000000000E+00 0. -1.
<scales pt_clust_5="13000.00000" pt_clust_6="13000.00000" pt_clust_7="13000.00000" pt_clust_8="13000.00000" pt_clust_9="33.72145"></scales>
<clustering>
<clus scale="   33.721">  1  9  2 -1</clus>
<clus scale="   90.655">  5  6 -1 -1</clus>
<clus scale="   92.509">  7  8 -1 -1</clus>
<clus scale="  101.634">  1  5  2 -1</clus>
<clus scale="   33.721">  1  5  2 -1</clus>
</clustering>
</event>
<event>
 9    1  0.8867393E-005  0.1510651E+03  0.7546771E-02  0.1215266E+00
          1   -1    0    0  502    0 -0.00000000000E+00  0.00000000000E+00  0.52412296872E+03  0.52412296872E+03  0.00000000000E+00 0. -1.
         21   -1    0    0  501  502  0.00000000000E+00 -0.00000000000E+00 -0.15090913460E+03  0.15090913460E+03  0.00000000000E+00 0. -1.
         23    2    1    2    0    0 -0.57805539552E+01 -0.58603237833E+02 -0.75011738594E+02  0.13063402252E+03  0.89278959579E+02 0.  0.
        -24    2    1    2    0    0 -0.12098565296E+03 -0.15422308323E+02  0.13683805454E+03  0.20014288595E+03  0.80356367583E+02 0.  0.
         11    1    4    4    0    0 -0.10099075351E+03 -0.94452559924E+01  0.14565067320E+03  0.17748933422E+03  0.00000000000E+00 0. -1.
        -12    1    4    4    0    0 -0.19994899451E+02 -0.59770523305E+01 -0.88126186653E+01  0.22653551738E+02  0.00000000000E+00 0.  1.
        -13    1    3    3    0    0  0.41731326634E+02 -0.26368607595E+02 -0.38380767928E+02  0.62529116705E+02  0.00000000000E+00 0.  1.
         13    1    3    3    0    0 -0.47511880590E+02 -0.32234630238E+02 -0.36630970666E+02  0.68104905812E+02  0.00000000000E+00 0. -1.
          2    1    1    2  501    0  0.12676620692E+03  0.74025546156E+02  0.31138751818E+03  0.34425519484E+03  0.00000000000E+00 0. -1.
<scales pt_clust_5="13000.00000" pt_clust_6="13000.00000" pt_clust_7="13000.00000" pt_clust_8="13000.00000" pt_clust_9="127.92009"></scales>
<clustering>
<clus scale="   80.356">  5  6 -1 -1</clus>
<clus scale="   89.279">  7  8 -1 -1</clus>
<clus scale="  106.951">  1  7  2 -1</clus>
<clus scale="  127.920">  2  9  1 -1</clus>
<clus scale="  127.920">  2  5  1 -1</clus>
</clustering>
</event>
<event>
 9    1  0.6296820E-005  0.1069402E+03  0.7546771E-02  0.1273151E+00
          1   -1    0    0  502    0 -0.00000000000E+00  0.00000000000E+00  0.22247303599E+03  0.22247303599E+03  0.00000000000E+00 0. -1.
         21   -1    0    0  501  502  0.00000000000E+00 -0.00000000000E+00 -0.13367187218E+03  0.13367187218E+03  0.00000000000E+00 0.  1.
         23    2    1    2    0    0  0.55179627423E+02 -0.20888670734E+02  0.15005523381E+03  0.18711868640E+03  0.94951049280E+02 0.  0.
        -24    2    1    2    0    0 -0.23607049162E+02 -0.37346162659E+02 -0.38192527541E+02  0.98883807647E+02  0.79795423548E+02 0.  0.
         11    1    4    4    0    0  0.19467828374E+02 -0.90003685633E+01  0.13922330509E+02  0.25570183079E+02  0.00000000000E+00 0. -1.
        -12    1    4    4    0    0 -0.43074877536E+02 -0.28345794096E+02 -0.52114858050E+02  0.73313624568E+02  0.00000000000E+00 0.  1.
        -13    1    3    3    0    0  0.48919030008E+01 -0.43463134042E+02  0.24820230316E+02  0.50289348461E+02  0.00000000000E+00 0. -1.
         13    1    3    3    0    0  0.50287724422E+02  0.22574463308E+02  0.12523500349E+03  0.13682933794E+03  0.00000000000E+00 0.  1.
          2    1    1    2  501    0 -0.31572578261E+02  0.58234833393E+02 -0.23061542464E+02  0.70142414124E+02  0.00000000000E+00 0. -1.
<scales pt_clust_5="13000.00000" pt_clust_6="13000.00000" pt_clust_7="13000.00000" pt_clust_8="13000.00000" pt_clust_9="66.24291"></scales>
<clustering>
<clus scale="   66.243">  2  9  1 -1</clus>
<clus scale="   79.795">  5  6 -1 -1</clus>
<clus scale="   93.743">  2  5  1 -1</clus>
<clus scale="   94.951">  7  8 -1 -1</clus>
<clus scale="   66.243">  2  5  1 -1</clus>
</clustering>
</event>
<event>
 9    1  0.6296820E-005  0.9798419E+02  0.7546771E-02  0.1289722E+00
          1   -1    0    0  502    0 -0.00000000000E+00  0.00000000000E+00  0.79193719354E+02  0.79193719354E+02  0.00000000000E+00 0. -1.
         21   -1    0    0  501  502  0.00000000000E+00 -0.00000000000E+00 -0.16838728847E+03  0.16838728847E+03  0.00000000000E+00 0.  1.
         23    2    1    2    0    0  0.20267962945E+02 -0.28685049965E+02  0.36080731586E+01  0.97203271572E+02  0.90563985110E+02 0.  0.
        -24    2    1    2    0    0 -0.45592869939E+01  0.44691001961E+02 -0.58343454096E+02  0.10926423808E+03  0.80725722870E+02 0.  0.
         11    1    4    4    0    0  0.41671172510E+01  0.65528583087E+02 -0.56455654668E+02  0.86594462938E+02  0.00000000000E+00 0. -1.
        -12    1    4    4    0    0 -0.87264042449E+01 -0.20837581126E+02 -0.18877994285E+01  0.22669775141E+02  0.00000000000E+00 0.  1.
        -13    1    3    3    0    0  0.26435087731E+02  0.20463683031E+02  0.26476743070E+02  0.42644977549E+02  0.00000000000E+00 0. -1.
         13    1    3    3    0    0 -0.61671247859E+01 -0.49148732996E+02 -0.22868669912E+02  0.54558294024E+02  0.00000000000E+00 0.  1.
          2    1    1    2  501    0 -0.15708675951E+02 -0.16005951996E+02 -0.34458188177E+02  0.41113498171E+02  0.00000000000E+00 0. -1.
<scales pt_clust_5="13000.00000" pt_clust_6="13000.00000" pt_clust_7="13000.00000" pt_clust_8="13000.00000" pt_clust_9="22.42661"></scales>
<clustering>
<clus scale="   22.427">  2  9  1 -1</clus>
<clus scale="   80.726">  5  6 -1 -1</clus>
<clus scale="   88.970">  2  5  1 -1</clus>
<clus scale="   90.564">  7  8 -1 -1</clus>
<clus scale="   22.427">  2  5  1 -1</clus>
</clustering>
</event>
<event>
 9    1  0.6296820E-005  0.1675280E+03  0.7546771E-02  0.1182503E+00
          1   -1    0    0  502    0 -0.00000000000E+00  0.00000000000E+00  0.17086855367E+03  0.17086855367E+03  0.00000000000E+00 0. -1.
         21   -1    0    0  501  502  0.00000000000E+00 -0.00000000000E+00 -0.27171315160E+03  0.27171315160E+03  0.00000000000E+00 0. -1.
        -24    2    1    2    0    0  0.13298804367E+03  0.62090537383E+02  0.82665101705E+02  0.18500587958E+03  0.76502299626E+02 0.  0.
         23    2    1    2    0    0 -0.11121554800E+03 -0.39727709335E+02 -0.15730577176E+03  0.21682311436E+03  0.91213859054E+02 0.  0.
         13    1    3    3    0    0  0.10454903721E+03  0.14765258215E+02  0.74427457472E+02  0.12918188904E+03  0.00000000000E+00 0. -1.
        -14    1    3    3    0    0  0.28439006457E+02  0.47325279167E+02  0.82376442327E+01  0.55823990533E+02  0.00000000000E+00 0.  1.
        -13    1    4    4    0    0 -0.13325046343E+02 -0.42277152569E+02 -0.21159971046E+02  0.49118823928E+02  0.00000000000E+00 0.  1.
         13    1    4    4    0    0 -0.97890501655E+02  0.25494432339E+01 -0.13614580072E+03  0.16770429043E+03  0.00000000000E+00 0. -1.
          2    1    1    2  501    0 -0.21772495668E+02 -0.22362828047E+02 -0.26203927866E+02  0.40752711339E+02  0.00000000000E+00 0. -1.
<scales pt_clust_5="13000.00000" pt_clust_6="13000.00000" pt_clust_7="13000.00000" pt_clust_8="13000.00000" pt_clust_9="31.21118"></scales>
<clustering>
<clus scale="   31.211">  2  9  1 -1</clus>
<clus scale="   76.502">  5  6 -1 -1</clus>
<clus scale="   91.214">  7  8 -1 -1</clus>
<clus scale="  159.995">  1  5  2 -1</clus>
<clus scale="   31.211">  2  5  1 -1</clus>
</clustering>
</event>
<event>
 9    1  0.6296820E-005  0.1029962E+03  0.7546771E-02  0.1277525E+00
          1   -1    0    0  502    0 -0.00000000000E+00  0.00000000000E+00  0.90539513152E+03  0.90539513152E+03  0.00000000000E+00 0. -1.
         21   -1    0    0  501  502  0.00000000000E+00 -0.00000000000E+00 -0.27294680536E+02  0.27294680536E+02  0.00000000000E+00 0. -1.
         23    2    1    2    0    0 -0.48372537418E+02  0.39658811979E+01  0.55793783397E+03  0.56723638640E+03  0.90038108021E+02 0.  0.
        -24    2    1    2    0    0  0.48400780242E+02  0.48054317403E+02  0.27989248903E+03  0.29966752239E+03  0.82516456612E+02 0.  0.
         13    1    4    4    0    0  0.53869948412E+02  0.63975406481E+02  0.26233157226E+03  0.27534102088E+03  0.00000000000E+00 0. -1.
        -14    1    4    4    0    0 -0.54691681707E+01 -0.15921089078E+02  0.17560916775E+02  0.24326501513E+02  0.00000000000E+00 0.  1.
        -13    1    3    3    0    0 -0.74911097094E+02  0.73603787645E+01  0.42873694845E+03  0.43529440453E+03  0.00000000000E+00 0. -1.
         13    1    3    3    0    0  0.26538559677E+02 -0.33944975666E+01  0.12920088552E+03  0.13194198188E+03  0.00000000000E+00 0.  1.
          2    1    1    2  501    0 -0.28242824090E-01 -0.52020198601E+02  0.40270127990E+02  0.65785903266E+02  0.00000000000E+00 0. -1.
<scales pt_clust_5="13000.00000" pt_clust_6="13000.00000" pt_clust_7="13000.00000" pt_clust_8="13000.00000" pt_clust_9="52.02021"></scales>
<clustering>
<clus scale="   52.020">  2  9  1 -1</clus>
<clus scale="   82.516">  5  6 -1 -1</clus>
<clus scale="   90.038">  7  8 -1 -1</clus>
<clus scale="   96.490">  2  5  1 -1</clus>
<clus scale="   52.020">  2  5  1 -1</clus>
</clustering>
</event>
<event>
 9    1  0.6296820E-005  0.9898902E+02  0.7546771E-02  0.1288079E+00
         21   -1    0    0  501  502  0.00000000000E+00  0.00000000000E+00  0.66272144792E+02  0.66272144792E+02  0.00000000000E+00 0.  1.
          1   -1    0    0  502    0 -0.00000000000E+00 -0.00000000000E+00 -0.32864267794E+03  0.32864267794E+03  0.00000000000E+00 0. -1.
         23    2    1    2    0    0 -0.36315548950E+02 -0.44348828005E+02 -0.13989699285E+03  0.17672998231E+03  0.91524206634E+02 0.  0.
        -24    2    1    2    0    0 -0.17235215788E+02  0.68603966336E+01 -0.39213120136E+01  0.82805012813E+02  0.80605060349E+02 0.  0.
         13    1    4    4    0    0 -0.19114630687E+02  0.33661793515E+02 -0.27155157923E+02  0.47285177919E+02  0.00000000000E+00 0. -1.
        -14    1    4    4    0    0  0.18794148992E+01 -0.26801396881E+02  0.23233845910E+02  0.35519834894E+02  0.00000000000E+00 0.  1.
        -13    1    3    3    0    0 -0.63491947480E+02 -0.14426018224E+02 -0.67318145605E+02  0.93653991503E+02  0.00000000000E+00 0.  1.
         13    1    3    3    0    0  0.27176398530E+02 -0.29922809782E+02 -0.72578847241E+02  0.83075990811E+02  0.00000000000E+00 0. -1.
          2    1    1    2  501    0  0.53550764738E+02  0.37488431372E+02 -0.11855222829E+03  0.13537982761E+03  0.00000000000E+00 0. -1.
<scales pt_clust_5="13000.00000" pt_clust_6="13000.00000" pt_clust_7="13000.00000" pt_clust_8="13000.00000" pt_clust_9="65.36873"></scales>
<clustering>
<clus scale="   65.369">  1  9  2 -1</clus>
<clus scale="   80.605">  5  6 -1 -1</clus>
<clus scale="   88.991">  1  5  2 -1</clus>
<clus scale="   91.524">  7  8 -1 -1</clus>
<clus scale="   65.369">  1  5  2 -1</clus>
</clustering>
</event>
<event>
 9    1  0.6296820E-005  0.9556731E+02  0.7546771E-02  0.1307144E+00
         -4   -1    0    0    0  501 -0.00000000000E+00  0.00000000000E+00  0.70143955468E+02  0.70143955468E+02  0.00000000000E+00 0.  1.
         21   -1    0    0  501  502  0.00000000000E+00 -0.00000000000E+00 -0.14264023991E+03  0.14264023991E+03  0.00000000000E+00 0. -1.
         23    2    1    2    0    0 -0.35745330358E+02 -0.10253750280E+02 -0.16071748941E+02  0.10016799088E+03  0.91610355564E+02 0.  0.
        -24    2    1    2    0    0  0.10037278793E+02  0.15337821160E+02 -0.55102909525E+02  0.86376951701E+02  0.63942563473E+02 0.  0.
         13    1    4    4    0    0  0.33793486054E+02  0.23623877101E+02 -0.36775163229E+02  0.55249433477E+02  0.00000000000E+00 0. -1.
        -14    1    4    4    0    0 -0.23756207261E+02 -0.82860559416E+01 -0.18327746296E+02  0.31127518224E+02  0.00000000000E+00 0.  1.
        -13    1    3    3    0    0 -0.88408793357E+00 -0.25497790365E+02  0.30672259465E+02  0.39896195629E+02  0.00000000000E+00 0.  1.
         13    1    3    3    0    0 -0.34861242425E+02  0.15244040085E+02 -0.46744008406E+02  0.60271795256E+02  0.00000000000E+00 0. -1.
         -3    1    1    2    0  502  0.25708051566E+02 -0.50840708796E+01 -0.13216259793E+01  0.26239252795E+02  0.00000000000E+00 0.  1.
<scales pt_clust_5="13000.00000" pt_clust_6="13000.00000" pt_clust_7="13000.00000" pt_clust_8="13000.00000" pt_clust_9="26.20596"></scales>
<clustering>
<clus scale="   26.206">  2  9  1 -1</clus>
<clus scale="   63.943">  5  6 -1 -1</clus>
<clus scale="   69.493">  2  5  1 -1</clus>
<clus scale="   91.610">  7  8 -1 -1</clus>
<clus scale="   26.206">  2  5  1 -1</clus>
</clustering>
</event>
<event>
 9    1  0.6296820E-005  0.1316544E+03  0.7546771E-02  0.1233546E+00
         21   -1    0    0  501  502  0.00000000000E+00  0.00000000000E+00  0.18504780030E+03  0.18504780030E+03  0.00000000000E+00 0.  1.
          1   -1    0    0  502    0 -0.00000000000E+00 -0.00000000000E+00 -0.36417271105E+03  0.36417271105E+03  0.00000000000E+00 0. -1.
        -24    2    1    2    0    0  0.13028848624E+02  0.73869344397E+02  0.76084823068E+02  0.13406371692E+03  0.80979929341E+02 0.  0.
         23    2    1    2    0    0 -0.45277678956E+02  0.70846034404E+02 -0.45851215617E+01  0.12396059908E+03  0.90972402313E+02 0.  0.
         11    1    3    3    0    0  0.24762739863E+02  0.60770348780E+02  0.10865886956E+02  0.66515382249E+02  0.00000000000E+00 0. -1.
        -12    1    3    3    0    0 -0.11733891239E+02  0.13098995616E+02  0.65218936111E+02  0.67548334674E+02  0.00000000000E+00 0.  1.
        -11    1    4    4    0    0  0.12445937654E+02  0.43745881925E+02 -0.30889601921E+02  0.54979733142E+02  0.00000000000E+00 0.  1.
         11    1    4    4    0    0 -0.57723616610E+02  0.27100152480E+02  0.26304480360E+02  0.68980865941E+02  0.00000000000E+00 0. -1.
          2    1    1    2  501    0  0.32248830332E+02 -0.14471537880E+03 -0.25062461225E+03  0.29119619535E+03  0.00000000000E+00 0. -1.
<scales pt_clust_5="13000.00000" pt_clust_6="13000.00000" pt_clust_7="13000.00000" pt_clust_8="13000.00000" pt_clust_9="95.16784"></scales>
<clustering>
<clus scale="   80.980">  5  6 -1 -1</clus>
<clus scale="   90.972">  7  8 -1 -1</clus>
<clus scale="  110.382">  2  5  1 -1</clus>
<clus scale="   95.168">  1  9  2 -1</clus>
<clus scale="   95.168">  1  5  2 -1</clus>
</clustering>
</event>
<event>
 9    1  0.6296820E-005  0.1379314E+03  0.7546771E-02  0.1232333E+00
          3   -1    0    0  502    0 -0.00000000000E+00  0.00000000000E+00  0.34111001350E+03  0.34111001350E+03  0.00000000000E+00 0. -1.
         21   -1    0    0  501  502  0.00000000000E+00 -0.00000000000E+00 -0.11628248497E+03  0.11628248497E+03  0.00000000000E+00 0. -1.
         23    2    1    2    0    0 -0.35791272610E+02  0.13827686000E+02  0.16426826013E+03  0.19149058716E+03  0.90622092166E+02 0.  0.
        -24    2    1    2    0    0  0.40149539181E+01  0.10062926116E+03  0.69422163146E+02  0.14678567361E+03  0.81143263329E+02 0.  0.
         13    1    4    4    0    0  0.10515592178E+02  0.11288515553E+03  0.69369061998E+02  0.13291238761E+03  0.00000000000E+00 0. -1.
        -14    1    4    4    0    0 -0.65006382603E+01 -0.12255894370E+02  0.53101148148E-01  0.13873285996E+02  0.00000000000E+00 0.  1.
        -11    1    3    3    0    0  0.18441001260E+02  0.27490166459E+02  0.25215871344E+02  0.41612737798E+02  0.00000000000E+00 0.  1.
         11    1    3    3    0    0 -0.54232273870E+02 -0.13662480458E+02  0.13905238879E+03  0.14987784936E+03  0.00000000000E+00 0. -1.
          4    1    1    2  501    0  0.31776318692E+02 -0.11445694716E+03 -0.88628947495E+01  0.11911623771E+03  0.00000000000E+00 0. -1.
<scales pt_clust_5="13000.00000" pt_clust_6="13000.00000" pt_clust_7="13000.00000" pt_clust_8="13000.00000" pt_clust_9="111.53851"></scales>
<clustering>
<clus scale="   81.143">  5  6 -1 -1</clus>
<clus scale="   90.622">  7  8 -1 -1</clus>
<clus scale="   98.410">  1  7  2 -1</clus>
<clus scale="  111.539">  2  9  1 -1</clus>
<clus scale="  111.539">  2  5  1 -1</clus>
</clustering>
</event>
<event>
 9    1  0.6296820E-005  0.9884424E+02  0.7546771E-02  0.1288264E+00
          1   -1    0    0  502    0 -0.00000000000E+00  0.00000000000E+00  0.18745248349E+03  0.18745248349E+03  0.00000000000E+00 0. -1.
         21   -1    0    0  501  502  0.00000000000E+00 -0.00000000000E+00 -0.75227545874E+02  0.75227545874E+02  0.00000000000E+00 0.  1.
        -24    2    1    2    0    0  0.38425871953E+02  0.10580503852E+02  0.10622645211E+03  0.13992779379E+03  0.81897702340E+02 0.  0.
         23    2    1    2    0    0 -0.18510382444E+02 -0.18878742691E+02  0.18374020154E+02  0.97879733734E+02  0.92432659138E+02 0.  0.
         11    1    3    3    0    0 -0.11287191512E+02 -0.25506916495E+02  0.21215481138E+02  0.35044259462E+02  0.00000000000E+00 0. -1.
        -12    1    3    3    0    0  0.49713063465E+02  0.36087420347E+02  0.85010970975E+02  0.10488353432E+03  0.00000000000E+00 0.  1.
        -13    1    4    4    0    0  0.38558780624E+01 -0.24785733165E+02  0.51611610643E+02  0.57384307239E+02  0.00000000000E+00 0. -1.
         13    1    4    4    0    0 -0.22366260507E+02  0.59069904734E+01 -0.33237590488E+02  0.40495426495E+02  0.00000000000E+00 0.  1.
          2    1    1    2  501    0 -0.19915489509E+02  0.82982388396E+01 -0.12375534649E+02  0.24872501846E+02  0.00000000000E+00 0. -1.
<scales pt_clust_5="13000.00000" pt_clust_6="13000.00000" pt_clust_7="13000.00000" pt_clust_8="13000.00000" pt_clust_9="21.57516"></scales>
<clustering>
<clus scale="   21.575">  2  9  1 -1</clus>
<clus scale="   81.898">  5  6 -1 -1</clus>
<clus scale="   89.071">  1  5  2 -1</clus>
<clus scale="   92.433">  7  8 -1 -1</clus>
<clus scale="   21.575">  2  5  1 -1</clus>
</clustering>
</event>
<event>
 9    1  0.6296820E-005  0.8930839E+02  0.7546771E-02  0.1306869E+00
         21   -1    0    0  501  502  0.00000000000E+00  0.00000000000E+00  0.73981909707E+02  0.73981909707E+02  0.00000000000E+00 0.  1.
          1   -1    0    0  502    0 -0.00000000000E+00 -0.00000000000E+00 -0.36397474014E+03  0.36397474014E+03  0.00000000000E+00 0. -1.
         23    2    1    2    0    0  0.18083863115E+01  0.12318160982E+02 -0.11776114811E+03  0.14821956512E+03  0.89142269039E+02 0.  0.
        -24    2    1    2    0    0  0.21212242109E+02  0.59086683296E+02 -0.46176703740E+01  0.10609869516E+03  0.85407346743E+02 0.  0.
         13    1    4    4    0    0 -0.11369479593E+02  0.35695853464E+02 -0.38408530839E+02  0.53653278203E+02  0.00000000000E+00 0. -1.
        -14    1    4    4    0    0  0.32581721702E+02  0.23390829831E+02  0.33790860465E+02  0.52445416961E+02  0.00000000000E+00 0.  1.
        -11    1    3    3    0    0 -0.20119355054E+02 -0.17734928481E+02 -0.23063979103E+01  0.26919056584E+02  0.00000000000E+00 0.  1.
         11    1    3    3    0    0  0.21927741366E+02  0.30053089463E+02 -0.11545475020E+03  0.12130050854E+03  0.00000000000E+00 0. -1.
          2    1    1    2  501    0 -0.23020628421E+02 -0.71404844277E+02 -0.16761401195E+03  0.18363838956E+03  0.00000000000E+00 0. -1.
<scales pt_clust_5="13000.00000" pt_clust_6="13000.00000" pt_clust_7="13000.00000" pt_clust_8="13000.00000" pt_clust_9="75.02404"></scales>
<clustering>
<clus scale="   75.024">  1  9  2 -1</clus>
<clus scale="   85.407">  5  6 -1 -1</clus>
<clus scale="   85.581">  1  5  2 -1</clus>
<clus scale="   89.142">  7  8 -1 -1</clus>
<clus scale="   75.024">  1  5  2 -1</clus>
</clustering>
</event>
<event>
 9    1  0.6296820E-005  0.9130790E+02  0.7546771E-02  0.1300617E+00
         21   -1    0    0  501  502  0.00000000000E+00  0.00000000000E+00  0.87692323520E+02  0.87692323520E+02  0.00000000000E+00 0. -1.
          1   -1    0    0  502    0 -0.00000000000E+00 -0.00000000000E+00 -0.25017343144E+03  0.25017343144E+03  0.00000000000E+00 0. -1.
        -24    2    1    2    0    0 -0.98649839731E+01 -0.27788241819E+02 -0.35411321996E+02  0.93260185466E+02  0.81080183617E+02 0.  0.
         23    2    1    2    0    0  0.78427608323E+02 -0.14721299959E+02 -0.30807544249E+02  0.11900973448E+03  0.82744218525E+02 0.  0.
         13    1    3    3    0    0 -0.33945391653E+02 -0.45059136310E+02 -0.19970618953E+02  0.59845141832E+02  0.00000000000E+00 0. -1.
        -14    1    3    3    0    0  0.24080407680E+02  0.17270894491E+02 -0.15440703044E+02  0.33415043634E+02  0.00000000000E+00 0.  1.
        -11    1    4    4    0    0  0.34882941832E+02 -0.30494266094E+02 -0.50632054492E+02  0.68631806311E+02  0.00000000000E+00 0. -1.
         11    1    4    4    0    0  0.43544666490E+02  0.15772966135E+02  0.19824510243E+02  0.50377928171E+02  0.00000000000E+00 0.  1.
          2    1    1    2  501    0 -0.68562624349E+02  0.42509541778E+02 -0.96262241670E+02  0.12559583501E+03  0.00000000000E+00 0. -1.
<scales pt_clust_5="13000.00000" pt_clust_6="13000.00000" pt_clust_7="13000.00000" pt_clust_8="13000.00000" pt_clust_9="80.67156"></scales>
<clustering>
<clus scale="   80.672">  1  9  2 -1</clus>
<clus scale="   81.080">  5  6 -1 -1</clus>
<clus scale="   82.744">  7  8 -1 -1</clus>
<clus scale="   89.803">  2  5  1 -1</clus>
<clus scale="   80.672">  1  5  2 -1</clus>
</clustering>
</event>
<event>
 9    1  0.6296820E-005  0.1021006E+03  0.7546771E-02  0.1287836E+00
         -2   -1    0    0    0  501 -0.00000000000E+00  0.00000000000E+00  0.26937562913E+03  0.26937562913E+03  0.00000000000E+00 0.  1.
         21   -1    0    0  501  502  0.00000000000E+00 -0.00000000000E+00 -0.22899614539E+03  0.22899614539E+03  0.00000000000E+00 0.  1.
         23    2    1    2    0    0 -0.13955565247E+01  0.84632435653E+01  0.22889022745E+03  0.25043341138E+03  0.10125504059E+03 0.  0.
        -24    2    1    2    0    0  0.19695551407E+02 -0.44934033473E+02 -0.56669397880E+02  0.10992695490E+03  0.80408535918E+02 0.  0.
         11    1    4    4    0    0 -0.77995499331E+01 -0.21203217298E+02 -0.68180885148E+02  0.71826474942E+02  0.00000000000E+00 0. -1.
        -12    1    4    4    0    0  0.27495101340E+02 -0.23730816175E+02  0.11511487269E+02  0.38100479960E+02  0.00000000000E+00 0.  1.
        -11    1    3    3    0    0 -0.42736555171E+02 -0.22522739390E+02  0.13315405965E+03  0.14164635731E+03  0.00000000000E+00 0. -1.
         11    1    3    3    0    0  0.41340998646E+02  0.30985982955E+02  0.95736167802E+02  0.10878705407E+03  0.00000000000E+00 0.  1.
         -1    1    1    2    0  502 -0.18299994882E+02  0.36470789908E+02 -0.13184134583E+03  0.13801140823E+03  0.00000000000E+00 0.  1.
<scales pt_clust_5="13000.00000" pt_clust_6="13000.00000" pt_clust_7="13000.00000" pt_clust_8="13000.00000" pt_clust_9="40.80451"></scales>
<clustering>
<clus scale="   40.805">  2  9  1 -1</clus>
<clus scale="   80.409">  5  6 -1 -1</clus>
<clus scale="   81.471">  2  5  1 -1</clus>
<clus scale="  101.255">  7  8 -1 -1</clus>
<clus scale="   40.805">  2  5  1 -1</clus>
</clustering>
</event>
<event>
 9    1  0.6296820E-005  0.1001296E+03  0.7546771E-02  0.1287251E+00
         -4   -1    0    0    0  501 -0.00000000000E+00  0.00000000000E+00  0.32266944605E+03  0.32266944605E+03  0.00000000000E+00 0.  1.
         21   -1    0    0  501  502  0.00000000000E+00 -0.00000000000E+00 -0.63125261472E+02  0.63125261472E+02  0.00000000000E+00 0.  1.
         23    2    1    2    0    0  0.26269308683E+02 -0.28274913786E+02  0.21079693576E+03  0.23299089952E+03  0.91432290810E+02 0.  0.
        -24    2    1    2    0    0 -0.44007329420E+02  0.18342687972E+02  0.76304695080E+02  0.11855911010E+03  0.77205937936E+02 0.  0.
         11    1    4    4    0    0 -0.49232115109E+02  0.33664891096E+02  0.24838791914E+02  0.64607210390E+02  0.00000000000E+00 0. -1.
        -12    1    4    4    0    0  0.52247856890E+01 -0.15322203123E+02  0.51465903166E+02  0.53951899714E+02  0.00000000000E+00 0.  1.
        -11    1    3    3    0    0  0.49205231512E+02 -0.16019138274E+01  0.17874411097E+03  0.18540004892E+03  0.00000000000E+00 0.  1.
         11    1    3    3    0    0 -0.22935922829E+02 -0.26672999958E+02  0.32052824797E+02  0.47590850594E+02  0.00000000000E+00 0. -1.
         -3    1    1    2    0  502  0.17738020737E+02  0.99322258135E+01 -0.27557446267E+02  0.34244697897E+02  0.00000000000E+00 0.  1.
<scales pt_clust_5="13000.00000" pt_clust_6="13000.00000" pt_clust_7="13000.00000" pt_clust_8="13000.00000" pt_clust_9="20.32945"></scales>
<clustering>
<clus scale="   20.329">  2  9  1 -1</clus>
<clus scale="   77.206">  5  6 -1 -1</clus>
<clus scale="   87.332">  2  5  1 -1</clus>
<clus scale="   91.432">  7  8 -1 -1</clus>
<clus scale="   20.329">  2  5  1 -1</clus>
</clustering>
</event>
<event>
 9    1  0.6296820E-005  0.9509229E+02  0.7546771E-02  0.1298204E+00
         21   -1    0    0  501  502  0.00000000000E+00  0.00000000000E+00  0.26435193944E+02  0.26435193944E+02  0.00000000000E+00 0. -1.
          1   -1    0    0  502    0 -0.00000000000E+00 -0.00000000000E+00 -0.78312386450E+03  0.78312386450E+03  0.00000000000E+00 0. -1.
        -24    2    1    2    0    0 -0.15206919834E+02 -0.40807552303E+02 -0.22756817862E+03  0.24508085531E+03  0.79880178911E+02 0.  0.
         23    2    1    2    0    0  0.31544134164E+02 -0.41131111737E+02 -0.21797230308E+03  0.24230737165E+03  0.92272079685E+02 0.  0.
         11    1    3    3    0    0 -0.35202518935E+02 -0.50007261804E+02 -0.20338780521E+03  0.21238300987E+03  0.00000000000E+00 0. -1.
        -12    1    3    3    0    0  0.19995599101E+02  0.91997095009E+01 -0.24180373417E+02  0.32697845447E+02  0.00000000000E+00 0.  1.
        -11    1    4    4    0    0 -0.25529408423E+02  0.63131964439E+01 -0.28307706833E+02  0.38638496476E+02  0.00000000000E+00 0. -1.
         11    1    4    4    0    0  0.57073542587E+02 -0.47444308181E+02 -0.18966459625E+03  0.20366887517E+03  0.00000000000E+00 0.  1.
          2    1    1    2  501    0 -0.16337214330E+02  0.81938664040E+02 -0.31114818885E+03  0.32217083149E+03  0.00000000000E+00 0. -1.
<scales pt_clust_5="13000.00000" pt_clust_6="13000.00000" pt_clust_7="13000.00000" pt_clust_8="13000.00000" pt_clust_9="83.55152"></scales>
<clustering>
<clus scale="   79.880">  5  6 -1 -1</clus>
<clus scale="   83.552">  1  9  2 -1</clus>
<clus scale="   83.122">  2  5  1 -1</clus>
<clus scale="   92.272">  7  8 -1 -1</clus>
<clus scale="   83.552">  1  5  2 -1</clus>
</clustering>
</event>
<event>
 9    1  0.6296820E-005  0.1224321E+03  0.7546771E-02  0.1242605E+00
          3   -1    0    0  502    0 -0.00000000000E+00  0.00000000000E+00  0.92243778682E+02  0.92243778682E+02  0.00000000000E+00 0. -1.
         21   -1    0    0  501  502  0.00000000000E+00 -0.00000000000E+00 -0.30710099112E+03  0.30710099112E+03  0.00000000000E+00 0.  1.
         23    2    1    2    0    0  0.90546317032E+02  0.77914176766E+02 -0.69902697346E+02  0.16578457462E+03  0.91262717555E+02 0.  0.
        -24    2    1    2    0    0 -0.28165586428E+02 -0.26375874960E+02 -0.11943390289E+03  0.14871413605E+03  0.79764967640E+02 0.  0.
         13    1    4    4    0    0 -0.32031385969E+02  0.10051502653E+02 -0.10342441572E+03  0.10873661830E+03  0.00000000000E+00 0. -1.
        -14    1    4    4    0    0  0.38657995412E+01 -0.36427377613E+02 -0.16009487170E+02  0.39977517748E+02  0.00000000000E+00 0.  1.
        -11    1    3    3    0    0  0.35326594770E+02  0.70465710039E+02 -0.76292877523E+02  0.10969953396E+03  0.00000000000E+00 0.  1.
         11    1    3    3    0    0  0.55219722262E+02  0.74484667270E+01  0.63901801768E+01  0.56085040661E+02  0.00000000000E+00 0. -1.
          4    1    1    2  501    0 -0.62380730604E+02 -0.51538301805E+02 -0.25520612201E+02  0.84846059135E+02  0.00000000000E+00 0. -1.
<scales pt_clust_5="13000.00000" pt_clust_6="13000.00000" pt_clust_7="13000.00000" pt_clust_8="13000.00000" pt_clust_9="80.91699"></scales>
<clustering>
<clus scale="   79.765">  5  6 -1 -1</clus>
<clus scale="   80.917">  2  9  1 -1</clus>
<clus scale="   91.263">  7  8 -1 -1</clus>
<clus scale="  114.119">  2  5  1 -1</clus>
<clus scale="   80.917">  2  5  1 -1</clus>
</clustering>
</event>
<event>
 9    1  0.6296820E-005  0.1000933E+03  0.7546771E-02  0.1287307E+00
         21   -1    0    0  501  502  0.00000000000E+00  0.00000000000E+00  0.39821734393E+02  0.39821734393E+02  0.00000000000E+00 0. -1.
          1   -1    0    0  502    0 -0.00000000000E+00 -0.00000000000E+00 -0.42186835677E+03  0.42186835677E+03  0.00000000000E+00 0. -1.
        -24    2    1    2    0    0  0.25697973323E+02  0.49770199927E+02 -0.16587268949E+03  0.19250235464E+03  0.80037171304E+02 0.  0.
         23    2    1    2    0    0  0.19302385097E+02 -0.11432840324E+02 -0.10052058431E+03  0.13930131523E+03  0.93793265463E+02 0.  0.
         13    1    3    3    0    0  0.40795693299E+02  0.26960186059E+02 -0.15589712716E+03  0.16338621264E+03  0.00000000000E+00 0. -1.
        -14    1    3    3    0    0 -0.15097719975E+02  0.22810013868E+02 -0.99755623255E+01  0.29116141998E+02  0.00000000000E+00 0.  1.
        -11    1    4    4    0    0  0.23381718406E+02  0.28497963497E+02 -0.69866750584E+01  0.37518692774E+02  0.00000000000E+00 0. -1.
         11    1    4    4    0    0 -0.40793333092E+01 -0.39930803821E+02 -0.93533909250E+02  0.10178262245E+03  0.00000000000E+00 0.  1.
          2    1    1    2  501    0 -0.45000358420E+02 -0.38337359603E+02 -0.11565334858E+03  0.12988642130E+03  0.00000000000E+00 0. -1.
<scales pt_clust_5="13000.00000" pt_clust_6="13000.00000" pt_clust_7="13000.00000" pt_clust_8="13000.00000" pt_clust_9="59.11674"></scales>
<clustering>
<clus scale="   59.117">  1  9  2 -1</clus>
<clus scale="   80.037">  5  6 -1 -1</clus>
<clus scale="   87.335">  2  5  1 -1</clus>
<clus scale="   93.793">  7  8 -1 -1</clus>
<clus scale="   59.117">  1  5  2 -1</clus>
</clustering>
</event>
<event>
 9    1  0.6296820E-005  0.2970087E+03  0.7546771E-02  0.1101792E+00
          1   -1    0    0  502    0 -0.00000000000E+00  0.00000000000E+00  0.41609094932E+03  0.41609094932E+03  0.00000000000E+00 0. -1.
         21   -1    0    0  501  502  0.00000000000E+00 -0.00000000000E+00 -0.40029984839E+03  0.40029984839E+03  0.00000000000E+00 0. -1.
         23    2    1    2    0    0 -0.57049955304E+02 -0.16666040047E+03  0.34694387280E+02  0.20314957960E+03  0.95056113423E+02 0.  0.
        -24    2    1    2    0    0  0.29065514500E+03  0.21756552559E+03 -0.33957136585E+02  0.37368050592E+03  0.81663101479E+02 0.  0.
         11    1    4    4    0    0  0.20819410960E+03  0.13507400025E+03 -0.57363235717E+02  0.25471614325E+03  0.00000000000E+00 0. -1.
        -12    1    4    4    0    0  0.82461035392E+02  0.82491525338E+02  0.23406099132E+02  0.11896436268E+03  0.00000000000E+00 0.  1.
        -13    1    3    3    0    0  0.13767973245E+02 -0.67709558703E+02  0.42666485125E+02  0.81206960170E+02  0.00000000000E+00 0.  1.
         13    1    3    3    0    0 -0.70817928548E+02 -0.98950841763E+02 -0.79720978449E+01  0.12194261943E+03  0.00000000000E+00 0. -1.
          2    1    1    2  501    0 -0.23360518969E+03 -0.50905125126E+02  0.15053850234E+02  0.23956071218E+03  0.00000000000E+00 0. -1.
<scales pt_clust_5="13000.00000" pt_clust_6="13000.00000" pt_clust_7="13000.00000" pt_clust_8="13000.00000" pt_clust_9="285.56144"></scales>
<clustering>
<clus scale="   81.663">  5  6 -1 -1</clus>
<clus scale="   95.056">  7  8 -1 -1</clus>
<clus scale="  200.165">  1  7  2 -1</clus>
<clus scale="  285.561">  2  9  1 -1</clus>
<clus scale="  285.561">  2  5  1 -1</clus>
</clustering>
</event>
<event>
 9    1  0.6296820E-005  0.9920609E+02  0.7546771E-02  0.1286993E+00
         21   -1    0    0  501  502  0.00000000000E+00  0.00000000000E+00  0.66031038681E+02  0.66031038681E+02  0.00000000000E+00 0. -1.
          1   -1    0    0  502    0 -0.00000000000E+00 -0.00000000000E+00 -0.43232734128E+03  0.43232734128E+03  0.00000000000E+00 0. -1.
        -24    2    1    2    0    0 -0.39388057409E+02 -0.16775688032E+02 -0.35903369708E+03  0.37043281751E+03  0.80513563311E+02 0.  0.
         23    2    1    2    0    0  0.31870155969E+02 -0.11484268480E+02 -0.14815531519E+02  0.97723067927E+02  0.90458292968E+02 0.  0.
         11    1    3    3    0    0 -0.49123499886E+02 -0.39829876906E+02 -0.21012074955E+03  0.21943169035E+03  0.00000000000E+00 0. -1.
        -12    1    3    3    0    0  0.97354424773E+01  0.23054188874E+02 -0.14891294752E+03  0.15100112716E+03  0.00000000000E+00 0.  1.
        -13    1    4    4    0    0  0.30904838991E+02 -0.49510618018E+02 -0.59657034414E+01  0.58668560466E+02  0.00000000000E+00 0. -1.
         13    1    4    4    0    0  0.96531697732E+00  0.38026349537E+02 -0.88498280780E+01  0.39054507461E+02  0.00000000000E+00 0.  1.
          2    1    1    2  501    0  0.75179014399E+01  0.28259956513E+02  0.75529259991E+01  0.30202494521E+02  0.00000000000E+00 0. -1.
<scales pt_clust_5="13000.00000" pt_clust_6="13000.00000" pt_clust_7="13000.00000" pt_clust_8="13000.00000" pt_clust_9="29.24285"></scales>
<clustering>
<clus scale="   29.243">  1  9  2 -1</clus>
<clus scale="   80.514">  5  6 -1 -1</clus>
<clus scale="   90.231">  2  5  1 -1</clus>
<clus scale="   90.458">  7  8 -1 -1</clus>
<clus scale="   29.243">  1  5  2 -1</clus>
</clustering>
</event>
<event>
 9    1  0.6296820E-005  0.2221769E+03  0.7546771E-02  0.1132270E+00
          3   -1    0    0  502    0 -0.00000000000E+00  0.00000000000E+00  0.10725770382E+03  0.10725770382E+03  0.00000000000E+00 0. -1.
         21   -1    0    0  501  502  0.00000000000E+00 -0.00000000000E+00 -0.75883363049E+03  0.75883363049E+03  0.00000000000E+00 0. -1.
        -24    2    1    2    0    0  0.82465926792E+02  0.72793318616E+01  0.16945327428E+02  0.11683191660E+03  0.80677970112E+02 0.  0.
         23    2    1    2    0    0  0.25405897503E+02  0.21849130094E+02 -0.35129703331E+02  0.10608785868E+03  0.94327586572E+02 0.  0.
         13    1    3    3    0    0  0.85063995755E+02  0.19056526961E+02  0.35973705761E+02  0.94303457517E+02  0.00000000000E+00 0. -1.
        -14    1    3    3    0    0 -0.25980689628E+01 -0.11777195099E+02 -0.19028378333E+02  0.22528459085E+02  0.00000000000E+00 0.  1.
        -13    1    4    4    0    0 -0.78467308273E+01  0.36063875754E+02 -0.53914047857E+02  0.65336811029E+02  0.00000000000E+00 0. -1.
         13    1    4    4    0    0  0.33252628330E+02 -0.14214745660E+02  0.18784344527E+02  0.40751047647E+02  0.00000000000E+00 0.  1.
          4    1    1    2  501    0 -0.10787182429E+03 -0.29128461955E+02 -0.63339155077E+03  0.64317155904E+03  0.00000000000E+00 0. -1.
<scales pt_clust_5="13000.00000" pt_clust_6="13000.00000" pt_clust_7="13000.00000" pt_clust_8="13000.00000" pt_clust_9="111.73539"></scales>
<clustering>
<clus scale="   80.678">  5  6 -1 -1</clus>
<clus scale="   94.328">  7  8 -1 -1</clus>
<clus scale="   96.545">  5  7 -1 -1</clus>
<clus scale="  111.735">  2  9  1 -1</clus>
<clus scale="  111.735">  2  5  1 -1</clus>
</clustering>
</event>
<event>
 9    1  0.6296820E-005  0.9807294E+02  0.7546771E-02  0.1290027E+00
         21   -1    0    0  501  502  0.00000000000E+00  0.00000000000E+00  0.26818033571E+03  0.26818033571E+03  0.00000000000E+00 0.  1.
         -2   -1    0    0    0  501 -0.00000000000E+00 -0.00000000000E+00 -0.77344711724E+02  0.77344711724E+02  0.00000000000E+00 0.  1.
        -24    2    1    2    0    0  0.68974558840E+01  0.42216517046E+02 -0.25320290681E+02  0.94114134863E+02  0.79915856072E+02 0.  0.
         23    2    1    2    0    0  0.54481331256E+01 -0.16768448081E+02  0.12153755207E+03  0.15265539463E+03  0.90672101234E+02 0.  0.
         11    1    3    3    0    0  0.23746237374E+02 -0.16897132715E+02 -0.69832813309E+01  0.29969369389E+02  0.00000000000E+00 0. -1.
        -12    1    3    3    0    0 -0.16848781490E+02  0.59113649761E+02 -0.18337009350E+02  0.64144765474E+02  0.00000000000E+00 0.  1.
        -11    1    4    4    0    0  0.46176155264E+02 -0.22199273226E+02  0.69853043979E+02  0.86628475687E+02  0.00000000000E+00 0.  1.
         11    1    4    4    0    0 -0.40728022138E+02  0.54308251449E+01  0.51684508088E+02  0.66026918945E+02  0.00000000000E+00 0. -1.
         -1    1    1    2    0  502 -0.12345589010E+02 -0.25448068965E+02  0.94618362603E+02  0.98755517940E+02  0.00000000000E+00 0.  1.
<scales pt_clust_5="13000.00000" pt_clust_6="13000.00000" pt_clust_7="13000.00000" pt_clust_8="13000.00000" pt_clust_9="28.28459"></scales>
<clustering>
<clus scale="   28.285">  1  9  2 -1</clus>
<clus scale="   79.916">  5  6 -1 -1</clus>
<clus scale="   88.224">  2  5  1 -1</clus>
<clus scale="   90.672">  7  8 -1 -1</clus>
<clus scale="   28.285">  1  5  2 -1</clus>
</clustering>
</event>
<event>
 9    1  0.6296820E-005  0.2273435E+03  0.7546771E-02  0.1149378E+00
         21   -1    0    0  501  502  0.00000000000E+00  0.00000000000E+00  0.78199441529E+02  0.78199441529E+02  0.00000000000E+00 0. -1.
          1   -1    0    0  502    0 -0.00000000000E+00 -0.00000000000E+00 -0.12525895077E+04  0.12525895077E+04  0.00000000000E+00 0. -1.
         23    2    1    2    0    0 -0.54716755479E+02 -0.86557096263E+02 -0.48745029918E+03  0.50642792260E+03  0.91517169861E+02 0.  0.
        -24    2    1    2    0    0  0.15683310163E+03 -0.12899527445E+03 -0.31423139880E+03  0.38186571547E+03  0.76443770583E+02 0.  0.
         11    1    4    4    0    0  0.11417408791E+03 -0.11701955405E+03 -0.28568385005E+03  0.32915734924E+03  0.00000000000E+00 0. -1.
        -12    1    4    4    0    0  0.42659013724E+02 -0.11975720409E+02 -0.28547548753E+02  0.52708366234E+02  0.00000000000E+00 0.  1.
        -13    1    3    3    0    0  0.21632218678E+02 -0.44829029090E+02 -0.15605631607E+03  0.16380222380E+03  0.00000000000E+00 0.  1.
         13    1    3    3    0    0 -0.76348974157E+02 -0.41728067172E+02 -0.33139398311E+03  0.34262569881E+03  0.00000000000E+00 0. -1.
          2    1    1    2  501    0 -0.10211634615E+03  0.21555237072E+03 -0.37270836818E+03  0.44249531114E+03  0.00000000000E+00 0. -1.
<scales pt_clust_5="13000.00000" pt_clust_6="13000.00000" pt_clust_7="13000.00000" pt_clust_8="13000.00000" pt_clust_9="214.10615"></scales>
<clustering>
<clus scale="   76.444">  5  6 -1 -1</clus>
<clus scale="   91.517">  7  8 -1 -1</clus>
<clus scale="  137.337">  2  7  1 -1</clus>
<clus scale="  214.106">  1  9  2 -1</clus>
<clus scale="  214.106">  1  5  2 -1</clus>
</clustering>
</event>
<event>
 9    1  0.6296820E-005  0.1102517E+03  0.7546771E-02  0.1263773E+00
          1   -1    0    0  502    0 -0.00000000000E+00  0.00000000000E+00  0.21894133873E+03  0.21894133873E+03  0.00000000000E+00 0. -1.
         21   -1    0    0  501  502  0.00000000000E+00 -0.00000000000E+00 -0.18091078929E+03  0.18091078929E+03  0.00000000000E+00 0. -1.
        -24    2    1    2    0    0  0.64762975571E+02 -0.35476875707E+02  0.15492147436E+03  0.18986951587E+03  0.81221414207E+02 0.  0.
         23    2    1    2    0    0  0.88420348964E+01  0.36982822013E+02 -0.49146553851E+02  0.10993629662E+03  0.90690103395E+02 0.  0.
         11    1    3    3    0    0  0.82033252504E+02 -0.29394309971E+02  0.10357513864E+03  0.13535615730E+03  0.00000000000E+00 0. -1.
        -12    1    3    3    0    0 -0.17270276932E+02 -0.60825657353E+01  0.51346335712E+02  0.54513358567E+02  0.00000000000E+00 0.  1.
        -11    1    4    4    0    0 -0.13984504439E+02 -0.21447078709E+02 -0.38608859666E+02  0.46326964009E+02  0.00000000000E+00 0.  1.
         11    1    4    4    0    0  0.22826539336E+02  0.58429900722E+02 -0.10537694185E+02  0.63609332610E+02  0.00000000000E+00 0. -1.
          2    1    1    2  501    0 -0.73605010468E+02 -0.15059463061E+01 -0.67744371069E+02  0.10004631553E+03  0.00000000000E+00 0. -1.
<scales pt_clust_5="13000.00000" pt_clust_6="13000.00000" pt_clust_7="13000.00000" pt_clust_8="13000.00000" pt_clust_9="73.62041"></scales>
<clustering>
<clus scale="   73.620">  2  9  1 -1</clus>
<clus scale="   81.221">  5  6 -1 -1</clus>
<clus scale="   90.690">  7  8 -1 -1</clus>
<clus scale="  102.604">  1  5  2 -1</clus>
<clus scale="   73.620">  2  5  1 -1</clus>
</clustering>
</event>
<event>
 9    1  0.6296820E-005  0.1797131E+03  0.7546771E-02  0.1193751E+00
          1   -1    0    0  502    0 -0.00000000000E+00  0.00000000000E+00  0.12314683245E+03  0.12314683245E+03  0.00000000000E+00 0. -1.
         21   -1    0    0  501  502  0.00000000000E+00 -0.00000000000E+00 -0.11362816733E+04  0.11362816733E+04  0.00000000000E+00 0. -1.
         23    2    1    2    0    0  0.37532734205E+02  0.19695760809E+02  0.61658361958E+00  0.10100723481E+03  0.91681253140E+02 0.  0.
        -24    2    1    2    0    0  0.48943255220E+02 -0.15593831621E+03 -0.60520420189E+02  0.19162787099E+03  0.79663787187E+02 0.  0.
         11    1    4    4    0    0  0.60071629953E+02 -0.15922408746E+03 -0.55692600033E+02  0.17906025927E+03  0.00000000000E+00 0. -1.
        -12    1    4    4    0    0 -0.11128374733E+02  0.32857712521E+01 -0.48278201561E+01  0.12567611722E+02  0.00000000000E+00 0.  1.
        -13    1    3    3    0    0  0.28842301736E+02  0.55680844997E+02 -0.73601897525E+01  0.63138001728E+02  0.00000000000E+00 0.  1.
         13    1    3    3    0    0  0.86904324688E+01 -0.35985084188E+02  0.79767733721E+01  0.37869233079E+02  0.00000000000E+00 0. -1.
          2    1    1    2  501    0 -0.86475989425E+02  0.13624255540E+03 -0.95323100426E+03  0.96679339992E+03  0.00000000000E+00 0. -1.
<scales pt_clust_5="13000.00000" pt_clust_6="13000.00000" pt_clust_7="13000.00000" pt_clust_8="13000.00000" pt_clust_9="161.09158"></scales>
<clustering>
<clus scale="   79.664">  5  6 -1 -1</clus>
<clus scale="   91.681">  7  8 -1 -1</clus>
<clus scale="  101.005">  1  7  2 -1</clus>
<clus scale="  161.092">  2  9  1 -1</clus>
<clus scale="  161.092">  2  5  1 -1</clus>
</clustering>
</event>
<event>
 9    1  0.6296820E-005  0.1772978E+03  0.7546771E-02  0.1194473E+00
          3   -1    0    0  502    0 -0.00000000000E+00  0.00000000000E+00  0.17648477756E+03  0.17648477756E+03  0.00000000000E+00 0. -1.
         21   -1    0    0  501  502  0.00000000000E+00 -0.00000000000E+00 -0.43491175219E+03  0.43491175219E+03  0.00000000000E+00 0.  1.
         23    2    1    2    0    0  0.50912546248E+02 -0.55201065741E+01 -0.13876467707E+03  0.17313505526E+03  0.89986403514E+02 0.  0.
        -24    2    1    2    0    0  0.18193926712E+02  0.15636283608E+03 -0.18863256786E+03  0.25857805334E+03  0.80622630422E+02 0.  0.
         11    1    4    4    0    0  0.11440555432E+02  0.96545520972E+02 -0.54259750839E+02  0.11133752507E+03  0.00000000000E+00 0. -1.
        -12    1    4    4    0    0  0.67533712803E+01  0.59817315106E+02 -0.13437281702E+03  0.14724052827E+03  0.00000000000E+00 0.  1.
        -11    1    3    3    0    0 -0.25660009583E+02 -0.36110007484E+01 -0.46370872861E+02  0.53119989345E+02  0.00000000000E+00 0. -1.
         11    1    3    3    0    0  0.76572555830E+02 -0.19091058258E+01 -0.92393804206E+02  0.12001506592E+03  0.00000000000E+00 0.  1.
          4    1    1    2  501    0 -0.69106472960E+02 -0.15084272950E+03  0.68970270304E+02  0.17968342115E+03  0.00000000000E+00 0. -1.
<scales pt_clust_5="13000.00000" pt_clust_6="13000.00000" pt_clust_7="13000.00000" pt_clust_8="13000.00000" pt_clust_9="157.90667"></scales>
<clustering>
<clus scale="   80.623">  5  6 -1 -1</clus>
<clus scale="   89.986">  7  8 -1 -1</clus>
<clus scale="  103.538">  1  7  2 -1</clus>
<clus scale="  157.907">  2  9  1 -1</clus>
<clus scale="  157.907">  2  5  1 -1</clus>
</clustering>
</event>
<event>
 9    1  0.6296820E-005  0.1070970E+03  0.7546771E-02  0.1271683E+00
          1   -1    0    0  502    0 -0.00000000000E+00  0.00000000000E+00  0.30112432762E+03  0.30112432762E+03  0.00000000000E+00 0. -1.
         21   -1    0    0  501  502  0.00000000000E+00 -0.00000000000E+00 -0.10287095517E+03  0.10287095517E+03  0.00000000000E+00 0. -1.
        -24    2    1    2    0    0 -0.11784398093E+01  0.38797364257E+01  0.17397900148E+03  0.20381446606E+03  0.10609053937E+03 0.  0.
         23    2    1    2    0    0  0.36604432822E+02  0.71438504987E+01  0.82492315574E+02  0.13114568420E+03  0.94885664114E+02 0.  0.
         11    1    3    3    0    0  0.21568538768E+02  0.34844016728E+02  0.15618682035E+03  0.16147331116E+03  0.00000000000E+00 0. -1.
        -12    1    3    3    0    0 -0.22746978577E+02 -0.30964280302E+02  0.17792181134E+02  0.42341154904E+02  0.00000000000E+00 0.  1.
        -11    1    4    4    0    0  0.64489064824E+02  0.18468395083E+02  0.37028384312E+02  0.76622596821E+02  0.00000000000E+00 0. -1.
         11    1    4    4    0    0 -0.27884632002E+02 -0.11324544584E+02  0.45463931262E+02  0.54523087383E+02  0.00000000000E+00 0.  1.
          2    1    1    2  501    0 -0.35425993012E+02 -0.11023586924E+02 -0.58217944598E+02  0.69035132525E+02  0.00000000000E+00 0. -1.
<scales pt_clust_5="13000.00000" pt_clust_6="13000.00000" pt_clust_7="13000.00000" pt_clust_8="13000.00000" pt_clust_9="37.10149"></scales>
<clustering>
<clus scale="   37.101">  2  9  1 -1</clus>
<clus scale="   94.886">  7  8 -1 -1</clus>
<clus scale="   96.010">  2  7  1 -1</clus>
<clus scale="  106.091">  5  6 -1 -1</clus>
<clus scale="   37.101">  2  5  1 -1</clus>
</clustering>
</event>
<event>
 9    1  0.6296820E-005  0.1756923E+03  0.7546771E-02  0.1172640E+00
         -2   -1    0    0    0  501 -0.00000000000E+00  0.00000000000E+00  0.61272359368E+03  0.61272359368E+03  0.00000000000E+00 0.  1.
         21   -1    0    0  501  502  0.00000000000E+00 -0.00000000000E+00 -0.66863757854E+02  0.66863757854E+02  0.00000000000E+00 0.  1.
         23    2    1    2    0    0 -0.89258524323E+02 -0.11233041766E+03  0.25292395993E+03  0.30284477116E+03  0.84612168256E+02 0.  0.
        -24    2    1    2    0    0  0.12412801747E+03  0.11101498177E+03  0.28720055760E+03  0.34138008895E+03  0.79524297837E+02 0.  0.
         11    1    4    4    0    0  0.75190280262E+02  0.21750605240E+02  0.88696340040E+02  0.11829500332E+03  0.00000000000E+00 0. -1.
        -12    1    4    4    0    0  0.48937737206E+02  0.89264376528E+02  0.19850421756E+03  0.22308508563E+03  0.00000000000E+00 0.  1.
        -13    1    3    3    0    0 -0.15997348128E+02 -0.71439925245E+02  0.16899912344E+03  0.18417459594E+03  0.00000000000E+00 0.  1.
         13    1    3    3    0    0 -0.73261176196E+02 -0.40890492410E+02  0.83924836499E+02  0.11867017523E+03  0.00000000000E+00 0. -1.
         -1    1    1    2    0  502 -0.34869493145E+02  0.13154358877E+01  0.57353182902E+01  0.35362491423E+02  0.00000000000E+00 0.  1.
<scales pt_clust_5="13000.00000" pt_clust_6="13000.00000" pt_clust_7="13000.00000" pt_clust_8="13000.00000" pt_clust_9="34.89430"></scales>
<clustering>
<clus scale="   34.894">  2  9  1 -1</clus>
<clus scale="   79.524">  5  6 -1 -1</clus>
<clus scale="   84.612">  7  8 -1 -1</clus>
<clus scale="  173.299">  2  5  1 -1</clus>
<clus scale="   34.894">  2  5  1 -1</clus>
</clustering>
</event>
<event>
 9    1  0.6296820E-005  0.9410904E+02  0.7546771E-02  0.1300966E+00
          1   -1    0    0  502    0 -0.00000000000E+00  0.00000000000E+00  0.46256151706E+03  0.46256151706E+03  0.00000000000E+00 0. -1.
         21   -1    0    0  501  502  0.00000000000E+00 -0.00000000000E+00 -0.67183300904E+02  0.67183300904E+02  0.00000000000E+00 0.  1.
         23    2    1    2    0    0  0.10273763036E+02 -0.11996273606E+02  0.38119937100E+03  0.39265750313E+03  0.92830455821E+02 0.  0.
        -24    2    1    2    0    0  0.23047426790E+02  0.30184460438E+02 -0.14185844043E+02  0.89698841285E+02  0.80014738787E+02 0.  0.
         13    1    4    4    0    0  0.33867615804E+02 -0.15980696102E+02  0.64267430234E+01  0.37996066561E+02  0.00000000000E+00 0. -1.
        -14    1    4    4    0    0 -0.10820189015E+02  0.46165156540E+02 -0.20612587066E+02  0.51702774725E+02  0.00000000000E+00 0.  1.
        -13    1    3    3    0    0  0.47006521010E+02  0.13688454228E+02  0.21662567646E+03  0.22208933000E+03  0.00000000000E+00 0. -1.
         13    1    3    3    0    0 -0.36732757974E+02 -0.25684727834E+02  0.16457369454E+03  0.17056817313E+03  0.00000000000E+00 0.  1.
          2    1    1    2  501    0 -0.33321189826E+02 -0.18188186831E+02  0.28364689200E+02  0.47388473546E+02  0.00000000000E+00 0. -1.
<scales pt_clust_5="13000.00000" pt_clust_6="13000.00000" pt_clust_7="13000.00000" pt_clust_8="13000.00000" pt_clust_9="37.96198"></scales>
<clustering>
<clus scale="   37.962">  2  9  1 -1</clus>
<clus scale="   80.015">  5  6 -1 -1</clus>
<clus scale="   81.495">  2  5  1 -1</clus>
<clus scale="   92.830">  7  8 -1 -1</clus>
<clus scale="   37.962">  2  5  1 -1</clus>
</clustering>
</event>
<event>
 9    1  0.6296820E-005  0.1549726E+03  0.7546771E-02  0.1218876E+00
         21   -1    0    0  501  502  0.00000000000E+00  0.00000000000E+00  0.54792907293E+03  0.54792907293E+03  0.00000000000E+00 0.  1.
          1   -1    0    0  502    0 -0.00000000000E+00 -0.00000000000E+00 -0.66080163602E+02  0.66080163602E+02  0.00000000000E+00 0. -1.
         23    2    1    2    0    0  0.45036560114E+01  0.43713841213E+01  0.96183078818E+02  0.13295873902E+03  0.91583020886E+02 0.  0.
        -24    2    1    2    0    0  0.48400076319E+02  0.11963276241E+03  0.19074974875E+03  0.24405237055E+03  0.80755976217E+02 0.  0.
         11    1    4    4    0    0 -0.33535652328E+01  0.36751019928E+02  0.94452098405E+01  0.38093252086E+02  0.00000000000E+00 0. -1.
        -12    1    4    4    0    0  0.51753641552E+02  0.82881742484E+02  0.18130453891E+03  0.20595911847E+03  0.00000000000E+00 0.  1.
        -11    1    3    3    0    0 -0.23851306670E+02  0.30068625227E+02  0.84726185413E+02  0.93013620226E+02  0.00000000000E+00 0.  1.
         11    1    3    3    0    0  0.28354962682E+02 -0.25697241105E+02  0.11456893405E+02  0.39945118796E+02  0.00000000000E+00 0. -1.
          2    1    1    2  501    0 -0.52903732331E+02 -0.12400414653E+03  0.19491608176E+03  0.23699812695E+03  0.00000000000E+00 0. -1.
<scales pt_clust_5="13000.00000" pt_clust_6="13000.00000" pt_clust_7="13000.00000" pt_clust_8="13000.00000" pt_clust_9="132.26853"></scales>
<clustering>
<clus scale="   80.756">  5  6 -1 -1</clus>
<clus scale="   91.583">  7  8 -1 -1</clus>
<clus scale="   91.798">  2  7  1 -1</clus>
<clus scale="  132.269">  1  9  2 -1</clus>
<clus scale="  132.269">  1  5  2 -1</clus>
</clustering>
</event>
<event>
 9    1  0.6296820E-005  0.1382887E+03  0.7546771E-02  0.1218933E+00
         21   -1    0    0  501  502  0.00000000000E+00  0.00000000000E+00  0.37595856272E+03  0.37595856272E+03  0.00000000000E+00 0. -1.
         -2   -1    0    0    0  501 -0.00000000000E+00 -0.00000000000E+00 -0.99835124971E+02  0.99835124971E+02  0.00000000000E+00 0.  1.
         23    2    1    2    0    0 -0.47641175829E+02  0.91744825296E+02 -0.19767689173E+02  0.13983940311E+03  0.92073354044E+02 0.  0.
        -24    2    1    2    0    0  0.67471243629E+02 -0.79652105054E+02  0.27709016659E+03  0.30607215646E+03  0.77487921498E+02 0.  0.
         13    1    4    4    0    0  0.29716005767E+02 -0.39471466993E+02  0.22451709625E+03  0.22988902587E+03  0.00000000000E+00 0. -1.
        -14    1    4    4    0    0  0.37755237861E+02 -0.40180638060E+02  0.52573070342E+02  0.76183130588E+02  0.00000000000E+00 0.  1.
        -11    1    3    3    0    0  0.15349126911E+02  0.53997324840E+02  0.15696469089E+02  0.58289672573E+02  0.00000000000E+00 0. -1.
         11    1    3    3    0    0 -0.62990302740E+02  0.37747500456E+02 -0.35464158262E+02  0.81549730540E+02  0.00000000000E+00 0.  1.
         -1    1    1    2    0  502 -0.19830067800E+02 -0.12092720242E+02  0.18800960328E+02  0.29882128121E+02  0.00000000000E+00 0.  1.
<scales pt_clust_5="13000.00000" pt_clust_6="13000.00000" pt_clust_7="13000.00000" pt_clust_8="13000.00000" pt_clust_9="23.22640"></scales>
<clustering>
<clus scale="   23.226">  1  9  2 -1</clus>
<clus scale="   77.488">  5  6 -1 -1</clus>
<clus scale="   92.073">  7  8 -1 -1</clus>
<clus scale="  129.037">  1  5  2 -1</clus>
<clus scale="   23.226">  1  5  2 -1</clus>
</clustering>
</event>
<event>
 9    1  0.6296820E-005  0.9354227E+02  0.7546771E-02  0.1301618E+00
         21   -1    0    0  501  502  0.00000000000E+00  0.00000000000E+00  0.72499425781E+02  0.72499425781E+02  0.00000000000E+00 0.  1.
          1   -1    0    0  502    0 -0.00000000000E+00 -0.00000000000E+00 -0.31843411900E+03  0.31843411900E+03  0.00000000000E+00 0. -1.
         23    2    1    2    0    0  0.16256210186E+02 -0.33541912934E+02 -0.22047841890E+03  0.24143090987E+03  0.91042993955E+02 0.  0.
        -24    2    1    2    0    0  0.18779660879E+02 -0.11950175670E+02 -0.38262547175E+02  0.90672005046E+02  0.79132216078E+02 0.  0.
         11    1    4    4    0    0  0.18501337503E+02 -0.30659215178E+02 -0.54958343547E+02  0.65595018790E+02  0.00000000000E+00 0. -1.
        -12    1    4    4    0    0  0.27832337591E+00  0.18709039508E+02  0.16695796371E+02  0.25076986256E+02  0.00000000000E+00 0.  1.
        -11    1    3    3    0    0 -0.34761906529E+02 -0.19015490073E+01 -0.52014483525E+02  0.62590035393E+02  0.00000000000E+00 0.  1.
         11    1    3    3    0    0  0.51018116715E+02 -0.31640363926E+02 -0.16846393537E+03  0.17884087447E+03  0.00000000000E+00 0. -1.
          2    1    1    2  501    0 -0.35035871065E+02  0.45492088604E+02  0.12806272847E+02  0.58830629871E+02  0.00000000000E+00 0. -1.
<scales pt_clust_5="13000.00000" pt_clust_6="13000.00000" pt_clust_7="13000.00000" pt_clust_8="13000.00000" pt_clust_9="57.41988"></scales>
<clustering>
<clus scale="   57.420">  1  9  2 -1</clus>
<clus scale="   79.132">  5  6 -1 -1</clus>
<clus scale="   81.995">  1  5  2 -1</clus>
<clus scale="   91.043">  7  8 -1 -1</clus>
<clus scale="   57.420">  1  5  2 -1</clus>
</clustering>
</event>
<event>
 9    1  0.6296820E-005  0.1166160E+03  0.7546771E-02  0.1254352E+00
         21   -1    0    0  501  502  0.00000000000E+00  0.00000000000E+00  0.48088992796E+02  0.48088992796E+02  0.00000000000E+00 0. -1.
          1   -1    0    0  502    0 -0.00000000000E+00 -0.00000000000E+00 -0.56524025705E+03  0.56524025705E+03  0.00000000000E+00 0. -1.
         23    2    1    2    0    0 -0.66688441746E+02  0.48926774027E+02 -0.42894640718E+03  0.44687209941E+03  0.94119474678E+02 0.  0.
        -24    2    1    2    0    0  0.19237797757E+02 -0.35356127615E+02 -0.73988135831E+02  0.11509723200E+03  0.78440932860E+02 0.  0.
         11    1    4    4    0    0  0.28216306849E+02 -0.52571970895E+01 -0.78298452296E+02  0.83393319429E+02  0.00000000000E+00 0. -1.
        -12    1    4    4    0    0 -0.89785090923E+01 -0.30098930525E+02  0.43103164652E+01  0.31703912571E+02  0.00000000000E+00 0.  1.
        -13    1    3    3    0    0  0.15307055105E+02  0.14823427691E+02 -0.23114392673E+02  0.31437479116E+02  0.00000000000E+00 0.  1.
         13    1    3    3    0    0 -0.81995496851E+02  0.34103346336E+02 -0.40583201451E+03  0.41543462029E+03  0.00000000000E+00 0. -1.
          2    1    1    2  501    0  0.47450643989E+02 -0.13570646412E+02 -0.14216721235E+02  0.51359918435E+02  0.00000000000E+00 0. -1.
<scales pt_clust_5="13000.00000" pt_clust_6="13000.00000" pt_clust_7="13000.00000" pt_clust_8="13000.00000" pt_clust_9="49.35308"></scales>
<clustering>
<clus scale="   49.353">  1  9  2 -1</clus>
<clus scale="   78.441">  5  6 -1 -1</clus>
<clus scale="   94.119">  7  8 -1 -1</clus>
<clus scale="  104.373">  1  5  2 -1</clus>
<clus scale="   49.353">  1  5  2 -1</clus>
</clustering>
</event>
<event>
 9    1  0.6296820E-005  0.9865861E+02  0.7546771E-02  0.1289395E+00
         21   -1    0    0  501  502  0.00000000000E+00  0.00000000000E+00  0.28972190704E+02  0.28972190704E+02  0.00000000000E+00 0. -1.
          1   -1    0    0  502    0 -0.00000000000E+00 -0.00000000000E+00 -0.47394226960E+03  0.47394226960E+03  0.00000000000E+00 0. -1.
         23    2    1    2    0    0 -0.11575894067E+02  0.11862910689E+02 -0.19035625428E+03  0.21209052151E+03  0.92044314320E+02 0.  0.
        -24    2    1    2    0    0  0.37475204115E+02 -0.44324887098E+02 -0.17692123642E+03  0.20272914647E+03  0.80180399056E+02 0.  0.
         13    1    4    4    0    0  0.60028628783E+02 -0.15186569483E+02 -0.11732201118E+03  0.13265942286E+03  0.00000000000E+00 0. -1.
        -14    1    4    4    0    0 -0.22553424669E+02 -0.29138317614E+02 -0.59599225239E+02  0.70069723610E+02  0.00000000000E+00 0.  1.
        -11    1    3    3    0    0  0.28440583782E+02  0.57709524680E+01 -0.15694332494E+03  0.15960381556E+03  0.00000000000E+00 0.  1.
         11    1    3    3    0    0 -0.40016477849E+02  0.60919582207E+01 -0.33412929333E+02  0.52486705946E+02  0.00000000000E+00 0. -1.
          2    1    1    2  501    0 -0.25899310048E+02  0.32461976409E+02 -0.77692588193E+02  0.88094792318E+02  0.00000000000E+00 0. -1.
<scales pt_clust_5="13000.00000" pt_clust_6="13000.00000" pt_clust_7="13000.00000" pt_clust_8="13000.00000" pt_clust_9="41.52775"></scales>
<clustering>
<clus scale="   41.528">  1  9  2 -1</clus>
<clus scale="   80.180">  5  6 -1 -1</clus>
<clus scale="   87.694">  1  5  2 -1</clus>
<clus scale="   92.044">  7  8 -1 -1</clus>
<clus scale="   41.528">  1  5  2 -1</clus>
</clustering>
</event>
<event>
 9    1  0.6296820E-005  0.1027694E+03  0.7546771E-02  0.1280093E+00
         21   -1    0    0  501  502  0.00000000000E+00  0.00000000000E+00  0.46648589773E+02  0.46648589773E+02  0.00000000000E+00 0. -1.
          3   -1    0    0  502    0 -0.00000000000E+00 -0.00000000000E+00 -0.37556557426E+03  0.37556557426E+03  0.00000000000E+00 0. -1.
         23    2    1    2    0    0  0.57644697247E+02 -0.30465150221E+02 -0.22437432657E+03  0.25137914363E+03  0.92717845806E+02 0.  0.
        -24    2    1    2    0    0 -0.17763937376E+02 -0.16674999646E+01 -0.73482476337E+02  0.11093746540E+03  0.81173326120E+02 0.  0.
         13    1    4    4    0    0  0.12313380200E+02 -0.26776380534E+02 -0.21464980187E+01  0.29549980375E+02  0.00000000000E+00 0. -1.
        -14    1    4    4    0    0 -0.30077317576E+02  0.25108880569E+02 -0.71335978319E+02  0.81387485025E+02  0.00000000000E+00 0.  1.
        -13    1    3    3    0    0  0.25232935170E+02  0.26342811818E+02 -0.33192051226E+02  0.49318931623E+02  0.00000000000E+00 0.  1.
         13    1    3    3    0    0  0.32411762076E+02 -0.56807962039E+02 -0.19118227534E+03  0.20206021201E+03  0.00000000000E+00 0. -1.
          4    1    1    2  501    0 -0.39880759870E+02  0.32132650185E+02 -0.31060181587E+02  0.59897555008E+02  0.00000000000E+00 0. -1.
<scales pt_clust_5="13000.00000" pt_clust_6="13000.00000" pt_clust_7="13000.00000" pt_clust_8="13000.00000" pt_clust_9="51.21506"></scales>
<clustering>
<clus scale="   51.215">  1  9  2 -1</clus>
<clus scale="   81.173">  5  6 -1 -1</clus>
<clus scale="   92.488">  1  5  2 -1</clus>
<clus scale="   92.718">  7  8 -1 -1</clus>
<clus scale="   51.215">  1  5  2 -1</clus>
</clustering>
</event>
<event>
 9    1  0.6296820E-005  0.1145464E+03  0.7546771E-02  0.1255134E+00
          1   -1    0    0  502    0 -0.00000000000E+00  0.00000000000E+00  0.94043992661E+03  0.94043992661E+03  0.00000000000E+00 0. -1.
         21   -1    0    0  501  502  0.00000000000E+00 -0.00000000000E+00 -0.37616462794E+02  0.37616462794E+02  0.00000000000E+00 0. -1.
         23    2    1    2    0    0  0.22836015120E+02  0.33965246998E+02  0.35066274846E+03  0.36417577220E+03  0.89356075960E+02 0.  0.
        -24    2    1    2    0    0 -0.44573414482E+02 -0.12273461074E+03  0.45581896942E+03  0.48108661704E+03  0.81380748708E+02 0.  0.
         11    1    4    4    0    0 -0.43059098206E+02 -0.10375170111E+03  0.44546622412E+03  0.45941120823E+03  0.00000000000E+00 0. -1.
        -12    1    4    4    0    0 -0.15143162761E+01 -0.18982909624E+02  0.10352745303E+02  0.21675408806E+02  0.00000000000E+00 0.  1.
        -13    1    3    3    0    0  0.52608087335E+02  0.96725905017E+01  0.26418023532E+03  0.26954102952E+03  0.00000000000E+00 0.  1.
         13    1    3    3    0    0 -0.29772072215E+02  0.24292656497E+02  0.86482513132E+02  0.94634742675E+02  0.00000000000E+00 0. -1.
          2    1    1    2  501    0  0.21737399362E+02  0.88769363737E+02  0.96341745937E+02  0.13279400016E+03  0.00000000000E+00 0. -1.
<scales pt_clust_5="13000.00000" pt_clust_6="13000.00000" pt_clust_7="13000.00000" pt_clust_8="13000.00000" pt_clust_9="91.39209"></scales>
<clustering>
<clus scale="   81.381">  5  6 -1 -1</clus>
<clus scale="   89.356">  7  8 -1 -1</clus>
<clus scale="   91.392">  2  9  1 -1</clus>
<clus scale="  108.440">  2  5  1 -1</clus>
<clus scale="   91.392">  2  5  1 -1</clus>
</clustering>
</event>
<event>
 9    1  0.6296820E-005  0.9690667E+03  0.7546771E-02  0.9343138E-01
         21   -1    0    0  501  502  0.00000000000E+00  0.00000000000E+00  0.41953729367E+03  0.41953729367E+03  0.00000000000E+00 0. -1.
          1   -1    0    0  502    0 -0.00000000000E+00 -0.00000000000E+00 -0.24890566976E+04  0.24890566976E+04  0.00000000000E+00 0. -1.
        -24    2    1    2    0    0  0.67791458772E+03 -0.18947230242E+03 -0.12035192621E+04  0.13965964102E+04  0.80962812633E+02 0.  0.
         23    2    1    2    0    0  0.24135884808E+03 -0.86996385032E+01 -0.36326575691E+03  0.44565915937E+03  0.91215672629E+02 0.  0.
         11    1    3    3    0    0  0.65963139061E+03 -0.18754583685E+03 -0.11910968920E+04  0.13744085341E+04  0.00000000000E+00 0. -1.
        -12    1    3    3    0    0  0.18283197110E+02 -0.19264655668E+01 -0.12422370046E+02  0.22187876052E+02  0.00000000000E+00 0.  1.
        -13    1    4    4    0    0  0.21228165467E+03  0.16841434257E+02 -0.26442165761E+03  0.33950839140E+03  0.00000000000E+00 0. -1.
         13    1    4    4    0    0  0.29077193401E+02 -0.25541072760E+02 -0.98844099304E+02  0.10615076797E+03  0.00000000000E+00 0.  1.
          2    1    1    2  501    0 -0.91927343580E+03  0.19817194092E+03 -0.50273438496E+03  0.10663384218E+04  0.00000000000E+00 0. -1.
<scales pt_clust_5="13000.00000" pt_clust_6="13000.00000" pt_clust_7="13000.00000" pt_clust_8="13000.00000" pt_clust_9="940.39128"></scales>
<clustering>
<clus scale="   80.963">  5  6 -1 -1</clus>
<clus scale="   91.216">  7  8 -1 -1</clus>
<clus scale="  113.017">  5  7 -1 -1</clus>
<clus scale="  940.391">  1  9  2 -1</clus>
<clus scale="  940.391">  1  5  2 -1</clus>
</clustering>
</event>
<event>
 9    1  0.6296820E-005  0.2662781E+03  0.7546771E-02  0.1103699E+00
         -2   -1    0    0    0  501 -0.00000000000E+00  0.00000000000E+00  0.58118666618E+03  0.58118666618E+03  0.00000000000E+00 0.  1.
         21   -1    0    0  501  502  0.00000000000E+00 -0.00000000000E+00 -0.24115711824E+03  0.24115711824E+03  0.00000000000E+00 0.  1.
        -24    2    1    2    0    0 -0.12206023109E+03 -0.25395615724E+03  0.20432362926E+03  0.35817067251E+03  0.84531978330E+02 0.  0.
         23    2    1    2    0    0  0.10290842674E+03  0.15881600013E+03 -0.82573305449E+02  0.22529184268E+03  0.90140986310E+02 0.  0.
         11    1    3    3    0    0 -0.26620564033E+02 -0.10284794800E+02  0.44621774852E+01  0.28884986783E+02  0.00000000000E+00 0. -1.
        -12    1    3    3    0    0 -0.95439667060E+02 -0.24367136244E+03  0.19986145177E+03  0.32928568573E+03  0.00000000000E+00 0.  1.
        -11    1    4    4    0    0  0.58161840952E+02  0.44147794262E+02  0.65679475330E+01  0.73314155631E+02  0.00000000000E+00 0. -1.
         11    1    4    4    0    0  0.44746585786E+02  0.11466820587E+03 -0.89141252982E+02  0.15197768705E+03  0.00000000000E+00 0.  1.
         -1    1    1    2    0  502  0.19151804355E+02  0.95140157105E+02  0.21827922413E+03  0.23888126923E+03  0.00000000000E+00 0.  1.
<scales pt_clust_5="13000.00000" pt_clust_6="13000.00000" pt_clust_7="13000.00000" pt_clust_8="13000.00000" pt_clust_9="97.04870"></scales>
<clustering>
<clus scale="   84.532">  5  6 -1 -1</clus>
<clus scale="   90.141">  7  8 -1 -1</clus>
<clus scale="   97.049">  2  9  1 -1</clus>
<clus scale="  264.432">  1  5  2 -1</clus>
<clus scale="   97.049">  2  5  1 -1</clus>
</clustering>
</event>
<event>
 9    1  0.6296820E-005  0.1292126E+03  0.7546771E-02  0.1232331E+00
         21   -1    0    0  501  502  0.00000000000E+00  0.00000000000E+00  0.18443277205E+03  0.18443277205E+03  0.00000000000E+00 0. -1.
          3   -1    0    0  502    0 -0.00000000000E+00 -0.00000000000E+00 -0.36859685157E+03  0.36859685157E+03  0.00000000000E+00 0. -1.
        -24    2    1    2    0    0  0.91184850788E+02  0.66262440582E+01 -0.31089640539E+03  0.33343801819E+03  0.78522308687E+02 0.  0.
         23    2    1    2    0    0 -0.80900681155E+02  0.41844531773E+02  0.89103492653E+02  0.15737336578E+03  0.92363731000E+02 0.  0.
         11    1    3    3    0    0  0.50683545311E+02 -0.35256948634E+02 -0.14454339994E+03  0.15717718874E+03  0.00000000000E+00 0. -1.
        -12    1    3    3    0    0  0.40501305477E+02  0.41883192692E+02 -0.16635300545E+03  0.17626082945E+03  0.00000000000E+00 0.  1.
        -13    1    4    4    0    0 -0.56956435402E+02 -0.22196386714E+02  0.46634360738E+02  0.76886141263E+02  0.00000000000E+00 0. -1.
         13    1    4    4    0    0 -0.23944245753E+02  0.64040918487E+02  0.42469131915E+02  0.80487224520E+02  0.00000000000E+00 0.  1.
          4    1    1    2  501    0 -0.10284169633E+02 -0.48470775831E+02  0.37628833226E+02  0.62218239646E+02  0.00000000000E+00 0. -1.
<scales pt_clust_5="13000.00000" pt_clust_6="13000.00000" pt_clust_7="13000.00000" pt_clust_8="13000.00000" pt_clust_9="49.54978"></scales>
<clustering>
<clus scale="   49.550">  1  9  2 -1</clus>
<clus scale="   78.522">  5  6 -1 -1</clus>
<clus scale="   92.364">  7  8 -1 -1</clus>
<clus scale="  119.710">  2  5  1 -1</clus>
<clus scale="   49.550">  1  5  2 -1</clus>
</clustering>
</event>
<event>
 9    1  0.6296820E-005  0.1009414E+03  0.7546771E-02  0.1283389E+00
         21   -1    0    0  501  502  0.00000000000E+00  0.00000000000E+00  0.13806446427E+03  0.13806446427E+03  0.00000000000E+00 0.  1.
          1   -1    0    0  502    0 -0.00000000000E+00 -0.00000000000E+00 -0.40560240880E+03  0.40560240880E+03  0.00000000000E+00 0. -1.
         23    2    1    2    0    0  0.24928212520E+02 -0.37818809696E+02 -0.36514480056E+03  0.37918368542E+03  0.91639859032E+02 0.  0.
        -24    2    1    2    0    0  0.16307085825E+02  0.14790883929E+02  0.71560136096E+02  0.11054742202E+03  0.81333806884E+02 0.  0.
         11    1    4    4    0    0 -0.16203282490E+02  0.29832277938E+02  0.41377443692E+01  0.34199884486E+02  0.00000000000E+00 0. -1.
        -12    1    4    4    0    0  0.32510368315E+02 -0.15041394009E+02  0.67422391727E+02  0.76347537537E+02  0.00000000000E+00 0.  1.
        -11    1    3    3    0    0 -0.34077995447E+02 -0.15292408710E+02 -0.17067615336E+03  0.17471553126E+03  0.00000000000E+00 0. -1.
         11    1    3    3    0    0  0.59006207967E+02 -0.22526400986E+02 -0.19446864720E+03  0.20446815415E+03  0.00000000000E+00 0.  1.
          2    1    1    2  501    0 -0.41235298345E+02  0.23027925767E+02  0.26046719934E+02  0.53935765629E+02  0.00000000000E+00 0. -1.
<scales pt_clust_5="13000.00000" pt_clust_6="13000.00000" pt_clust_7="13000.00000" pt_clust_8="13000.00000" pt_clust_9="47.22960"></scales>
<clustering>
<clus scale="   47.230">  1  9  2 -1</clus>
<clus scale="   81.334">  5  6 -1 -1</clus>
<clus scale="   91.640">  7  8 -1 -1</clus>
<clus scale="   91.687">  1  5  2 -1</clus>
<clus scale="   47.230">  1  5  2 -1</clus>
</clustering>
</event>
<event>
 9    1  0.6296820E-005  0.2417203E+03  0.7546771E-02  0.1118652E+00
          1   -1    0    0  502    0 -0.00000000000E+00  0.00000000000E+00  0.15079870544E+03  0.15079870544E+03  0.00000000000E+00 0. -1.
         21   -1    0    0  501  502  0.00000000000E+00 -0.00000000000E+00 -0.27443698627E+03  0.27443698627E+03  0.00000000000E+00 0. -1.
        -24    2    1    2    0    0  0.23947284877E+02  0.95272098835E+02 -0.59202444245E+02  0.14011171180E+03  0.80474325783E+02 0.  0.
         23    2    1    2    0    0  0.69921082349E+01  0.64107252260E+02 -0.38971611298E+02  0.12078454346E+03  0.94400688990E+02 0.  0.
         11    1    3    3    0    0  0.50673122290E+02  0.48627262198E+02 -0.18340685521E+02  0.72586201835E+02  0.00000000000E+00 0. -1.
        -12    1    3    3    0    0 -0.26725837413E+02  0.46644836637E+02 -0.40861758723E+02  0.67525509967E+02  0.00000000000E+00 0.  1.
        -11    1    4    4    0    0  0.27547896018E+01  0.87346668698E+02 -0.18061925946E+02  0.89237114293E+02  0.00000000000E+00 0. -1.
         11    1    4    4    0    0  0.42373186331E+01 -0.23239416438E+02 -0.20909685352E+02  0.31547429167E+02  0.00000000000E+00 0.  1.
          2    1    1    2  501    0 -0.30939393112E+02 -0.15937935110E+03 -0.25464225291E+02  0.16433943645E+03  0.00000000000E+00 0. -1.
<scales pt_clust_5="13000.00000" pt_clust_6="13000.00000" pt_clust_7="13000.00000" pt_clust_8="13000.00000" pt_clust_9="162.35470"></scales>
<clustering>
<clus scale="   80.474">  5  6 -1 -1</clus>
<clus scale="   94.401">  7  8 -1 -1</clus>
<clus scale="   95.203">  5  7 -1 -1</clus>
<clus scale="  162.355">  2  9  1 -1</clus>
<clus scale="  162.355">  2  5  1 -1</clus>
</clustering>
</event>
<event>
 9    1  0.6801832E-005  0.1933267E+03  0.7546771E-02  0.1178549E+00
         21   -1    0    0  501  502  0.00000000000E+00  0.00000000000E+00  0.78968372320E+02  0.78968372320E+02  0.00000000000E+00 0. -1.
          1   -1    0    0  502    0 -0.00000000000E+00 -0.00000000000E+00 -0.15210787071E+04  0.15210787071E+04  0.00000000000E+00 0. -1.
         23    2    1    2    0    0  0.59693554672E+02  0.32910698597E+02 -0.12259051547E+02  0.11443508776E+03  0.91097038455E+02 0.  0.
        -24    2    1    2    0    0 -0.19727167253E+03  0.49185261372E+02 -0.10491481391E+04  0.10725715952E+04  0.91447833888E+02 0.  0.
         11    1    4    4    0    0 -0.18525875507E+03  0.25410238791E+02 -0.99264535051E+03  0.10101045879E+04  0.00000000000E+00 0. -1.
        -12    1    4    4    0    0 -0.12012917461E+02  0.23775022581E+02 -0.56502788603E+02  0.62467007328E+02  0.00000000000E+00 0.  1.
        -11    1    3    3    0    0  0.78357893497E+01 -0.29473703625E+02 -0.13380538732E+02  0.33303717763E+02  0.00000000000E+00 0.  1.
         11    1    3    3    0    0  0.51857765322E+02  0.62384402221E+02  0.11214871851E+01  0.81131370001E+02  0.00000000000E+00 0. -1.
          2    1    1    2  501    0  0.13757811785E+03 -0.82095959969E+02 -0.38070314411E+03  0.41304039644E+03  0.00000000000E+00 0. -1.
<scales pt_clust_5="13000.00000" pt_clust_6="13000.00000" pt_clust_7="13000.00000" pt_clust_8="13000.00000" pt_clust_9="170.33053"></scales>
<clustering>
<clus scale="   91.097">  7  8 -1 -1</clus>
<clus scale="   91.448">  5  6 -1 -1</clus>
<clus scale="  113.777">  2  7  1 -1</clus>
<clus scale="  170.331">  1  9  2 -1</clus>
<clus scale="  170.331">  1  5  2 -1</clus>
</clustering>
</event>
<event>
 9    1  0.6296820E-005  0.1751621E+03  0.7546771E-02  0.1205471E+00
          3   -1    0    0  502    0 -0.00000000000E+00  0.00000000000E+00  0.87378790531E+02  0.87378790531E+02  0.00000000000E+00 0. -1.
         21   -1    0    0  501  502  0.00000000000E+00 -0.00000000000E+00 -0.98788839696E+03  0.98788839696E+03  0.00000000000E+00 0. -1.
        -24    2    1    2    0    0  0.12741889950E+02  0.23298092639E+02  0.19136768811E+02  0.86693613128E+02  0.80277081141E+02 0.  0.
         23    2    1    2    0    0  0.13839806399E+03 -0.28223970258E+01 -0.24044763674E+03  0.29246046131E+03  0.92499002012E+02 0.  0.
         13    1    3    3    0    0  0.26908404186E+02  0.43307376188E+02  0.30775834037E+02  0.59554538105E+02  0.00000000000E+00 0. -1.
        -14    1    3    3    0    0 -0.14166514236E+02 -0.20009283550E+02 -0.11639065226E+02  0.27139075023E+02  0.00000000000E+00 0.  1.
        -11    1    4    4    0    0  0.17642016309E+02  0.27167232799E+02 -0.16700690713E+02  0.36444647724E+02  0.00000000000E+00 0.  1.
         11    1    4    4    0    0  0.12075604768E+03 -0.29989629825E+02 -0.22374694603E+03  0.25601581359E+03  0.00000000000E+00 0. -1.
          4    1    1    2  501    0 -0.15113995394E+03 -0.20475695613E+02 -0.67919873850E+03  0.69611311306E+03  0.00000000000E+00 0. -1.
<scales pt_clust_5="13000.00000" pt_clust_6="13000.00000" pt_clust_7="13000.00000" pt_clust_8="13000.00000" pt_clust_9="148.74713"></scales>
<clustering>
<clus scale="   80.277">  5  6 -1 -1</clus>
<clus scale="   84.555">  1  5  2 -1</clus>
<clus scale="   92.499">  7  8 -1 -1</clus>
<clus scale="  148.747">  2  9  1 -1</clus>
<clus scale="  148.747">  2  5  1 -1</clus>
</clustering>
</event>
<event>
 9    1  0.6296820E-005  0.2930890E+03  0.7546771E-02  0.1088747E+00
         21   -1    0    0  501  502  0.00000000000E+00  0.00000000000E+00  0.61283021331E+02  0.61283021331E+02  0.00000000000E+00 0. -1.
          1   -1    0    0  502    0 -0.00000000000E+00 -0.00000000000E+00 -0.10263031826E+04  0.10263031826E+04  0.00000000000E+00 0. -1.
        -24    2    1    2    0    0 -0.10901342421E+03 -0.83930965440E+02 -0.55831885867E+03  0.58046008574E+03  0.79281962453E+02 0.  0.
         23    2    1    2    0    0 -0.34557539438E+02  0.92660917366E+01 -0.25978071168E+03  0.28855547744E+03  0.12040831122E+03 0.  0.
         11    1    3    3    0    0 -0.10316672867E+03 -0.38927496237E+02 -0.44339906635E+03  0.45690420868E+03  0.00000000000E+00 0. -1.
        -12    1    3    3    0    0 -0.58466955393E+01 -0.45003469203E+02 -0.11491979232E+03  0.12355587706E+03  0.00000000000E+00 0.  1.
        -13    1    4    4    0    0  0.22690346734E+02 -0.41194158407E+02 -0.73608618542E+02  0.87350095853E+02  0.00000000000E+00 0. -1.
         13    1    4    4    0    0 -0.57247886171E+02  0.50460250144E+02 -0.18617209313E+03  0.20120538158E+03  0.00000000000E+00 0.  1.
          2    1    1    2  501    0  0.14357096365E+03  0.74664873703E+02 -0.14692059094E+03  0.21857064078E+03  0.00000000000E+00 0. -1.
<scales pt_clust_5="13000.00000" pt_clust_6="13000.00000" pt_clust_7="13000.00000" pt_clust_8="13000.00000" pt_clust_9="161.82542"></scales>
<clustering>
<clus scale="   79.282">  5  6 -1 -1</clus>
<clus scale="  120.408">  7  8 -1 -1</clus>
<clus scale="  125.398">  5  7 -1 -1</clus>
<clus scale="  161.825">  1  9  2 -1</clus>
<clus scale="  161.825">  1  5  2 -1</clus>
</clustering>
</event>
<event>
 9    1  0.6296820E-005  0.9223557E+02  0.7546771E-02  0.1304428E+00
          1   -1    0    0  502    0 -0.00000000000E+00  0.00000000000E+00  0.30038357376E+03  0.30038357376E+03  0.00000000000E+00 0. -1.
         21   -1    0    0  501  502  0.00000000000E+00 -0.00000000000E+00 -0.36952074442E+02  0.36952074442E+02  0.00000000000E+00 0. -1.
         23    2    1    2    0    0 -0.13984025615E+02  0.24961524105E+01  0.13404946425E+03  0.16290141238E+03  0.91464897860E+02 0.  0.
        -24    2    1    2    0    0 -0.11970068798E+02 -0.21606292844E+02  0.10170350737E+03  0.13194996368E+03  0.80355927387E+02 0.  0.
         11    1    4    4    0    0 -0.46402816853E+02 -0.89049427938E+01  0.53781111155E+02  0.71588597801E+02  0.00000000000E+00 0. -1.
        -12    1    4    4    0    0  0.34432748055E+02 -0.12701350050E+02  0.47922396211E+02  0.60361365875E+02  0.00000000000E+00 0.  1.
        -11    1    3    3    0    0  0.23938027996E+02 -0.19359731804E+02  0.11660017311E+02  0.32920880966E+02  0.00000000000E+00 0. -1.
         11    1    3    3    0    0 -0.37922053611E+02  0.21855884215E+02  0.12238944694E+03  0.12998053141E+03  0.00000000000E+00 0.  1.
          2    1    1    2  501    0  0.25954094413E+02  0.19110140433E+02  0.27678527710E+02  0.42484272153E+02  0.00000000000E+00 0. -1.
<scales pt_clust_5="13000.00000" pt_clust_6="13000.00000" pt_clust_7="13000.00000" pt_clust_8="13000.00000" pt_clust_9="32.23061"></scales>
<clustering>
<clus scale="   32.231">  2  9  1 -1</clus>
<clus scale="   80.356">  5  6 -1 -1</clus>
<clus scale="   81.232">  2  5  1 -1</clus>
<clus scale="   91.465">  7  8 -1 -1</clus>
<clus scale="   32.231">  2  5  1 -1</clus>
</clustering>
</event>
<event>
 9    1  0.6296820E-005  0.2019155E+03  0.7546771E-02  0.1148133E+00
          3   -1    0    0  502    0 -0.00000000000E+00  0.00000000000E+00  0.81473266900E+03  0.81473266900E+03  0.00000000000E+00 0. -1.
         21   -1    0    0  501  502  0.00000000000E+00 -0.00000000000E+00 -0.29161767113E+02  0.29161767113E+02  0.00000000000E+00 0. -1.
        -24    2    1    2    0    0  0.11276325781E+02 -0.62851083056E+02  0.35181904021E+03  0.36609938999E+03  0.78579336522E+02 0.  0.
         23    2    1    2    0    0  0.54446126923E+01 -0.38263737322E+02  0.22919028740E+03  0.24899549553E+03  0.89312997679E+02 0.  0.
         13    1    3    3    0    0  0.44201539054E+02 -0.32756678074E+02  0.16116264701E+03  0.17029437690E+03  0.00000000000E+00 0. -1.
        -14    1    3    3    0    0 -0.32925213272E+02 -0.30094404981E+02  0.19065639320E+03  0.19580501308E+03  0.00000000000E+00 0.  1.
        -11    1    4    4    0    0  0.34346355400E+02 -0.23825182547E+02  0.20341560340E+03  0.20766612424E+03  0.00000000000E+00 0. -1.
         11    1    4    4    0    0 -0.28901742708E+02 -0.14438554775E+02  0.25774684004E+02  0.41329371288E+02  0.00000000000E+00 0.  1.
          4    1    1    2  501    0 -0.16720938474E+02  0.10111482038E+03  0.20456157428E+03  0.22879955060E+03  0.00000000000E+00 0. -1.
<scales pt_clust_5="13000.00000" pt_clust_6="13000.00000" pt_clust_7="13000.00000" pt_clust_8="13000.00000" pt_clust_9="102.48803"></scales>
<clustering>
<clus scale="   78.579">  5  6 -1 -1</clus>
<clus scale="   89.313">  7  8 -1 -1</clus>
<clus scale="   92.793">  5  7 -1 -1</clus>
<clus scale="  102.488">  2  9  1 -1</clus>
<clus scale="  102.488">  2  5  1 -1</clus>
</clustering>
</event>
<event>
 9    1  0.6296820E-005  0.1141037E+03  0.7546771E-02  0.1259127E+00
          1   -1    0    0  502    0 -0.00000000000E+00  0.00000000000E+00  0.87775017806E+02  0.87775017806E+02  0.00000000000E+00 0. -1.
         21   -1    0    0  501  502  0.00000000000E+00 -0.00000000000E+00 -0.53477171148E+03  0.53477171148E+03  0.00000000000E+00 0.  1.
         23    2    1    2    0    0 -0.56857080600E+02  0.29635705174E+02  0.35107412751E+02  0.11810755538E+03  0.92767783050E+02 0.  0.
        -24    2    1    2    0    0  0.86350016296E+02 -0.22747505656E+02 -0.36550452602E+03  0.38397032856E+03  0.76589035405E+02 0.  0.
         13    1    4    4    0    0  0.28528393565E+02  0.28479399741E+02 -0.11861973318E+03  0.12528202803E+03  0.00000000000E+00 0. -1.
        -14    1    4    4    0    0  0.57821622731E+02 -0.51226905397E+02 -0.24688479284E+03  0.25868830052E+03  0.00000000000E+00 0.  1.
        -11    1    3    3    0    0 -0.23765261071E+02  0.13006318021E+02 -0.31713479230E+02  0.41709671625E+02  0.00000000000E+00 0.  1.
         11    1    3    3    0    0 -0.33091819529E+02  0.16629387153E+02  0.66820891982E+02  0.76397883754E+02  0.00000000000E+00 0. -1.
          2    1    1    2  501    0 -0.29492935696E+02 -0.68881995181E+01 -0.11659958040E+03  0.12046884534E+03  0.00000000000E+00 0. -1.
<scales pt_clust_5="13000.00000" pt_clust_6="13000.00000" pt_clust_7="13000.00000" pt_clust_8="13000.00000" pt_clust_9="30.28664"></scales>
<clustering>
<clus scale="   30.287">  2  9  1 -1</clus>
<clus scale="   76.589">  5  6 -1 -1</clus>
<clus scale="   92.768">  7  8 -1 -1</clus>
<clus scale="  101.389">  2  5  1 -1</clus>
<clus scale="   30.287">  2  5  1 -1</clus>
</clustering>
</event>
<event>
 9    1  0.6296820E-005  0.1826216E+03  0.7546771E-02  0.1183399E+00
         21   -1    0    0  501  502  0.00000000000E+00  0.00000000000E+00  0.14153019672E+04  0.14153019672E+04  0.00000000000E+00 0. -1.
          1   -1    0    0  502    0 -0.00000000000E+00 -0.00000000000E+00 -0.13651419335E+03  0.13651419335E+03  0.00000000000E+00 0. -1.
         23    2    1    2    0    0 -0.84097471630E+02  0.11959463952E+02 -0.73235582589E+02  0.14149002784E+03  0.86258703375E+02 0.  0.
        -24    2    1    2    0    0  0.21076630899E+03 -0.80365275174E+02  0.62982727592E+03  0.67392167313E+03  0.81283513453E+02 0.  0.
         13    1    4    4    0    0  0.20820286037E+03 -0.56737085956E+02  0.57524664034E+03  0.61439093842E+03  0.00000000000E+00 0. -1.
        -14    1    4    4    0    0  0.25634486180E+01 -0.23628189218E+02  0.54580635576E+02  0.59530734704E+02  0.00000000000E+00 0.  1.
        -13    1    3    3    0    0  0.53604641383E+01  0.26823971124E+02 -0.31330295975E+02  0.41591434797E+02  0.00000000000E+00 0.  1.
         13    1    3    3    0    0 -0.89457935768E+02 -0.14864507172E+02 -0.41905286614E+02  0.99898593041E+02  0.00000000000E+00 0. -1.
          2    1    1    2  501    0 -0.12666883736E+03  0.68405811222E+02  0.72219608057E+03  0.73640445963E+03  0.00000000000E+00 0. -1.
<scales pt_clust_5="13000.00000" pt_clust_6="13000.00000" pt_clust_7="13000.00000" pt_clust_8="13000.00000" pt_clust_9="163.53486"></scales>
<clustering>
<clus scale="   81.284">  5  6 -1 -1</clus>
<clus scale="   86.259">  7  8 -1 -1</clus>
<clus scale="  121.062">  2  7  1 -1</clus>
<clus scale="  163.535">  1  9  2 -1</clus>
<clus scale="  163.535">  1  5  2 -1</clus>
</clustering>
</event>
<event>
 9    1  0.9296079E-005  0.1133824E+03  0.7546771E-02  0.1258278E+00
         21   -1    0    0  501  502  0.00000000000E+00  0.00000000000E+00  0.20717330406E+03  0.20717330406E+03  0.00000000000E+00 0. -1.
          1   -1    0    0  502    0 -0.00000000000E+00 -0.00000000000E+00 -0.31326739276E+03  0.31326739276E+03  0.00000000000E+00 0. -1.
         23    2    1    2    0    0  0.27117383484E+02 -0.62510180090E+02 -0.23592545527E+03  0.26243820187E+03  0.92574911559E+02 0.  0.
        -24    2    1    2    0    0 -0.39790260830E+02  0.44410526202E+02 -0.22555718260E+02  0.10402190229E+03  0.82196326168E+02 0.  0.
         13    1    4    4    0    0 -0.30383128741E+02 -0.17173901236E+02 -0.22862197474E+02  0.41722385707E+02  0.00000000000E+00 0. -1.
        -14    1    4    4    0    0 -0.94071320891E+01  0.61584427438E+02  0.30647921416E+00  0.62299516583E+02  0.00000000000E+00 0.  1.
        -11    1    3    3    0    0  0.58954677613E+02 -0.45156078419E+02 -0.18949562283E+03  0.20352718861E+03  0.00000000000E+00 0. -1.
         11    1    3    3    0    0 -0.31837294129E+02 -0.17354101671E+02 -0.46429832442E+02  0.58911013256E+02  0.00000000000E+00 0.  1.
          2    1    1    2  501    0  0.12672877346E+02  0.18099653888E+02  0.15238708484E+03  0.15398059266E+03  0.00000000000E+00 0. -1.
<scales pt_clust_5="13000.00000" pt_clust_6="13000.00000" pt_clust_7="13000.00000" pt_clust_8="13000.00000" pt_clust_9="22.09523"></scales>
<clustering>
<clus scale="   22.095">  1  9  2 -1</clus>
<clus scale="   82.196">  5  6 -1 -1</clus>
<clus scale="   92.575">  7  8 -1 -1</clus>
<clus scale="  105.079">  1  5  2 -1</clus>
<clus scale="   22.095">  1  5  2 -1</clus>
</clustering>
</event>
<event>
 9    1  0.6296820E-005  0.2106819E+03  0.7546771E-02  0.1166318E+00
          1   -1    0    0  502    0 -0.00000000000E+00  0.00000000000E+00  0.13619607359E+04  0.13619607359E+04  0.00000000000E+00 0. -1.
         21   -1    0    0  501  502  0.00000000000E+00 -0.00000000000E+00 -0.55968563329E+02  0.55968563329E+02  0.00000000000E+00 0.  1.
         23    2    1    2    0    0  0.64974006613E+02  0.30987089379E+02  0.47695751788E+03  0.49089744538E+03  0.91159238561E+02 0.  0.
        -24    2    1    2    0    0 -0.22813259531E+03  0.22420565583E+02  0.48410851272E+03  0.54174346045E+03  0.81103403441E+02 0.  0.
         11    1    4    4    0    0 -0.70264841622E+02  0.41999564143E+02  0.20050668312E+03  0.21657340864E+03  0.00000000000E+00 0. -1.
        -12    1    4    4    0    0 -0.15786775369E+03 -0.19578998560E+02  0.28360182960E+03  0.32517005181E+03  0.00000000000E+00 0.  1.
        -11    1    3    3    0    0 -0.20726053566E+02  0.20184102941E+02  0.14708537179E+03  0.14990354866E+03  0.00000000000E+00 0.  1.
         11    1    3    3    0    0  0.85700060179E+02  0.10802986438E+02  0.32987214610E+03  0.34099389672E+03  0.00000000000E+00 0. -1.
          2    1    1    2  501    0  0.16315858870E+03 -0.53407654962E+02  0.34492614201E+03  0.38528839344E+03  0.00000000000E+00 0. -1.
<scales pt_clust_5="13000.00000" pt_clust_6="13000.00000" pt_clust_7="13000.00000" pt_clust_8="13000.00000" pt_clust_9="194.44565"></scales>
<clustering>
<clus scale="   81.103">  5  6 -1 -1</clus>
<clus scale="   91.159">  7  8 -1 -1</clus>
<clus scale="  116.154">  1  7  2 -1</clus>
<clus scale="  194.446">  2  9  1 -1</clus>
<clus scale="  194.446">  2  5  1 -1</clus>
</clustering>
</event>
<event>
 9    1  0.6296820E-005  0.1151288E+03  0.7546771E-02  0.1255835E+00
         21   -1    0    0  501  502  0.00000000000E+00  0.00000000000E+00  0.78751503190E+02  0.78751503190E+02  0.00000000000E+00 0. -1.
          1   -1    0    0  502    0 -0.00000000000E+00 -0.00000000000E+00 -0.28124043075E+03  0.28124043075E+03  0.00000000000E+00 0. -1.
         23    2    1    2    0    0 -0.59014425312E+02 -0.32345478391E+02 -0.19015779520E+03  0.22205334892E+03  0.92837332590E+02 0.  0.
        -24    2    1    2    0    0  0.73503267637E+02  0.10859487441E+02 -0.50097749781E+00  0.10945127341E+03  0.80365859987E+02 0.  0.
         11    1    4    4    0    0  0.65341393488E+02 -0.17570735698E+02 -0.23875722479E+02  0.71751505766E+02  0.00000000000E+00 0. -1.
        -12    1    4    4    0    0  0.81618741497E+01  0.28430223138E+02  0.23374744981E+02  0.37699767642E+02  0.00000000000E+00 0.  1.
        -13    1    3    3    0    0 -0.33804233061E+02  0.25387966060E+02 -0.12258150039E+03  0.12966687793E+03  0.00000000000E+00 0.  1.
         13    1    3    3    0    0 -0.25210192252E+02 -0.57733444451E+02 -0.67576294808E+02  0.92386470988E+02  0.00000000000E+00 0. -1.
          2    1    1    2  501    0 -0.14488842325E+02  0.21485990950E+02 -0.11830154863E+02  0.28487311616E+02  0.00000000000E+00 0. -1.
<scales pt_clust_5="13000.00000" pt_clust_6="13000.00000" pt_clust_7="13000.00000" pt_clust_8="13000.00000" pt_clust_9="25.91475"></scales>
<clustering>
<clus scale="   25.915">  1  9  2 -1</clus>
<clus scale="   80.366">  5  6 -1 -1</clus>
<clus scale="   92.837">  7  8 -1 -1</clus>
<clus scale="  105.331">  1  5  2 -1</clus>
<clus scale="   25.915">  1  5  2 -1</clus>
</clustering>
</event>
<event>
 9    1  0.6296820E-005  0.1234088E+03  0.7546771E-02  0.1241120E+00
         21   -1    0    0  501  502  0.00000000000E+00  0.00000000000E+00  0.45426255983E+02  0.45426255983E+02  0.00000000000E+00 0. -1.
          1   -1    0    0  502    0 -0.00000000000E+00 -0.00000000000E+00 -0.95604507413E+03  0.95604507413E+03  0.00000000000E+00 0. -1.
        -24    2    1    2    0    0 -0.86533176592E+02 -0.44887981468E+02 -0.67595082730E+03  0.68797872821E+03  0.83080009648E+02 0.  0.
         23    2    1    2    0    0  0.20674710309E+02 -0.31248044231E+02 -0.82213061136E+02  0.13080013468E+03  0.94582259940E+02 0.  0.
         13    1    3    3    0    0 -0.47195935976E+02 -0.58355730493E+02 -0.28117315646E+03  0.29101751076E+03  0.00000000000E+00 0. -1.
        -14    1    3    3    0    0 -0.39337240616E+02  0.13467749025E+02 -0.39477767084E+03  0.39696121745E+03  0.00000000000E+00 0.  1.
        -13    1    4    4    0    0  0.44773860265E+02  0.13281929741E+02 -0.58594711495E+02  0.74929623220E+02  0.00000000000E+00 0.  1.
         13    1    4    4    0    0 -0.24099149956E+02 -0.44529973972E+02 -0.23618349641E+02  0.55870511456E+02  0.00000000000E+00 0. -1.
          2    1    1    2  501    0  0.65858466283E+02  0.76136025699E+02 -0.15245492971E+03  0.18269246723E+03  0.00000000000E+00 0. -1.
<scales pt_clust_5="13000.00000" pt_clust_6="13000.00000" pt_clust_7="13000.00000" pt_clust_8="13000.00000" pt_clust_9="100.66793"></scales>
<clustering>
<clus scale="   83.080">  5  6 -1 -1</clus>
<clus scale="   94.582">  7  8 -1 -1</clus>
<clus scale="  100.668">  1  9  2 -1</clus>
<clus scale="  114.831">  2  5  1 -1</clus>
<clus scale="  100.668">  1  5  2 -1</clus>
</clustering>
</event>
<event>
 9    1  0.6296820E-005  0.1629189E+03  0.7546771E-02  0.1207262E+00
         21   -1    0    0  501  502  0.00000000000E+00  0.00000000000E+00  0.11062436502E+03  0.11062436502E+03  0.00000000000E+00 0. -1.
          1   -1    0    0  502    0 -0.00000000000E+00 -0.00000000000E+00 -0.44699112130E+03  0.44699112130E+03  0.00000000000E+00 0. -1.
        -24    2    1    2    0    0  0.40612947706E+02  0.44253458861E+02 -0.67978668829E+02  0.12184476616E+03  0.81346588631E+02 0.  0.
         23    2    1    2    0    0  0.28344516344E+02  0.84179752171E+02 -0.25919491976E+03  0.28970657030E+03  0.94118266889E+02 0.  0.
         11    1    3    3    0    0  0.21318941410E+01  0.35964839929E+02 -0.73731439229E+02  0.82063023430E+02  0.00000000000E+00 0. -1.
        -12    1    3    3    0    0  0.38481053565E+02  0.82886189322E+01  0.57527703991E+01  0.39781742729E+02  0.00000000000E+00 0.  1.
        -13    1    4    4    0    0  0.37928954440E+02  0.53001551779E+02 -0.62412327794E+02  0.90238953543E+02  0.00000000000E+00 0. -1.
         13    1    4    4    0    0 -0.95844380959E+01  0.31178200392E+02 -0.19678259196E+03  0.19946761675E+03  0.00000000000E+00 0.  1.
          2    1    1    2  501    0 -0.68957464050E+02 -0.12843321103E+03 -0.91931676976E+01  0.14606414987E+03  0.00000000000E+00 0. -1.
<scales pt_clust_5="13000.00000" pt_clust_6="13000.00000" pt_clust_7="13000.00000" pt_clust_8="13000.00000" pt_clust_9="132.98241"></scales>
<clustering>
<clus scale="   81.347">  5  6 -1 -1</clus>
<clus scale="   94.118">  7  8 -1 -1</clus>
<clus scale="  101.119">  2  5  1 -1</clus>
<clus scale="  132.982">  1  9  2 -1</clus>
<clus scale="  132.982">  1  5  2 -1</clus>
</clustering>
</event>
<event>
 9    1  0.6296820E-005  0.2052526E+03  0.7546771E-02  0.1146781E+00
         -2   -1    0    0    0  501 -0.00000000000E+00  0.00000000000E+00  0.88256205529E+03  0.88256205529E+03  0.00000000000E+00 0.  1.
         21   -1    0    0  501  502  0.00000000000E+00 -0.00000000000E+00 -0.89409105702E+02  0.89409105702E+02  0.00000000000E+00 0. -1.
         23    2    1    2    0    0 -0.68208309260E+02  0.18210857010E+03  0.52357829817E+03  0.56601367810E+03  0.91767885047E+02 0.  0.
        -24    2    1    2    0    0 -0.14215248717E+02 -0.16507390836E+03  0.80654576702E+02  0.19913722943E+03  0.75491767004E+02 0.  0.
         13    1    4    4    0    0 -0.26477555758E+01 -0.16358940147E+03  0.57874294655E+02  0.17354520121E+03  0.00000000000E+00 0. -1.
        -14    1    4    4    0    0 -0.11567493141E+02 -0.14845068936E+01  0.22780282046E+02  0.25592028220E+02  0.00000000000E+00 0.  1.
        -13    1    3    3    0    0 -0.20385804459E+02  0.10158715158E+03  0.16039912890E+03  0.19095394980E+03  0.00000000000E+00 0.  1.
         13    1    3    3    0    0 -0.47822504801E+02  0.80521418515E+02  0.36317916926E+03  0.37505972830E+03  0.00000000000E+00 0. -1.
         -1    1    1    2    0  502  0.82423557977E+02 -0.17034661738E+02  0.18892007472E+03  0.20682025346E+03  0.00000000000E+00 0.  1.
<scales pt_clust_5="13000.00000" pt_clust_6="13000.00000" pt_clust_7="13000.00000" pt_clust_8="13000.00000" pt_clust_9="84.16549"></scales>
<clustering>
<clus scale="   75.492">  5  6 -1 -1</clus>
<clus scale="   84.165">  2  9  1 -1</clus>
<clus scale="   91.768">  7  8 -1 -1</clus>
<clus scale="  198.510">  2  5  1 -1</clus>
<clus scale="   84.165">  2  5  1 -1</clus>
</clustering>
</event>
<event>
 9    1  0.6296820E-005  0.1268121E+03  0.7546771E-02  0.1236454E+00
          1   -1    0    0  502    0 -0.00000000000E+00  0.00000000000E+00  0.10162844437E+04  0.10162844437E+04  0.00000000000E+00 0. -1.
         21   -1    0    0  501  502  0.00000000000E+00 -0.00000000000E+00 -0.25910876773E+02  0.25910876773E+02  0.00000000000E+00 0. -1.
         23    2    1    2    0    0  0.98820518539E+01 -0.10606400949E+03  0.57259727497E+03  0.58892631015E+03  0.87288776041E+02 0.  0.
        -24    2    1    2    0    0 -0.23407653778E+02  0.61301393595E+02  0.13227099280E+03  0.16395964384E+03  0.71283729979E+02 0.  0.
         13    1    4    4    0    0 -0.11059381536E+02  0.72969181944E+02  0.79293510585E+02  0.10832484597E+03  0.00000000000E+00 0. -1.
        -14    1    4    4    0    0 -0.12348272242E+02 -0.11667788348E+02  0.52977482211E+02  0.55634797867E+02  0.00000000000E+00 0.  1.
        -11    1    3    3    0    0 -0.16350177637E+02 -0.10995735697E+03  0.45712146301E+03  0.47044445007E+03  0.00000000000E+00 0. -1.
         11    1    3    3    0    0  0.26232229491E+02  0.38933474804E+01  0.11547581197E+03  0.11848186008E+03  0.00000000000E+00 0.  1.
          2    1    1    2  501    0  0.13525601925E+02  0.44762615898E+02  0.28550529920E+03  0.28930936652E+03  0.00000000000E+00 0. -1.
<scales pt_clust_5="13000.00000" pt_clust_6="13000.00000" pt_clust_7="13000.00000" pt_clust_8="13000.00000" pt_clust_9="46.76148"></scales>
<clustering>
<clus scale="   46.761">  2  9  1 -1</clus>
<clus scale="   71.284">  5  6 -1 -1</clus>
<clus scale="   87.289">  7  8 -1 -1</clus>
<clus scale="  116.376">  2  5  1 -1</clus>
<clus scale="   46.761">  2  5  1 -1</clus>
</clustering>
</event>
<event>
 9    1  0.6296820E-005  0.1563219E+03  0.7546771E-02  0.1194607E+00
          1   -1    0    0  502    0 -0.00000000000E+00  0.00000000000E+00  0.41475703848E+03  0.41475703848E+03  0.00000000000E+00 0. -1.
         21   -1    0    0  501  502  0.00000000000E+00 -0.00000000000E+00 -0.18001281989E+03  0.18001281989E+03  0.00000000000E+00 0. -1.
         23    2    1    2    0    0 -0.38574339540E+02 -0.14582272319E+03  0.25072402913E+03  0.30631493361E+03  0.90631415627E+02 0.  0.
        -24    2    1    2    0    0  0.10574821538E+03  0.49086415897E+02  0.53884056410E+02  0.15151989401E+03  0.80390456292E+02 0.  0.
         11    1    4    4    0    0  0.20280289958E+02 -0.14524542630E+02 -0.10467348358E+02  0.27052132652E+02  0.00000000000E+00 0. -1.
        -12    1    4    4    0    0  0.85467925423E+02  0.63610958527E+02  0.64351404769E+02  0.12446776135E+03  0.00000000000E+00 0.  1.
        -11    1    3    3    0    0 -0.45062754209E+02 -0.36959360259E+02  0.45591847962E+02  0.73995018266E+02  0.00000000000E+00 0.  1.
         11    1    3    3    0    0  0.64884146697E+01 -0.10886336293E+03  0.20513218117E+03  0.23231991534E+03  0.00000000000E+00 0. -1.
          2    1    1    2  501    0 -0.67173875841E+02  0.96736307295E+02 -0.69863866951E+02  0.13693503076E+03  0.00000000000E+00 0. -1.
<scales pt_clust_5="13000.00000" pt_clust_6="13000.00000" pt_clust_7="13000.00000" pt_clust_8="13000.00000" pt_clust_9="117.77199"></scales>
<clustering>
<clus scale="   80.390">  5  6 -1 -1</clus>
<clus scale="   90.631">  7  8 -1 -1</clus>
<clus scale="  117.772">  2  9  1 -1</clus>
<clus scale="  150.616">  2  5  1 -1</clus>
<clus scale="  117.772">  2  5  1 -1</clus>
</clustering>
</event>
<event>
 9    1  0.6296820E-005  0.1363790E+03  0.7546771E-02  0.1225342E+00
         21   -1    0    0  501  502  0.00000000000E+00  0.00000000000E+00  0.16308927176E+03  0.16308927176E+03  0.00000000000E+00 0.  1.
          1   -1    0    0  502    0 -0.00000000000E+00 -0.00000000000E+00 -0.49126478209E+03  0.49126478209E+03  0.00000000000E+00 0. -1.
         23    2    1    2    0    0  0.63723708286E+02 -0.45742163382E+02 -0.43489848212E+03  0.45545039203E+03  0.11020577727E+03 0.  0.
        -24    2    1    2    0    0 -0.94971361634E+02  0.45903162183E+02  0.92755091994E+02  0.16467584525E+03  0.85953284341E+02 0.  0.
         11    1    4    4    0    0 -0.57004228243E+02 -0.14597512093E-01  0.31772617721E+01  0.57092707442E+02  0.00000000000E+00 0. -1.
        -12    1    4    4    0    0 -0.37967133390E+02  0.45917759695E+02  0.89577830222E+02  0.10758313781E+03  0.00000000000E+00 0.  1.
        -11    1    3    3    0    0  0.21598532450E+02  0.14837800397E+02 -0.17338208282E+02  0.31420859171E+02  0.00000000000E+00 0.  1.
         11    1    3    3    0    0  0.42125175836E+02 -0.60579963779E+02 -0.41756027384E+03  0.42402953286E+03  0.00000000000E+00 0. -1.
          2    1    1    2  501    0  0.31247653348E+02 -0.16099880085E+00  0.13967879797E+02  0.34227816559E+02  0.00000000000E+00 0. -1.
<scales pt_clust_5="13000.00000" pt_clust_6="13000.00000" pt_clust_7="13000.00000" pt_clust_8="13000.00000" pt_clust_9="31.24807"></scales>
<clustering>
<clus scale="   31.248">  1  9  2 -1</clus>
<clus scale="   85.953">  5  6 -1 -1</clus>
<clus scale="  110.206">  7  8 -1 -1</clus>
<clus scale="  117.652">  1  5  2 -1</clus>
<clus scale="   31.248">  1  5  2 -1</clus>
</clustering>
</event>
<event>
 9    1  0.6296820E-005  0.1315990E+03  0.7546771E-02  0.1226917E+00
          1   -1    0    0  502    0 -0.00000000000E+00  0.00000000000E+00  0.13336556534E+03  0.13336556534E+03  0.00000000000E+00 0. -1.
         21   -1    0    0  501  502  0.00000000000E+00 -0.00000000000E+00 -0.17987790693E+03  0.17987790693E+03  0.00000000000E+00 0. -1.
         23    2    1    2    0    0  0.54469010048E+00 -0.81882544773E+02  0.79145017463E+01  0.12189677658E+03  0.89950747506E+02 0.  0.
        -24    2    1    2    0    0  0.65412104673E+00  0.11962844327E+03 -0.38979173906E+02  0.15054448384E+03  0.82661195865E+02 0.  0.
         11    1    4    4    0    0 -0.31218920915E+02  0.10347412366E+03 -0.38729094189E+02  0.11481053100E+03  0.00000000000E+00 0. -1.
        -12    1    4    4    0    0  0.31873041961E+02  0.16154319610E+02 -0.25007971666E+00  0.35733952843E+02  0.00000000000E+00 0.  1.
        -11    1    3    3    0    0 -0.36000535261E+02 -0.69841050887E+02  0.20867072644E+02  0.81297267167E+02  0.00000000000E+00 0.  1.
         11    1    3    3    0    0  0.36545225361E+02 -0.12041493886E+02 -0.12952570898E+02  0.40599509413E+02  0.00000000000E+00 0. -1.
          2    1    1    2  501    0 -0.11988111472E+01 -0.37745898500E+02 -0.15447669427E+02  0.40802211857E+02  0.00000000000E+00 0. -1.
<scales pt_clust_5="13000.00000" pt_clust_6="13000.00000" pt_clust_7="13000.00000" pt_clust_8="13000.00000" pt_clust_9="37.76493"></scales>
<clustering>
<clus scale="   37.765">  2  9  1 -1</clus>
<clus scale="   82.661">  5  6 -1 -1</clus>
<clus scale="   89.951">  7  8 -1 -1</clus>
<clus scale="  126.728">  2  5  1 -1</clus>
<clus scale="   37.765">  2  5  1 -1</clus>
</clustering>
</event>
<event>
 9    1  0.6296820E-005  0.1023061E+03  0.7546771E-02  0.1279910E+00
          3   -1    0    0  502    0 -0.00000000000E+00  0.00000000000E+00  0.50958552035E+02  0.50958552035E+02  0.00000000000E+00 0. -1.
         21   -1    0    0  501  502  0.00000000000E+00 -0.00000000000E+00 -0.55336789274E+03  0.55336789274E+03  0.00000000000E+00 0.  1.
         23    2    1    2    0    0  0.43404623602E+02 -0.32742847077E+02 -0.32564349867E+02  0.10948216583E+03  0.89274029634E+02 0.  0.
        -24    2    1    2    0    0  0.79161910626E+01  0.56280143734E+02 -0.27107409187E+03  0.28821005955E+03  0.79710441480E+02 0.  0.
         13    1    4    4    0    0  0.32453462815E+02 -0.39192496882E+01 -0.82193783847E+02  0.88455671779E+02  0.00000000000E+00 0. -1.
        -14    1    4    4    0    0 -0.24537271752E+02  0.60199393423E+02 -0.18888030802E+03  0.19975438777E+03  0.00000000000E+00 0.  1.
        -11    1    3    3    0    0 -0.13882445564E+02  0.20620048667E+02 -0.45227694183E+00  0.24861883604E+02  0.00000000000E+00 0.  1.
         11    1    3    3    0    0  0.57287069166E+02 -0.53362895744E+02 -0.32112072926E+02  0.84620282223E+02  0.00000000000E+00 0. -1.
          4    1    1    2  501    0 -0.51320814664E+02 -0.23537296657E+02 -0.19877089897E+03  0.20663421940E+03  0.00000000000E+00 0. -1.
<scales pt_clust_5="13000.00000" pt_clust_6="13000.00000" pt_clust_7="13000.00000" pt_clust_8="13000.00000" pt_clust_9="56.46087"></scales>
<clustering>
<clus scale="   56.461">  2  9  1 -1</clus>
<clus scale="   79.710">  5  6 -1 -1</clus>
<clus scale="   89.274">  7  8 -1 -1</clus>
<clus scale="   94.077">  2  5  1 -1</clus>
<clus scale="   56.461">  2  5  1 -1</clus>
</clustering>
</event>
<event>
 9    1  0.6296820E-005  0.9042471E+02  0.7546771E-02  0.1307284E+00
          3   -1    0    0  502    0 -0.00000000000E+00  0.00000000000E+00  0.53228664170E+02  0.53228664170E+02  0.00000000000E+00 0. -1.
         21   -1    0    0  501  502  0.00000000000E+00 -0.00000000000E+00 -0.29675364474E+03  0.29675364474E+03  0.00000000000E+00 0. -1.
         23    2    1    2    0    0 -0.32821035173E+01 -0.18391229766E+02 -0.42796035850E+02  0.10064797017E+03  0.89159989232E+02 0.  0.
        -24    2    1    2    0    0  0.30467392808E+02 -0.19116600849E+02 -0.76260647535E+02  0.11652532430E+03  0.80428591858E+02 0.  0.
         13    1    4    4    0    0  0.67968002609E+01 -0.43523838898E+02 -0.68834912028E+02  0.81723718467E+02  0.00000000000E+00 0. -1.
        -14    1    4    4    0    0  0.23670592547E+02  0.24407238049E+02 -0.74257355071E+01  0.34801605833E+02  0.00000000000E+00 0.  1.
        -11    1    3    3    0    0  0.23507731094E+02 -0.20904657645E+02  0.16507021144E+02  0.35526045087E+02  0.00000000000E+00 0.  1.
         11    1    3    3    0    0 -0.26789834611E+02  0.25134278798E+01 -0.59303056994E+02  0.65121925087E+02  0.00000000000E+00 0. -1.
          4    1    1    2  501    0 -0.27185289290E+02  0.37507830614E+02 -0.12446829718E+03  0.13280901443E+03  0.00000000000E+00 0. -1.
<scales pt_clust_5="13000.00000" pt_clust_6="13000.00000" pt_clust_7="13000.00000" pt_clust_8="13000.00000" pt_clust_9="46.32362"></scales>
<clustering>
<clus scale="   46.324">  2  9  1 -1</clus>
<clus scale="   80.429">  5  6 -1 -1</clus>
<clus scale="   81.828">  2  5  1 -1</clus>
<clus scale="   89.160">  7  8 -1 -1</clus>
<clus scale="   46.324">  2  5  1 -1</clus>
</clustering>
</event>
<event>
 9    1  0.6334654E-005  0.1400243E+03  0.7546771E-02  0.1227069E+00
         21   -1    0    0  501  502  0.00000000000E+00  0.00000000000E+00  0.14388810659E+03  0.14388810659E+03  0.00000000000E+00 0. -1.
          1   -1    0    0  502    0 -0.00000000000E+00 -0.00000000000E+00 -0.40781201118E+03  0.40781201118E+03  0.00000000000E+00 0. -1.
         23    2    1    2    0    0  0.43711258214E+02  0.28257444750E+02 -0.22123532764E+03  0.24483217626E+03  0.91041567765E+02 0.  0.
        -24    2    1    2    0    0 -0.14747087689E+00  0.87375125491E+02 -0.11398602111E+03  0.16420743397E+03  0.79604233924E+02 0.  0.
         11    1    4    4    0    0  0.56397625545E+01  0.99587689430E+02 -0.11289672532E+03  0.15064921306E+03  0.00000000000E+00 0. -1.
        -12    1    4    4    0    0 -0.57872334314E+01 -0.12212563940E+02 -0.10892957900E+01  0.13558220904E+02  0.00000000000E+00 0.  1.
        -13    1    3    3    0    0 -0.36118624466E+01  0.30610834774E+02 -0.17056431247E+02  0.35227696529E+02  0.00000000000E+00 0.  1.
         13    1    3    3    0    0  0.47323120661E+02 -0.23533900237E+01 -0.20417889639E+03  0.20960447973E+03  0.00000000000E+00 0. -1.
          2    1    1    2  501    0 -0.43563787337E+02 -0.11563257024E+03  0.71297444164E+02  0.14266050754E+03  0.00000000000E+00 0. -1.
<scales pt_clust_5="13000.00000" pt_clust_6="13000.00000" pt_clust_7="13000.00000" pt_clust_8="13000.00000" pt_clust_9="115.19534"></scales>
<clustering>
<clus scale="   79.604">  5  6 -1 -1</clus>
<clus scale="   91.042">  7  8 -1 -1</clus>
<clus scale="  104.870">  2  7  1 -1</clus>
<clus scale="  115.195">  1  9  2 -1</clus>
<clus scale="  115.195">  1  5  2 -1</clus>
</clustering>
</event>
<event>
 9    1  0.6296820E-005  0.1071479E+03  0.7546771E-02  0.1269806E+00
         21   -1    0    0  501  502  0.00000000000E+00  0.00000000000E+00  0.98645742306E+02  0.98645742306E+02  0.00000000000E+00 0.  1.
          1   -1    0    0  502    0 -0.00000000000E+00 -0.00000000000E+00 -0.22667415967E+03  0.22667415967E+03  0.00000000000E+00 0. -1.
         23    2    1    2    0    0 -0.21781292326E+02  0.54769001297E+02 -0.99688956032E+02  0.14730839243E+03  0.91037389717E+02 0.  0.
        -24    2    1    2    0    0 -0.26970721114E+02 -0.58710310190E+02 -0.59498851522E+02  0.12001840369E+03  0.81792319757E+02 0.  0.
         11    1    4    4    0    0 -0.52750547032E+02 -0.44693722865E+02 -0.58647046844E+02  0.90662148548E+02  0.00000000000E+00 0. -1.
        -12    1    4    4    0    0  0.25779825918E+02 -0.14016587325E+02 -0.85180467717E+00  0.29356255139E+02  0.00000000000E+00 0.  1.
        -13    1    3    3    0    0  0.28135639935E+02  0.32992496486E+02 -0.76879919616E+02  0.88264608417E+02  0.00000000000E+00 0. -1.
         13    1    3    3    0    0 -0.49916932260E+02  0.21776504811E+02 -0.22809036416E+02  0.59043784010E+02  0.00000000000E+00 0.  1.
          2    1    1    2  501    0  0.48752013439E+02  0.39413088926E+01  0.31159390191E+02  0.57993105860E+02  0.00000000000E+00 0. -1.
<scales pt_clust_5="13000.00000" pt_clust_6="13000.00000" pt_clust_7="13000.00000" pt_clust_8="13000.00000" pt_clust_9="48.91107"></scales>
<clustering>
<clus scale="   48.911">  1  9  2 -1</clus>
<clus scale="   81.792">  5  6 -1 -1</clus>
<clus scale="   91.037">  7  8 -1 -1</clus>
<clus scale="   99.413">  1  5  2 -1</clus>
<clus scale="   48.911">  1  5  2 -1</clus>
</clustering>
</event>
<event>
 9    1  0.6296820E-005  0.1280269E+03  0.7546771E-02  0.1230515E+00
         21   -1    0    0  501  502  0.00000000000E+00  0.00000000000E+00  0.50033015679E+03  0.50033015679E+03  0.00000000000E+00 0. -1.
          1   -1    0    0  502    0 -0.00000000000E+00 -0.00000000000E+00 -0.45347507805E+02  0.45347507805E+02  0.00000000000E+00 0. -1.
        -24    2    1    2    0    0 -0.30006212908E+02 -0.94779947077E+02  0.13908973350E+03  0.19421546473E+03  0.92141638775E+02 0.  0.
         23    2    1    2    0    0  0.28122201659E+01  0.74505609144E+02  0.22500644559E+03  0.25445234247E+03  0.92515402271E+02 0.  0.
         13    1    3    3    0    0  0.17536687970E+02 -0.40699408574E+02  0.85518427119E+01  0.45134369354E+02  0.00000000000E+00 0. -1.
        -14    1    3    3    0    0 -0.47542900878E+02 -0.54080538503E+02  0.13053789079E+03  0.14908109538E+03  0.00000000000E+00 0.  1.
        -11    1    4    4    0    0  0.25758099322E+02 -0.12431199969E+02  0.62397545801E+02  0.68640135018E+02  0.00000000000E+00 0.  1.
         11    1    4    4    0    0 -0.22945879156E+02  0.86936809112E+02  0.16260889979E+03  0.18581220745E+03  0.00000000000E+00 0. -1.
          2    1    1    2  501    0  0.27193992742E+02  0.20274337933E+02  0.90886469899E+02  0.97009857389E+02  0.00000000000E+00 0. -1.
<scales pt_clust_5="13000.00000" pt_clust_6="13000.00000" pt_clust_7="13000.00000" pt_clust_8="13000.00000" pt_clust_9="33.91994"></scales>
<clustering>
<clus scale="   33.920">  1  9  2 -1</clus>
<clus scale="   92.142">  5  6 -1 -1</clus>
<clus scale="   92.515">  7  8 -1 -1</clus>
<clus scale="  127.757">  2  5  1 -1</clus>
<clus scale="   33.920">  1  5  2 -1</clus>
</clustering>
</event>
<event>
 9    1  0.6296820E-005  0.9487285E+02  0.7546771E-02  0.1295516E+00
         21   -1    0    0  501  502  0.00000000000E+00  0.00000000000E+00  0.88299748797E+02  0.88299748797E+02  0.00000000000E+00 0. -1.
          1   -1    0    0  502    0 -0.00000000000E+00 -0.00000000000E+00 -0.30389434723E+03  0.30389434723E+03  0.00000000000E+00 0. -1.
        -24    2    1    2    0    0 -0.35844115586E+02  0.36487248989E+02 -0.15805519165E+03  0.18608103014E+03  0.83836663879E+02 0.  0.
         23    2    1    2    0    0 -0.38147353746E+01  0.18768605473E+01 -0.10087199382E+03  0.13595365840E+03  0.91050333795E+02 0.  0.
         13    1    3    3    0    0 -0.39840431539E+02  0.59783627792E+02 -0.97766993954E+02  0.12132488304E+03  0.00000000000E+00 0. -1.
        -14    1    3    3    0    0  0.39963159532E+01 -0.23296378802E+02 -0.60288197697E+02  0.64756147107E+02  0.00000000000E+00 0.  1.
        -13    1    4    4    0    0 -0.86558309299E+01 -0.41026154323E+02 -0.25451708832E+02  0.49049548725E+02  0.00000000000E+00 0. -1.
         13    1    4    4    0    0  0.48410955553E+01  0.42903014871E+02 -0.75420284984E+02  0.86904109674E+02  0.00000000000E+00 0.  1.
          2    1    1    2  501    0  0.39658850960E+02 -0.38364109536E+02  0.43332587031E+02  0.70159407486E+02  0.00000000000E+00 0. -1.
<scales pt_clust_5="13000.00000" pt_clust_6="13000.00000" pt_clust_7="13000.00000" pt_clust_8="13000.00000" pt_clust_9="55.17816"></scales>
<clustering>
<clus scale="   55.178">  1  9  2 -1</clus>
<clus scale="   83.837">  5  6 -1 -1</clus>
<clus scale="   87.973">  2  5  1 -1</clus>
<clus scale="   91.050">  7  8 -1 -1</clus>
<clus scale="   55.178">  1  5  2 -1</clus>
</clustering>
</event>
<event>
 9    1  0.6296820E-005  0.2946582E+03  0.7546771E-02  0.1087942E+00
         -2   -1    0    0    0  501 -0.00000000000E+00  0.00000000000E+00  0.12261449521E+03  0.12261449521E+03  0.00000000000E+00 0.  1.
         21   -1    0    0  501  502  0.00000000000E+00 -0.00000000000E+00 -0.62010323409E+03  0.62010323409E+03  0.00000000000E+00 0.  1.
        -24    2    1    2    0    0 -0.97972221866E+02 -0.25085207604E+02 -0.11056380849E+03  0.17013260074E+03  0.80578670804E+02 0.  0.
         23    2    1    2    0    0 -0.12970343734E+03  0.82220611165E+01 -0.49529824140E+02  0.16520811740E+03  0.89162405922E+02 0.  0.
         11    1    3    3    0    0 -0.53886904023E+01  0.23944686889E+02 -0.21167347580E+02  0.32410532517E+02  0.00000000000E+00 0. -1.
        -12    1    3    3    0    0 -0.92583531463E+02 -0.49029894493E+02 -0.89396460908E+02  0.13772206822E+03  0.00000000000E+00 0.  1.
        -11    1    4    4    0    0 -0.60549460190E+02  0.26161117780E+01  0.23012964442E+02  0.64828062616E+02  0.00000000000E+00 0.  1.
         11    1    4    4    0    0 -0.69153977146E+02  0.56059493385E+01 -0.72542788583E+02  0.10038005478E+03  0.00000000000E+00 0. -1.
         -1    1    1    2    0  502  0.22767565920E+03  0.16863146488E+02 -0.33739510625E+03  0.40737701116E+03  0.00000000000E+00 0.  1.
<scales pt_clust_5="13000.00000" pt_clust_6="13000.00000" pt_clust_7="13000.00000" pt_clust_8="13000.00000" pt_clust_9="228.29930"></scales>
<clustering>
<clus scale="   80.579">  5  6 -1 -1</clus>
<clus scale="   89.162">  7  8 -1 -1</clus>
<clus scale="  110.217">  5  7 -1 -1</clus>
<clus scale="  228.299">  2  9  1 -1</clus>
<clus scale="  228.299">  2  5  1 -1</clus>
</clustering>
</event>
<event>
 9    1  0.6296820E-005  0.1399421E+03  0.7546771E-02  0.1214301E+00
         21   -1    0    0  501  502  0.00000000000E+00  0.00000000000E+00  0.85957492306E+03  0.85957492306E+03  0.00000000000E+00 0.  1.
         -4   -1    0    0    0  501 -0.00000000000E+00 -0.00000000000E+00 -0.65694362091E+02  0.65694362091E+02  0.00000000000E+00 0.  1.
        -24    2    1    2    0    0 -0.92373855481E+02 -0.10542505412E+03  0.79042510112E+02  0.18000817147E+03  0.80671259941E+02 0.  0.
         23    2    1    2    0    0  0.58269608523E+02  0.12620286514E+02  0.26387909735E+03  0.28359044935E+03  0.85069066273E+02 0.  0.
         13    1    3    3    0    0 -0.38874865173E+02 -0.90526110441E+02  0.23122571715E+02  0.10119725854E+03  0.00000000000E+00 0. -1.
        -14    1    3    3    0    0 -0.53498990308E+02 -0.14898943675E+02  0.55919938397E+02  0.78810912931E+02  0.00000000000E+00 0.  1.
        -13    1    4    4    0    0  0.63389078816E+02 -0.22010461662E+02  0.14719979078E+03  0.16177272372E+03  0.00000000000E+00 0.  1.
         13    1    4    4    0    0 -0.51194702938E+01  0.34630748176E+02  0.11667930657E+03  0.12181772563E+03  0.00000000000E+00 0. -1.
         -3    1    1    2    0  502  0.34104246959E+02  0.92804767602E+02  0.45095895350E+03  0.46167066432E+03  0.00000000000E+00 0.  1.
<scales pt_clust_5="13000.00000" pt_clust_6="13000.00000" pt_clust_7="13000.00000" pt_clust_8="13000.00000" pt_clust_9="98.87277"></scales>
<clustering>
<clus scale="   80.671">  5  6 -1 -1</clus>
<clus scale="   85.069">  7  8 -1 -1</clus>
<clus scale="   98.873">  1  9  2 -1</clus>
<clus scale="  137.313">  2  5  1 -1</clus>
<clus scale="   98.873">  1  5  2 -1</clus>
</clustering>
</event>
<event>
 9    1  0.6296820E-005  0.2657475E+03  0.7546771E-02  0.1105643E+00
          1   -1    0    0  502    0 -0.00000000000E+00  0.00000000000E+00  0.27568286129E+03  0.27568286129E+03  0.00000000000E+00 0. -1.
         21   -1    0    0  501  502  0.00000000000E+00 -0.00000000000E+00 -0.14012454879E+04  0.14012454879E+04  0.00000000000E+00 0.  1.
         23    2    1    2    0    0  0.22894616459E+03  0.28750597472E+02  0.16000755935E+03  0.30354772791E+03  0.11530767944E+03 0.  0.
        -24    2    1    2    0    0 -0.31925321223E+03 -0.72874517773E+02 -0.67609011676E+03  0.75566852171E+03  0.81876491494E+02 0.  0.
         11    1    4    4    0    0 -0.30476010547E+02  0.16650084927E+02 -0.58119647658E+02  0.67704549263E+02  0.00000000000E+00 0. -1.
        -12    1    4    4    0    0 -0.28877720168E+03 -0.89524602700E+02 -0.61797046910E+03  0.68796397244E+03  0.00000000000E+00 0.  1.
        -11    1    3    3    0    0  0.40911674640E+02 -0.22985487230E+02 -0.61668598850E+01  0.47329989498E+02  0.00000000000E+00 0.  1.
         11    1    3    3    0    0  0.18803448995E+03  0.51736084702E+02  0.16617441924E+03  0.25621773842E+03  0.00000000000E+00 0. -1.
          2    1    1    2  501    0  0.90307047643E+02  0.44123920301E+02 -0.60948006917E+03  0.61771209953E+03  0.00000000000E+00 0. -1.
<scales pt_clust_5="13000.00000" pt_clust_6="13000.00000" pt_clust_7="13000.00000" pt_clust_8="13000.00000" pt_clust_9="100.51011"></scales>
<clustering>
<clus scale="   81.876">  5  6 -1 -1</clus>
<clus scale="  100.510">  2  9  1 -1</clus>
<clus scale="  115.308">  7  8 -1 -1</clus>
<clus scale="  253.041">  2  5  1 -1</clus>
<clus scale="  100.510">  2  5  1 -1</clus>
</clustering>
</event>
<event>
 9    1  0.6296820E-005  0.9653772E+02  0.7546771E-02  0.1294746E+00
         21   -1    0    0  501  502  0.00000000000E+00  0.00000000000E+00  0.80468708770E+02  0.80468708770E+02  0.00000000000E+00 0. -1.
          1   -1    0    0  502    0 -0.00000000000E+00 -0.00000000000E+00 -0.23133270985E+03  0.23133270985E+03  0.00000000000E+00 0. -1.
         23    2    1    2    0    0  0.30258036669E+02  0.28529558310E+02 -0.11888249011E+03  0.15672853503E+03  0.93280773785E+02 0.  0.
        -24    2    1    2    0    0  0.19079436493E+02  0.37005232905E+01  0.83087880281E+01  0.83684701014E+02  0.80971442224E+02 0.  0.
         13    1    4    4    0    0  0.30914009539E+02 -0.26765800561E+01 -0.29954196684E+02  0.43128806679E+02  0.00000000000E+00 0. -1.
        -14    1    4    4    0    0 -0.11834573046E+02  0.63771033466E+01  0.38262984712E+02  0.40555894335E+02  0.00000000000E+00 0.  1.
        -13    1    3    3    0    0 -0.16405339303E+02 -0.12854291093E+02  0.17616212362E+01  0.20915813791E+02  0.00000000000E+00 0.  1.
         13    1    3    3    0    0  0.46663375972E+02  0.41383849403E+02 -0.12064411134E+03  0.13581272124E+03  0.00000000000E+00 0. -1.
          2    1    1    2  501    0 -0.49337473162E+02 -0.32230081600E+02 -0.40290299003E+02  0.71388182578E+02  0.00000000000E+00 0. -1.
<scales pt_clust_5="13000.00000" pt_clust_6="13000.00000" pt_clust_7="13000.00000" pt_clust_8="13000.00000" pt_clust_9="58.93189"></scales>
<clustering>
<clus scale="   58.932">  1  9  2 -1</clus>
<clus scale="   80.971">  5  6 -1 -1</clus>
<clus scale="   84.703">  1  5  2 -1</clus>
<clus scale="   93.281">  7  8 -1 -1</clus>
<clus scale="   58.932">  1  5  2 -1</clus>
</clustering>
</event>
<event>
 9    1  0.6296820E-005  0.1072441E+03  0.7546771E-02  0.1268597E+00
          1   -1    0    0  502    0 -0.00000000000E+00  0.00000000000E+00  0.37068287531E+03  0.37068287531E+03  0.00000000000E+00 0. -1.
         21   -1    0    0  501  502  0.00000000000E+00 -0.00000000000E+00 -0.11458161657E+03  0.11458161657E+03  0.00000000000E+00 0.  1.
         23    2    1    2    0    0  0.10882716732E+02 -0.53343828312E+02  0.29543726547E+03  0.31356148529E+03  0.89853378825E+02 0.  0.
        -24    2    1    2    0    0 -0.11476055288E+01  0.87985435747E+02 -0.35420716506E+01  0.12094850784E+03  0.82905014173E+02 0.  0.
         13    1    4    4    0    0 -0.24385567713E+02  0.43540446687E+02  0.32174648648E+02  0.59377053026E+02  0.00000000000E+00 0. -1.
        -14    1    4    4    0    0  0.23237962184E+02  0.44444989060E+02 -0.35716720299E+02  0.61571454814E+02  0.00000000000E+00 0.  1.
        -11    1    3    3    0    0  0.49477382262E+02 -0.21098638276E+02  0.13123784282E+03  0.14183277224E+03  0.00000000000E+00 0. -1.
         11    1    3    3    0    0 -0.38594665530E+02 -0.32245190037E+02  0.16419942265E+03  0.17172871305E+03  0.00000000000E+00 0.  1.
          2    1    1    2  501    0 -0.97351112037E+01 -0.34641607434E+02 -0.35793935079E+02  0.50754498759E+02  0.00000000000E+00 0. -1.
<scales pt_clust_5="13000.00000" pt_clust_6="13000.00000" pt_clust_7="13000.00000" pt_clust_8="13000.00000" pt_clust_9="35.98352"></scales>
<clustering>
<clus scale="   35.984">  2  9  1 -1</clus>
<clus scale="   82.905">  5  6 -1 -1</clus>
<clus scale="   89.853">  7  8 -1 -1</clus>
<clus scale="  101.493">  2  5  1 -1</clus>
<clus scale="   35.984">  2  5  1 -1</clus>
</clustering>
</event>
<event>
 9    1  0.6296820E-005  0.3191470E+03  0.7546771E-02  0.1076043E+00
         -2   -1    0    0    0  501 -0.00000000000E+00  0.00000000000E+00  0.39132597037E+03  0.39132597037E+03  0.00000000000E+00 0.  1.
         21   -1    0    0  501  502  0.00000000000E+00 -0.00000000000E+00 -0.48981614971E+03  0.48981614971E+03  0.00000000000E+00 0. -1.
        -24    2    1    2    0    0  0.16727045764E+02 -0.11008801462E+03 -0.12852316936E+03  0.18803814107E+03  0.80255669038E+02 0.  0.
         23    2    1    2    0    0 -0.22649692516E+02 -0.15150941241E+03 -0.25185249565E+03  0.30849025253E+03  0.90930994282E+02 0.  0.
         13    1    3    3    0    0 -0.22960926963E+02 -0.70431218210E+01 -0.39367632916E+02  0.46115293053E+02  0.00000000000E+00 0. -1.
        -14    1    3    3    0    0  0.39687972727E+02 -0.10304489280E+03 -0.89155536439E+02  0.14192284802E+03  0.00000000000E+00 0.  1.
        -13    1    4    4    0    0 -0.32047066166E+02 -0.48501931087E+02 -0.15972665735E+03  0.16997663615E+03  0.00000000000E+00 0.  1.
         13    1    4    4    0    0  0.93973736496E+01 -0.10300748132E+03 -0.92125838298E+02  0.13851361638E+03  0.00000000000E+00 0. -1.
         -1    1    1    2    0  502  0.59226467528E+01  0.26159742703E+03  0.28188548566E+03  0.38461372648E+03  0.00000000000E+00 0.  1.
<scales pt_clust_5="13000.00000" pt_clust_6="13000.00000" pt_clust_7="13000.00000" pt_clust_8="13000.00000" pt_clust_9="261.66459"></scales>
<clustering>
<clus scale="   80.256">  5  6 -1 -1</clus>
<clus scale="   90.931">  7  8 -1 -1</clus>
<clus scale="  102.186">  5  7 -1 -1</clus>
<clus scale="  261.665">  2  9  1 -1</clus>
<clus scale="  261.665">  2  5  1 -1</clus>
</clustering>
</event>
<event>
 9    1  0.6296820E-005  0.1125043E+03  0.7546771E-02  0.1259229E+00
         21   -1    0    0  501  502  0.00000000000E+00  0.00000000000E+00  0.45156733113E+02  0.45156733113E+02  0.00000000000E+00 0. -1.
          1   -1    0    0  502    0 -0.00000000000E+00 -0.00000000000E+00 -0.40351111457E+03  0.40351111457E+03  0.00000000000E+00 0. -1.
         23    2    1    2    0    0 -0.57126221559E+02 -0.15142141753E+02 -0.23445337016E+03  0.25806345589E+03  0.90197975810E+02 0.  0.
        -24    2    1    2    0    0  0.82423792963E+02  0.23276850563E+02 -0.10415663188E+03  0.15749878615E+03  0.81374260405E+02 0.  0.
         13    1    4    4    0    0  0.86174979489E+02  0.24486679541E+00 -0.10277471975E+03  0.13412244431E+03  0.00000000000E+00 0. -1.
        -14    1    4    4    0    0 -0.37511865257E+01  0.23031983768E+02 -0.13819121335E+01  0.23376341839E+02  0.00000000000E+00 0.  1.
        -11    1    3    3    0    0 -0.13267523480E+02  0.36965311691E+02 -0.97386724092E+02  0.10500778770E+03  0.00000000000E+00 0.  1.
         11    1    3    3    0    0 -0.43858698079E+02 -0.52107453445E+02 -0.13706664606E+03  0.15305566819E+03  0.00000000000E+00 0. -1.
          2    1    1    2  501    0 -0.25297571404E+02 -0.81347088098E+01 -0.19744379422E+02  0.33105605645E+02  0.00000000000E+00 0. -1.
<scales pt_clust_5="13000.00000" pt_clust_6="13000.00000" pt_clust_7="13000.00000" pt_clust_8="13000.00000" pt_clust_9="26.57331"></scales>
<clustering>
<clus scale="   26.573">  1  9  2 -1</clus>
<clus scale="   81.374">  5  6 -1 -1</clus>
<clus scale="   90.198">  7  8 -1 -1</clus>
<clus scale="  105.562">  1  5  2 -1</clus>
<clus scale="   26.573">  1  5  2 -1</clus>
</clustering>
</event>
<event>
 9    1  0.6296820E-005  0.1011898E+03  0.7546771E-02  0.1283424E+00
          1   -1    0    0  502    0 -0.00000000000E+00  0.00000000000E+00  0.37890152680E+03  0.37890152680E+03  0.00000000000E+00 0. -1.
         21   -1    0    0  501  502  0.00000000000E+00 -0.00000000000E+00 -0.32639262263E+02  0.32639262263E+02  0.00000000000E+00 0.  1.
         23    2    1    2    0    0  0.11035290631E+02 -0.41045630767E+02  0.18577192975E+03  0.21100471869E+03  0.90582890101E+02 0.  0.
        -24    2    1    2    0    0  0.12048857975E+02  0.50443895361E+02  0.11677729300E+03  0.15021673695E+03  0.78983354848E+02 0.  0.
         13    1    4    4    0    0  0.12891244092E+02  0.59243532575E+02  0.12450022578E+03  0.13847846961E+03  0.00000000000E+00 0. -1.
        -14    1    4    4    0    0 -0.84238611676E+00 -0.87996372139E+01 -0.77229327815E+01  0.11738267343E+02  0.00000000000E+00 0.  1.
        -13    1    3    3    0    0  0.47248458610E+02 -0.38231264930E+02  0.90227532156E+02  0.10878903446E+03  0.00000000000E+00 0. -1.
         13    1    3    3    0    0 -0.36213167979E+02 -0.28143658373E+01  0.95544397599E+02  0.10221568423E+03  0.00000000000E+00 0.  1.
          2    1    1    2  501    0 -0.23084148605E+02 -0.93982645940E+01  0.43713041784E+02  0.50319333424E+02  0.00000000000E+00 0. -1.
<scales pt_clust_5="13000.00000" pt_clust_6="13000.00000" pt_clust_7="13000.00000" pt_clust_8="13000.00000" pt_clust_9="24.92400"></scales>
<clustering>
<clus scale="   24.924">  2  9  1 -1</clus>
<clus scale="   78.983">  5  6 -1 -1</clus>
<clus scale="   90.583">  7  8 -1 -1</clus>
<clus scale="   90.953">  2  5  1 -1</clus>
<clus scale="   24.924">  2  5  1 -1</clus>
</clustering>
</event>
<event>
 9    1  0.6296820E-005  0.9426958E+02  0.7546771E-02  0.1296969E+00
         21   -1    0    0  501  502  0.00000000000E+00  0.00000000000E+00  0.40863275465E+03  0.40863275465E+03  0.00000000000E+00 0.  1.
          1   -1    0    0  502    0 -0.00000000000E+00 -0.00000000000E+00 -0.27290274095E+03  0.27290274095E+03  0.00000000000E+00 0. -1.
         23    2    1    2    0    0 -0.27116023934E+02 -0.57591539913E+01 -0.24965295196E+03  0.26677794465E+03  0.89863389218E+02 0.  0.
        -24    2    1    2    0    0  0.53416636792E+02 -0.27867617731E+02  0.20073695267E+03  0.22524071232E+03  0.82511290826E+02 0.  0.
         13    1    4    4    0    0  0.28741316580E+02 -0.26478159355E+02  0.22085580459E+02  0.44887961257E+02  0.00000000000E+00 0. -1.
        -14    1    4    4    0    0  0.24675320212E+02 -0.13894583757E+01  0.17865137221E+03  0.18035275106E+03  0.00000000000E+00 0.  1.
        -11    1    3    3    0    0 -0.45443561835E+02  0.14184233516E+02 -0.22555462592E+03  0.23052374946E+03  0.00000000000E+00 0. -1.
         11    1    3    3    0    0  0.18327537901E+02 -0.19943387508E+02 -0.24098326036E+02  0.36254195185E+02  0.00000000000E+00 0.  1.
          2    1    1    2  501    0 -0.26300612858E+02  0.33626771722E+02  0.18464601299E+03  0.18951683863E+03  0.00000000000E+00 0. -1.
<scales pt_clust_5="13000.00000" pt_clust_6="13000.00000" pt_clust_7="13000.00000" pt_clust_8="13000.00000" pt_clust_9="42.69054"></scales>
<clustering>
<clus scale="   42.691">  1  9  2 -1</clus>
<clus scale="   82.511">  5  6 -1 -1</clus>
<clus scale="   87.289">  1  5  2 -1</clus>
<clus scale="   89.863">  7  8 -1 -1</clus>
<clus scale="   42.691">  1  5  2 -1</clus>
</clustering>
</event>
<event>
 9    1  0.6296820E-005  0.9919242E+02  0.7546771E-02  0.1289465E+00
          1   -1    0    0  502    0 -0.00000000000E+00  0.00000000000E+00  0.52025019414E+03  0.52025019414E+03  0.00000000000E+00 0. -1.
         21   -1    0    0  501  502  0.00000000000E+00 -0.00000000000E+00 -0.10257697153E+03  0.10257697153E+03  0.00000000000E+00 0. -1.
        -24    2    1    2    0    0  0.14551023562E+02  0.30342845789E+02  0.45955642049E+03  0.46749678249E+03  0.78922224015E+02 0.  0.
         23    2    1    2    0    0  0.25289215428E+01 -0.53537741548E+02 -0.35306863443E+01  0.10736536619E+03  0.92963277142E+02 0.  0.
         11    1    3    3    0    0 -0.23148141189E+02  0.19519053585E+02  0.74067721417E+02  0.80017855816E+02  0.00000000000E+00 0. -1.
        -12    1    3    3    0    0  0.37699164751E+02  0.10823792204E+02  0.38548869908E+03  0.38747892667E+03  0.00000000000E+00 0.  1.
        -11    1    4    4    0    0 -0.31629132085E+02 -0.17568256701E+02  0.30408065436E+02  0.47261994070E+02  0.00000000000E+00 0. -1.
         11    1    4    4    0    0  0.34158053627E+02 -0.35969484848E+02 -0.33938751780E+02  0.60103372120E+02  0.00000000000E+00 0.  1.
          2    1    1    2  501    0 -0.17079945105E+02  0.23194895759E+02 -0.38352511532E+02  0.47965016990E+02  0.00000000000E+00 0. -1.
<scales pt_clust_5="13000.00000" pt_clust_6="13000.00000" pt_clust_7="13000.00000" pt_clust_8="13000.00000" pt_clust_9="28.80499"></scales>
<clustering>
<clus scale="   28.805">  2  9  1 -1</clus>
<clus scale="   78.922">  5  6 -1 -1</clus>
<clus scale="   86.172">  1  5  2 -1</clus>
<clus scale="   92.963">  7  8 -1 -1</clus>
<clus scale="   28.805">  2  5  1 -1</clus>
</clustering>
</event>
<event>
 9    1  0.6296820E-005  0.1046038E+03  0.7546771E-02  0.1276554E+00
         21   -1    0    0  501  502  0.00000000000E+00  0.00000000000E+00  0.71738146267E+03  0.71738146267E+03  0.00000000000E+00 0. -1.
          3   -1    0    0  502    0 -0.00000000000E+00 -0.00000000000E+00 -0.62024650787E+02  0.62024650787E+02  0.00000000000E+00 0. -1.
         23    2    1    2    0    0  0.38776293242E+02 -0.17701741715E+02  0.18786050525E+02  0.10317042384E+03  0.92055787890E+02 0.  0.
        -24    2    1    2    0    0 -0.10279700350E+03 -0.39717891610E+02  0.30937694353E+03  0.33792893523E+03  0.79606138208E+02 0.  0.
         13    1    4    4    0    0 -0.11272274007E+03 -0.25709644406E+02  0.23911732512E+03  0.26560214065E+03  0.00000000000E+00 0. -1.
        -14    1    4    4    0    0  0.99257365744E+01 -0.14008247205E+02  0.70259618406E+02  0.72326794584E+02  0.00000000000E+00 0.  1.
        -13    1    3    3    0    0 -0.16637460116E+02 -0.36052443379E+02  0.20675312962E+02  0.44766642925E+02  0.00000000000E+00 0. -1.
         13    1    3    3    0    0  0.55413753358E+02  0.18350701663E+02 -0.18892624375E+01  0.58403780917E+02  0.00000000000E+00 0.  1.
          4    1    1    2  501    0  0.64020710256E+02  0.57419633326E+02  0.32719381783E+03  0.33830675438E+03  0.00000000000E+00 0. -1.
<scales pt_clust_5="13000.00000" pt_clust_6="13000.00000" pt_clust_7="13000.00000" pt_clust_8="13000.00000" pt_clust_9="85.99806"></scales>
<clustering>
<clus scale="   79.606">  5  6 -1 -1</clus>
<clus scale="   85.998">  1  9  2 -1</clus>
<clus scale="   92.056">  7  8 -1 -1</clus>
<clus scale="   93.834">  1  5  2 -1</clus>
<clus scale="   85.998">  1  5  2 -1</clus>
</clustering>
</event>
<event>
 9    1  0.6296820E-005  0.1994403E+03  0.7546771E-02  0.1151341E+00
         -4   -1    0    0    0  501 -0.00000000000E+00  0.00000000000E+00  0.48887114078E+03  0.48887114078E+03  0.00000000000E+00 0.  1.
         21   -1    0    0  501  502  0.00000000000E+00 -0.00000000000E+00 -0.17648423239E+03  0.17648423239E+03  0.00000000000E+00 0. -1.
        -24    2    1    2    0    0 -0.17712581863E+03 -0.18122238812E+02  0.36852096071E+03  0.41722022925E+03  0.81012653634E+02 0.  0.
         23    2    1    2    0    0  0.17108017759E+03 -0.26577294544E+02 -0.48547945972E+02  0.20239514975E+03  0.92909169812E+02 0.  0.
         11    1    3    3    0    0 -0.61103307314E+02 -0.13421074402E+02  0.56514336819E+02  0.84306640716E+02  0.00000000000E+00 0. -1.
        -12    1    3    3    0    0 -0.11602251131E+03 -0.47011644098E+01  0.31200662389E+03  0.33291358853E+03  0.00000000000E+00 0.  1.
        -13    1    4    4    0    0  0.12494739403E+03 -0.53307997437E+02 -0.58931227880E+02  0.14807593824E+03  0.00000000000E+00 0. -1.
         13    1    4    4    0    0  0.46132783558E+02  0.26730702893E+02  0.10383281909E+02  0.54319211511E+02  0.00000000000E+00 0.  1.
         -3    1    1    2    0  502  0.60456410424E+01  0.44699533355E+02 -0.75861063476E+01  0.45739994177E+02  0.00000000000E+00 0.  1.
<scales pt_clust_5="13000.00000" pt_clust_6="13000.00000" pt_clust_7="13000.00000" pt_clust_8="13000.00000" pt_clust_9="45.10652"></scales>
<clustering>
<clus scale="   45.107">  2  9  1 -1</clus>
<clus scale="   81.013">  5  6 -1 -1</clus>
<clus scale="   92.909">  7  8 -1 -1</clus>
<clus scale="  194.184">  1  5  2 -1</clus>
<clus scale="   45.107">  2  5  1 -1</clus>
</clustering>
</event>
<event>
 9    1  0.6296820E-005  0.1222675E+03  0.7546771E-02  0.1243246E+00
         -2   -1    0    0    0  501 -0.00000000000E+00  0.00000000000E+00  0.27965673726E+02  0.27965673726E+02  0.00000000000E+00 0.  1.
         21   -1    0    0  501  502  0.00000000000E+00 -0.00000000000E+00 -0.10311189534E+04  0.10311189534E+04  0.00000000000E+00 0.  1.
         23    2    1    2    0    0 -0.80102831232E+02 -0.79401744601E+02 -0.26848089298E+03  0.30562797223E+03  0.92765116788E+02 0.  0.
        -24    2    1    2    0    0  0.19850665918E+02  0.26620684780E+02 -0.40026802858E+03  0.40959267246E+03  0.80305372350E+02 0.  0.
         11    1    4    4    0    0  0.44818445936E+02 -0.64720541211E+01 -0.19644965869E+03  0.20160121274E+03  0.00000000000E+00 0. -1.
        -12    1    4    4    0    0 -0.24967780018E+02  0.33092738902E+02 -0.20381836990E+03  0.20799145971E+03  0.00000000000E+00 0.  1.
        -11    1    3    3    0    0 -0.29937339287E+02  0.18547428734E+02 -0.52355000109E+02  0.63097523189E+02  0.00000000000E+00 0. -1.
         11    1    3    3    0    0 -0.50165491945E+02 -0.97949173335E+02 -0.21612589288E+03  0.24253044904E+03  0.00000000000E+00 0.  1.
         -1    1    1    2    0  502  0.60252165314E+02  0.52781059820E+02 -0.33440435812E+03  0.34386398245E+03  0.00000000000E+00 0.  1.
<scales pt_clust_5="13000.00000" pt_clust_6="13000.00000" pt_clust_7="13000.00000" pt_clust_8="13000.00000" pt_clust_9="80.10096"></scales>
<clustering>
<clus scale="   80.101">  2  9  1 -1</clus>
<clus scale="   80.305">  5  6 -1 -1</clus>
<clus scale="   92.765">  7  8 -1 -1</clus>
<clus scale="  113.106">  2  5  1 -1</clus>
<clus scale="   80.101">  2  5  1 -1</clus>
</clustering>
</event>
<event>
 9    1  0.6296820E-005  0.2572948E+03  0.7546771E-02  0.1128687E+00
         21   -1    0    0  501  502  0.00000000000E+00  0.00000000000E+00  0.54880118647E+03  0.54880118647E+03  0.00000000000E+00 0. -1.
          1   -1    0    0  502    0 -0.00000000000E+00 -0.00000000000E+00 -0.21835587867E+03  0.21835587867E+03  0.00000000000E+00 0. -1.
         23    2    1    2    0    0 -0.11820445310E+03 -0.45574379414E+02  0.12554954205E+03  0.20040551799E+03  0.91380344386E+02 0.  0.
        -24    2    1    2    0    0  0.29459928155E+03  0.80225736112E+01  0.23431071934E+03  0.38402083513E+03  0.75613426286E+02 0.  0.
         13    1    4    4    0    0  0.17329769924E+03 -0.11618413351E+02  0.93941097694E+02  0.19746394589E+03  0.00000000000E+00 0. -1.
        -14    1    4    4    0    0  0.12130158232E+03  0.19640986963E+02  0.14036962165E+03  0.18655688924E+03  0.00000000000E+00 0.  1.
        -11    1    3    3    0    0 -0.13986215315E+01 -0.39190486153E+02  0.30623720149E+02  0.49756030618E+02  0.00000000000E+00 0.  1.
         11    1    3    3    0    0 -0.11680583157E+03 -0.63838932608E+01  0.94925821899E+02  0.15064948737E+03  0.00000000000E+00 0. -1.
          2    1    1    2  501    0 -0.17639482845E+03  0.37551805803E+02 -0.29414953591E+02  0.18273071203E+03  0.00000000000E+00 0. -1.
<scales pt_clust_5="13000.00000" pt_clust_6="13000.00000" pt_clust_7="13000.00000" pt_clust_8="13000.00000" pt_clust_9="245.93353"></scales>
<clustering>
<clus scale="   75.613">  5  6 -1 -1</clus>
<clus scale="   91.380">  7  8 -1 -1</clus>
<clus scale="  156.204">  2  7  1 -1</clus>
<clus scale="  245.934">  1  9  2 -1</clus>
<clus scale="  245.934">  1  5  2 -1</clus>
</clustering>
</event>
<event>
 9    1  0.6296820E-005  0.1640666E+03  0.7546771E-02  0.1185518E+00
         21   -1    0    0  501  502  0.00000000000E+00  0.00000000000E+00  0.10582875755E+03  0.10582875755E+03  0.00000000000E+00 0. -1.
          1   -1    0    0  502    0 -0.00000000000E+00 -0.00000000000E+00 -0.58558374219E+03  0.58558374219E+03  0.00000000000E+00 0. -1.
         23    2    1    2    0    0 -0.14744616070E+03 -0.74203741905E+02 -0.34661069475E+03  0.39452438126E+03  0.90906259837E+02 0.  0.
        -24    2    1    2    0    0  0.46519566830E+02  0.10697040334E+03 -0.12650389004E+03  0.19056819391E+03  0.81891788633E+02 0.  0.
         13    1    4    4    0    0 -0.16918833468E+02  0.45090759503E+02 -0.71694145072E+02  0.86368246225E+02  0.00000000000E+00 0. -1.
        -14    1    4    4    0    0  0.63438400297E+02  0.61879643839E+02 -0.54809744969E+02  0.10419994768E+03  0.00000000000E+00 0.  1.
        -13    1    3    3    0    0 -0.44337396510E+02  0.13509517753E+02 -0.48331842543E+02  0.66964757916E+02  0.00000000000E+00 0.  1.
         13    1    3    3    0    0 -0.10310876419E+03 -0.87713259657E+02 -0.29827885221E+03  0.32755962335E+03  0.00000000000E+00 0. -1.
          2    1    1    2  501    0  0.10092659387E+03 -0.32766661437E+02 -0.66403998514E+01  0.10631992457E+03  0.00000000000E+00 0. -1.
<scales pt_clust_5="13000.00000" pt_clust_6="13000.00000" pt_clust_7="13000.00000" pt_clust_8="13000.00000" pt_clust_9="106.11235"></scales>
<clustering>
<clus scale="   81.892">  5  6 -1 -1</clus>
<clus scale="   90.906">  7  8 -1 -1</clus>
<clus scale="  106.112">  1  9  2 -1</clus>
<clus scale="  159.249">  1  5  2 -1</clus>
<clus scale="  106.112">  1  5  2 -1</clus>
</clustering>
</event>
<event>
 9    1  0.6296820E-005  0.1071548E+03  0.7546771E-02  0.1270656E+00
         21   -1    0    0  501  502  0.00000000000E+00  0.00000000000E+00  0.11497235540E+03  0.11497235540E+03  0.00000000000E+00 0.  1.
         -2   -1    0    0    0  501 -0.00000000000E+00 -0.00000000000E+00 -0.58503397322E+03  0.58503397322E+03  0.00000000000E+00 0.  1.
        -24    2    1    2    0    0  0.15182287516E+02 -0.60881852229E+02 -0.47735988541E+03  0.48823893733E+03  0.81041334785E+02 0.  0.
         23    2    1    2    0    0 -0.45423184372E+02 -0.36351995606E+02 -0.56534344837E+01  0.10911906156E+03  0.92142688327E+02 0.  0.
         13    1    3    3    0    0 -0.16452209701E+02 -0.48371206757E+02 -0.13758627361E+03  0.14676658861E+03  0.00000000000E+00 0. -1.
        -14    1    3    3    0    0  0.31634497217E+02 -0.12510645472E+02 -0.33977361180E+03  0.34147234872E+03  0.00000000000E+00 0.  1.
        -13    1    4    4    0    0  0.97838758830E+01 -0.46044009414E+02 -0.20180928233E+02  0.51215670400E+02  0.00000000000E+00 0.  1.
         13    1    4    4    0    0 -0.55207060255E+02  0.96920138079E+01  0.14527493749E+02  0.57903391164E+02  0.00000000000E+00 0. -1.
         -1    1    1    2    0  502  0.30240896857E+02  0.97233847835E+02  0.12951702072E+02  0.10264832972E+03  0.00000000000E+00 0.  1.
<scales pt_clust_5="13000.00000" pt_clust_6="13000.00000" pt_clust_7="13000.00000" pt_clust_8="13000.00000" pt_clust_9="101.82796"></scales>
<clustering>
<clus scale="   81.041">  5  6 -1 -1</clus>
<clus scale="   92.143">  7  8 -1 -1</clus>
<clus scale="  101.828">  1  9  2 -1</clus>
<clus scale="   97.773">  2  5  1 -1</clus>
<clus scale="  101.828">  1  5  2 -1</clus>
</clustering>
</event>
<event>
 9    1  0.6296820E-005  0.2173955E+03  0.7546771E-02  0.1140814E+00
         21   -1    0    0  501  502  0.00000000000E+00  0.00000000000E+00  0.64151249029E+02  0.64151249029E+02  0.00000000000E+00 0. -1.
          1   -1    0    0  502    0 -0.00000000000E+00 -0.00000000000E+00 -0.17849950437E+04  0.17849950437E+04  0.00000000000E+00 0. -1.
         23    2    1    2    0    0  0.16021822421E+03 -0.58144049605E+02 -0.72295185398E+03  0.74820489875E+03  0.90003208064E+02 0.  0.
        -24    2    1    2    0    0 -0.89736580758E+02 -0.17837284419E+03 -0.39085094930E+03  0.44565010887E+03  0.77265965975E+02 0.  0.
         13    1    4    4    0    0 -0.31832632410E+02 -0.10053451418E+03 -0.13031420859E+03  0.16763740033E+03  0.00000000000E+00 0. -1.
        -14    1    4    4    0    0 -0.57903948348E+02 -0.77838330008E+02 -0.26053674071E+03  0.27801270855E+03  0.00000000000E+00 0.  1.
        -11    1    3    3    0    0  0.16658506484E+03 -0.37239021886E+02 -0.65106856640E+03  0.67307325510E+03  0.00000000000E+00 0. -1.
         11    1    3    3    0    0 -0.63668406293E+01 -0.20905027720E+02 -0.71883287587E+02  0.75131643652E+02  0.00000000000E+00 0.  1.
          2    1    1    2  501    0 -0.70481643452E+02  0.23651689379E+03 -0.60704099137E+03  0.65529128509E+03  0.00000000000E+00 0. -1.
<scales pt_clust_5="13000.00000" pt_clust_6="13000.00000" pt_clust_7="13000.00000" pt_clust_8="13000.00000" pt_clust_9="203.20145"></scales>
<clustering>
<clus scale="   77.266">  5  6 -1 -1</clus>
<clus scale="   90.003">  7  8 -1 -1</clus>
<clus scale="  192.746">  2  7  1 -1</clus>
<clus scale="  203.201">  1  9  2 -1</clus>
<clus scale="  203.201">  1  5  2 -1</clus>
</clustering>
</event>
<event>
 9    1  0.6296820E-005  0.1276148E+03  0.7546771E-02  0.1239478E+00
         21   -1    0    0  501  502  0.00000000000E+00  0.00000000000E+00  0.89192470500E+03  0.89192470500E+03  0.00000000000E+00 0.  1.
          3   -1    0    0  502    0 -0.00000000000E+00 -0.00000000000E+00 -0.44477018407E+03  0.44477018407E+03  0.00000000000E+00 0. -1.
         23    2    1    2    0    0  0.63692747571E+01  0.55568367467E+02 -0.41464142124E+03  0.42831700544E+03  0.91648992430E+02 0.  0.
        -24    2    1    2    0    0  0.97584302922E+02 -0.13325601435E+02  0.70021117182E+03  0.71165362076E+03  0.80342535258E+02 0.  0.
         13    1    4    4    0    0 -0.58656686209E+01 -0.22289298645E+02  0.11189557973E+03  0.11424464830E+03  0.00000000000E+00 0. -1.
        -14    1    4    4    0    0  0.10344997154E+03  0.89636972100E+01  0.58831559209E+03  0.59740897246E+03  0.00000000000E+00 0.  1.
        -13    1    3    3    0    0  0.21940367727E+01  0.79300684247E+02 -0.35935605822E+03  0.36800840873E+03  0.00000000000E+00 0. -1.
         13    1    3    3    0    0  0.41752379844E+01 -0.23732316779E+02 -0.55285363028E+02  0.60308596709E+02  0.00000000000E+00 0.  1.
          4    1    1    2  501    0 -0.10395357768E+03 -0.42242766033E+02  0.16158477035E+03  0.19672426288E+03  0.00000000000E+00 0. -1.
<scales pt_clust_5="13000.00000" pt_clust_6="13000.00000" pt_clust_7="13000.00000" pt_clust_8="13000.00000" pt_clust_9="99.14944"></scales>
<clustering>
<clus scale="   80.343">  5  6 -1 -1</clus>
<clus scale="   91.649">  7  8 -1 -1</clus>
<clus scale="  107.368">  2  7  1 -1</clus>
<clus scale="   99.149">  1  9  2 -1</clus>
<clus scale="   99.149">  1  5  2 -1</clus>
</clustering>
</event>
<event>
 9    1  0.6296820E-005  0.9373136E+02  0.7546771E-02  0.1311495E+00
         -2   -1    0    0    0  501 -0.00000000000E+00  0.00000000000E+00  0.29724816051E+03  0.29724816051E+03  0.00000000000E+00 0.  1.
         21   -1    0    0  501  502  0.00000000000E+00 -0.00000000000E+00 -0.69654522798E+02  0.69654522798E+02  0.00000000000E+00 0. -1.
        -24    2    1    2    0    0  0.12034474794E+02 -0.97499539407E+01  0.21571350643E+03  0.22640557021E+03  0.66987126976E+02 0.  0.
         23    2    1    2    0    0  0.57251737161E+01 -0.46311038436E+01  0.42347291544E+02  0.10241210564E+03  0.92955481516E+02 0.  0.
         11    1    3    3    0    0  0.25527536593E+02  0.20237768240E+02  0.72776759569E+02  0.79735055786E+02  0.00000000000E+00 0. -1.
        -12    1    3    3    0    0 -0.13493061799E+02 -0.29987722181E+02  0.14293674686E+03  0.14667051443E+03  0.00000000000E+00 0.  1.
        -11    1    4    4    0    0  0.51995363358E+01  0.40348025966E+02  0.40481534354E+02  0.57391227563E+02  0.00000000000E+00 0.  1.
         11    1    4    4    0    0  0.52563738029E+00 -0.44979129809E+02  0.18657571899E+01  0.45020878079E+02  0.00000000000E+00 0. -1.
         -1    1    1    2    0  502 -0.17759648510E+02  0.14381057784E+02 -0.30467160264E+02  0.38085007454E+02  0.00000000000E+00 0.  1.
<scales pt_clust_5="13000.00000" pt_clust_6="13000.00000" pt_clust_7="13000.00000" pt_clust_8="13000.00000" pt_clust_9="22.85213"></scales>
<clustering>
<clus scale="   22.852">  2  9  1 -1</clus>
<clus scale="   66.987">  5  6 -1 -1</clus>
<clus scale="   68.060">  1  5  2 -1</clus>
<clus scale="   92.955">  7  8 -1 -1</clus>
<clus scale="   22.852">  2  5  1 -1</clus>
</clustering>
</event>
<event>
 9    1  0.6296820E-005  0.1092632E+03  0.7546771E-02  0.1266380E+00
          1   -1    0    0  502    0 -0.00000000000E+00  0.00000000000E+00  0.89297947708E+03  0.89297947708E+03  0.00000000000E+00 0. -1.
         21   -1    0    0  501  502  0.00000000000E+00 -0.00000000000E+00 -0.23774861186E+02  0.23774861186E+02  0.00000000000E+00 0.  1.
        -24    2    1    2    0    0  0.13643180725E+02 -0.37776296334E+02  0.19078916462E+03  0.21089850890E+03  0.80402057042E+02 0.  0.
         23    2    1    2    0    0 -0.47722863584E+02  0.69953552804E+02  0.30462103740E+03  0.32913436135E+03  0.91457531869E+02 0.  0.
         13    1    3    3    0    0  0.26538276928E+02 -0.15880554317E+02  0.18107044268E+03  0.18369261651E+03  0.00000000000E+00 0. -1.
        -14    1    3    3    0    0 -0.12895096202E+02 -0.21895742017E+02  0.97187219309E+01  0.27205892386E+02  0.00000000000E+00 0.  1.
        -13    1    4    4    0    0 -0.71252217189E+02  0.28446984027E+02  0.19695143118E+03  0.21136692172E+03  0.00000000000E+00 0. -1.
         13    1    4    4    0    0  0.23529353605E+02  0.41506568777E+02  0.10766960622E+03  0.11776743962E+03  0.00000000000E+00 0.  1.
          2    1    1    2  501    0  0.34079682858E+02 -0.32177256470E+02  0.37379441388E+03  0.37672146802E+03  0.00000000000E+00 0. -1.
<scales pt_clust_5="13000.00000" pt_clust_6="13000.00000" pt_clust_7="13000.00000" pt_clust_8="13000.00000" pt_clust_9="46.87006"></scales>
<clustering>
<clus scale="   46.870">  2  9  1 -1</clus>
<clus scale="   80.402">  5  6 -1 -1</clus>
<clus scale="   91.458">  7  8 -1 -1</clus>
<clus scale="  100.192">  1  5  2 -1</clus>
<clus scale="   46.870">  2  5  1 -1</clus>
</clustering>
</event>
<event>
 9    1  0.6296820E-005  0.9160118E+02  0.7546771E-02  0.1302608E+00
         21   -1    0    0  501  502  0.00000000000E+00  0.00000000000E+00  0.14134751119E+02  0.14134751119E+02  0.00000000000E+00 0. -1.
          3   -1    0    0  502    0 -0.00000000000E+00 -0.00000000000E+00 -0.12463158000E+04  0.12463158000E+04  0.00000000000E+00 0. -1.
         23    2    1    2    0    0 -0.35571513044E+02 -0.40394020971E+02 -0.52595596773E+03  0.53467484388E+03  0.79690019594E+02 0.  0.
        -24    2    1    2    0    0 -0.51641970990E+01 -0.59827693116E+01 -0.23179376748E+03  0.24734569548E+03  0.85959757840E+02 0.  0.
         13    1    4    4    0    0  0.19064616873E+02 -0.36386781961E+02 -0.16523338290E+03  0.17026311504E+03  0.00000000000E+00 0. -1.
        -14    1    4    4    0    0 -0.24228813972E+02  0.30404012649E+02 -0.66560384581E+02  0.77082580439E+02  0.00000000000E+00 0.  1.
        -13    1    3    3    0    0  0.24990342859E+02 -0.20044331355E+02 -0.15831850500E+03  0.16152721592E+03  0.00000000000E+00 0.  1.
         13    1    3    3    0    0 -0.60561855903E+02 -0.20349689617E+02 -0.36763746272E+03  0.37314762797E+03  0.00000000000E+00 0. -1.
          4    1    1    2  501    0  0.40735710143E+02  0.46376790283E+02 -0.47443131369E+03  0.47843001177E+03  0.00000000000E+00 0. -1.
<scales pt_clust_5="13000.00000" pt_clust_6="13000.00000" pt_clust_7="13000.00000" pt_clust_8="13000.00000" pt_clust_9="61.72689"></scales>
<clustering>
<clus scale="   61.727">  1  9  2 -1</clus>
<clus scale="   79.690">  7  8 -1 -1</clus>
<clus scale="   85.745">  2  7  1 -1</clus>
<clus scale="   85.960">  5  6 -1 -1</clus>
<clus scale="   61.727">  1  5  2 -1</clus>
</clustering>
</event>
<event>
 9    1  0.6296820E-005  0.1000709E+03  0.7546771E-02  0.1285637E+00
          1   -1    0    0  502    0 -0.00000000000E+00  0.00000000000E+00  0.46823011025E+02  0.46823011025E+02  0.00000000000E+00 0. -1.
         21   -1    0    0  501  502  0.00000000000E+00 -0.00000000000E+00 -0.58177337418E+03  0.58177337418E+03  0.00000000000E+00 0. -1.
         23    2    1    2    0    0 -0.46444702269E+02  0.40657175644E+02 -0.62031252752E+02  0.12758542111E+03  0.92844208556E+02 0.  0.
        -24    2    1    2    0    0  0.27260734723E+01  0.12672877234E+02 -0.15687441141E+03  0.17753041629E+03  0.82094058612E+02 0.  0.
         11    1    4    4    0    0 -0.30403271764E+02 -0.59629069442E+01 -0.23615972542E+02  0.38956762601E+02  0.00000000000E+00 0. -1.
        -12    1    4    4    0    0  0.33129345237E+02  0.18635784178E+02 -0.13325843887E+03  0.13857365369E+03  0.00000000000E+00 0.  1.
        -11    1    3    3    0    0 -0.26157171566E+01 -0.26603976148E+02 -0.32414421522E+02  0.42015571467E+02  0.00000000000E+00 0.  1.
         11    1    3    3    0    0 -0.43828985113E+02  0.67261151791E+02 -0.29616831230E+02  0.85569849646E+02  0.00000000000E+00 0. -1.
          2    1    1    2  501    0  0.43718628797E+02 -0.53330052877E+02 -0.31604469899E+03  0.32348054779E+03  0.00000000000E+00 0. -1.
<scales pt_clust_5="13000.00000" pt_clust_6="13000.00000" pt_clust_7="13000.00000" pt_clust_8="13000.00000" pt_clust_9="68.95950"></scales>
<clustering>
<clus scale="   68.960">  2  9  1 -1</clus>
<clus scale="   82.094">  5  6 -1 -1</clus>
<clus scale="   90.186">  2  5  1 -1</clus>
<clus scale="   92.844">  7  8 -1 -1</clus>
<clus scale="   68.960">  2  5  1 -1</clus>
</clustering>
</event>
<event>
 9    1  0.6296820E-005  0.9756207E+02  0.7546771E-02  0.1287881E+00
         21   -1    0    0  501  502  0.00000000000E+00  0.00000000000E+00  0.40474728315E+02  0.40474728315E+02  0.00000000000E+00 0. -1.
          1   -1    0    0  502    0 -0.00000000000E+00 -0.00000000000E+00 -0.41229683001E+03  0.41229683001E+03  0.00000000000E+00 0. -1.
        -24    2    1    2    0    0  0.66962992282E+01  0.57427177159E+02 -0.22985500606E+03  0.25141171919E+03  0.83855874174E+02 0.  0.
         23    2    1    2    0    0 -0.15205826705E+02 -0.15108519600E+02 -0.12563619062E+03  0.15520814043E+03  0.88575560573E+02 0.  0.
         13    1    3    3    0    0  0.13098723467E+02  0.78288319391E+02 -0.16768592363E+03  0.18552413992E+03  0.00000000000E+00 0. -1.
        -14    1    3    3    0    0 -0.64024242387E+01 -0.20861142232E+02 -0.62169082426E+02  0.65887579262E+02  0.00000000000E+00 0.  1.
        -11    1    4    4    0    0 -0.42063053003E+02  0.13532300196E+02 -0.97066824097E+02  0.10665079426E+03  0.00000000000E+00 0.  1.
         11    1    4    4    0    0  0.26857226298E+02 -0.28640819796E+02 -0.28569366524E+02  0.48557346165E+02  0.00000000000E+00 0. -1.
          2    1    1    2  501    0  0.85095274771E+01 -0.42318657559E+02 -0.16330905015E+02  0.46151698713E+02  0.00000000000E+00 0. -1.
<scales pt_clust_5="13000.00000" pt_clust_6="13000.00000" pt_clust_7="13000.00000" pt_clust_8="13000.00000" pt_clust_9="43.16574"></scales>
<clustering>
<clus scale="   43.166">  1  9  2 -1</clus>
<clus scale="   83.856">  5  6 -1 -1</clus>
<clus scale="   88.576">  7  8 -1 -1</clus>
<clus scale="   93.298">  2  5  1 -1</clus>
<clus scale="   43.166">  1  5  2 -1</clus>
</clustering>
</event>
<event>
 9    1  0.6692378E-005  0.1164119E+03  0.7546771E-02  0.1252368E+00
          1   -1    0    0  502    0 -0.00000000000E+00  0.00000000000E+00  0.56396837152E+03  0.56396837152E+03  0.00000000000E+00 0. -1.
         21   -1    0    0  501  502  0.00000000000E+00 -0.00000000000E+00 -0.99091815493E+02  0.99091815493E+02  0.00000000000E+00 0. -1.
        -24    2    1    2    0    0 -0.87870890287E+00 -0.83455255354E+02  0.40115826879E+03  0.41763882151E+03  0.80800227958E+02 0.  0.
         23    2    1    2    0    0  0.84046445560E+02  0.16430505169E+02  0.60820682372E+02  0.13856826226E+03  0.90378323670E+02 0.  0.
         13    1    3    3    0    0 -0.36666030161E+02 -0.64033493300E+02  0.29057363552E+03  0.29979613688E+03  0.00000000000E+00 0. -1.
        -14    1    3    3    0    0  0.35787321258E+02 -0.19421762055E+02  0.11058463327E+03  0.11784268463E+03  0.00000000000E+00 0.  1.
        -13    1    4    4    0    0 -0.70374809773E+01  0.31346671668E+02  0.13510410114E+02  0.34852132569E+02  0.00000000000E+00 0.  1.
         13    1    4    4    0    0  0.91083926537E+02 -0.14916166499E+02  0.47310272257E+02  0.10371612969E+03  0.00000000000E+00 0. -1.
          2    1    1    2  501    0 -0.83167736657E+02  0.67024750186E+02  0.28976048600E+01  0.10685310324E+03  0.00000000000E+00 0. -1.
<scales pt_clust_5="13000.00000" pt_clust_6="13000.00000" pt_clust_7="13000.00000" pt_clust_8="13000.00000" pt_clust_9="106.81381"></scales>
<clustering>
<clus scale="   80.800">  5  6 -1 -1</clus>
<clus scale="   90.378">  7  8 -1 -1</clus>
<clus scale="  106.814">  2  9  1 -1</clus>
<clus scale="  109.143">  1  5  2 -1</clus>
<clus scale="  106.814">  2  5  1 -1</clus>
</clustering>
</event>
<event>
 9    1  0.6296820E-005  0.9604694E+02  0.7546771E-02  0.1295388E+00
         -2   -1    0    0    0  501 -0.00000000000E+00  0.00000000000E+00  0.48594583804E+02  0.48594583804E+02  0.00000000000E+00 0.  1.
         21   -1    0    0  501  502  0.00000000000E+00 -0.00000000000E+00 -0.37897843977E+03  0.37897843977E+03  0.00000000000E+00 0. -1.
         23    2    1    2    0    0  0.42887824848E+02 -0.10484155822E+02 -0.47281539410E+02  0.11240178007E+03  0.91920254299E+02 0.  0.
        -24    2    1    2    0    0 -0.85267961142E+00  0.84906912427E+01 -0.10665186135E+03  0.13377198639E+03  0.80296363025E+02 0.  0.
         11    1    4    4    0    0 -0.27796160133E+02  0.23071443926E+02 -0.93862584730E+02  0.10057386766E+03  0.00000000000E+00 0. -1.
        -12    1    4    4    0    0  0.26943480522E+02 -0.14580752683E+02 -0.12789276616E+02  0.33198118739E+02  0.00000000000E+00 0.  1.
        -11    1    3    3    0    0  0.24299093834E+02  0.18783530150E+02 -0.66147250839E+02  0.72929594539E+02  0.00000000000E+00 0. -1.
         11    1    3    3    0    0  0.18588731015E+02 -0.29267685973E+02  0.18865711429E+02  0.39472185532E+02  0.00000000000E+00 0.  1.
         -1    1    1    2    0  502 -0.42035145237E+02  0.19934645796E+01 -0.17645045521E+03  0.18139925711E+03  0.00000000000E+00 0.  1.
<scales pt_clust_5="13000.00000" pt_clust_6="13000.00000" pt_clust_7="13000.00000" pt_clust_8="13000.00000" pt_clust_9="42.08239"></scales>
<clustering>
<clus scale="   42.082">  2  9  1 -1</clus>
<clus scale="   80.296">  5  6 -1 -1</clus>
<clus scale="   84.989">  2  5  1 -1</clus>
<clus scale="   91.920">  7  8 -1 -1</clus>
<clus scale="   42.082">  2  5  1 -1</clus>
</clustering>
</event>
<event>
 9    1  0.6296820E-005  0.1877244E+03  0.7546771E-02  0.1162174E+00
          1   -1    0    0  502    0 -0.00000000000E+00  0.00000000000E+00  0.13300524088E+04  0.13300524088E+04  0.00000000000E+00 0. -1.
         21   -1    0    0  501  502  0.00000000000E+00 -0.00000000000E+00 -0.68828330422E+02  0.68828330422E+02  0.00000000000E+00 0. -1.
         23    2    1    2    0    0 -0.12176838290E+03 -0.93811362785E+02  0.41121996639E+03  0.44943331154E+03  0.96230607937E+02 0.  0.
        -24    2    1    2    0    0  0.20432204046E+03  0.36595401766E+01  0.23318709642E+03  0.32063450782E+03  0.81666255047E+02 0.  0.
         11    1    4    4    0    0  0.16843332985E+03  0.24188676758E+02  0.21808971331E+03  0.27661887451E+03  0.00000000000E+00 0. -1.
        -12    1    4    4    0    0  0.35888710611E+02 -0.20529136581E+02  0.15097383114E+02  0.44015633302E+02  0.00000000000E+00 0.  1.
        -13    1    3    3    0    0 -0.10647046352E+03 -0.35197795514E+02  0.32697895693E+03  0.34567337573E+03  0.00000000000E+00 0. -1.
         13    1    3    3    0    0 -0.15297919379E+02 -0.58613567271E+02  0.84241009463E+02  0.10375993582E+03  0.00000000000E+00 0.  1.
          2    1    1    2  501    0 -0.82553657563E+02  0.90151822608E+02  0.61681701554E+03  0.62881291984E+03  0.00000000000E+00 0. -1.
<scales pt_clust_5="13000.00000" pt_clust_6="13000.00000" pt_clust_7="13000.00000" pt_clust_8="13000.00000" pt_clust_9="122.23941"></scales>
<clustering>
<clus scale="   81.666">  5  6 -1 -1</clus>
<clus scale="   96.231">  7  8 -1 -1</clus>
<clus scale="  122.239">  2  9  1 -1</clus>
<clus scale="  180.692">  2  5  1 -1</clus>
<clus scale="  122.239">  2  5  1 -1</clus>
</clustering>
</event>
<event>
 9    1  0.6296820E-005  0.1305953E+03  0.7546771E-02  0.1240218E+00
         21   -1    0    0  501  502  0.00000000000E+00  0.00000000000E+00  0.44850040730E+02  0.44850040730E+02  0.00000000000E+00 0. -1.
          1   -1    0    0  502    0 -0.00000000000E+00 -0.00000000000E+00 -0.80143941920E+03  0.80143941920E+03  0.00000000000E+00 0. -1.
        -24    2    1    2    0    0 -0.24262948694E+02  0.53193624379E+02 -0.40128237329E+03  0.41323978065E+03  0.79506734561E+02 0.  0.
         23    2    1    2    0    0 -0.46043472835E+02  0.29140389304E+02 -0.28501193567E+03  0.30396335346E+03  0.90513828182E+02 0.  0.
         13    1    3    3    0    0 -0.24603606275E+02  0.73641328073E+02 -0.29773472928E+03  0.30769197529E+03  0.00000000000E+00 0. -1.
        -14    1    3    3    0    0  0.34065758121E+00 -0.20447703695E+02 -0.10354764402E+03  0.10554780536E+03  0.00000000000E+00 0.  1.
        -13    1    4    4    0    0  0.12611668603E+02  0.43228543359E+02 -0.13318519661E+03  0.14059181250E+03  0.00000000000E+00 0.  1.
         13    1    4    4    0    0 -0.58655141438E+02 -0.14088154055E+02 -0.15182673906E+03  0.16337154096E+03  0.00000000000E+00 0. -1.
          2    1    1    2  501    0  0.70306421529E+02 -0.82334013683E+02 -0.70295069507E+02  0.12908632582E+03  0.00000000000E+00 0. -1.
<scales pt_clust_5="13000.00000" pt_clust_6="13000.00000" pt_clust_7="13000.00000" pt_clust_8="13000.00000" pt_clust_9="94.14027"></scales>
<clustering>
<clus scale="   79.507">  5  6 -1 -1</clus>
<clus scale="   90.514">  7  8 -1 -1</clus>
<clus scale="   98.689">  2  5  1 -1</clus>
<clus scale="   94.140">  1  9  2 -1</clus>
<clus scale="   94.140">  1  5  2 -1</clus>
</clustering>
</event>
<event>
 9    1  0.6296820E-005  0.1918718E+03  0.7546771E-02  0.1177793E+00
         -2   -1    0    0    0  501 -0.00000000000E+00  0.00000000000E+00  0.15632582435E+03  0.15632582435E+03  0.00000000000E+00 0.  1.
         21   -1    0    0  501  502  0.00000000000E+00 -0.00000000000E+00 -0.38804685032E+03  0.38804685032E+03  0.00000000000E+00 0. -1.
         23    2    1    2    0    0  0.14681061958E+02 -0.76724029570E+02 -0.46961297491E+02  0.12736040259E+03  0.88956159940E+02 0.  0.
        -24    2    1    2    0    0 -0.10621595683E+03  0.18099507865E+03 -0.15914470687E+03  0.27591933113E+03  0.82239841823E+02 0.  0.
         11    1    4    4    0    0 -0.78544043398E+02  0.15561224342E+03 -0.16238520275E+03  0.23822949256E+03  0.00000000000E+00 0. -1.
        -12    1    4    4    0    0 -0.27671913433E+02  0.25382835230E+02  0.32404958774E+01  0.37689838563E+02  0.00000000000E+00 0.  1.
        -13    1    3    3    0    0  0.49928441293E+02 -0.57308418639E+02 -0.18961854948E+02  0.78336811525E+02  0.00000000000E+00 0. -1.
         13    1    3    3    0    0 -0.35247379335E+02 -0.19415610931E+02 -0.27999442544E+02  0.49023591062E+02  0.00000000000E+00 0.  1.
         -1    1    1    2    0  502  0.91534894873E+02 -0.10427104908E+03 -0.25615021608E+02  0.14109294096E+03  0.00000000000E+00 0.  1.
<scales pt_clust_5="13000.00000" pt_clust_6="13000.00000" pt_clust_7="13000.00000" pt_clust_8="13000.00000" pt_clust_9="173.35344"></scales>
<clustering>
<clus scale="   82.240">  5  6 -1 -1</clus>
<clus scale="   88.956">  7  8 -1 -1</clus>
<clus scale="  118.386">  1  7  2 -1</clus>
<clus scale="  173.353">  2  9  1 -1</clus>
<clus scale="  173.353">  2  5  1 -1</clus>
</clustering>
</event>
<event>
 9    1  0.6296820E-005  0.3342633E+03  0.7546771E-02  0.1094367E+00
          1   -1    0    0  502    0 -0.00000000000E+00  0.00000000000E+00  0.20369655498E+04  0.20369655498E+04  0.00000000000E+00 0. -1.
         21   -1    0    0  501  502  0.00000000000E+00 -0.00000000000E+00 -0.93415250426E+02  0.93415250426E+02  0.00000000000E+00 0. -1.
         23    2    1    2    0    0  0.11124586864E+03 -0.88187541039E+02  0.60430793560E+03  0.62786560382E+03  0.94204297976E+02 0.  0.
        -24    2    1    2    0    0  0.21046848344E+03  0.23399297548E+03  0.57109200797E+03  0.65704827323E+03  0.80725811841E+02 0.  0.
         13    1    4    4    0    0  0.21234232155E+03  0.23151946533E+03  0.57295571429E+03  0.65342847725E+03  0.00000000000E+00 0. -1.
        -14    1    4    4    0    0 -0.18738381164E+01  0.24735101470E+01 -0.18637063141E+01  0.36197959830E+01  0.00000000000E+00 0.  1.
        -11    1    3    3    0    0  0.65601960680E+02 -0.98326583441E+02  0.49611503046E+03  0.51000182128E+03  0.00000000000E+00 0. -1.
         11    1    3    3    0    0  0.45643907962E+02  0.10139042403E+02  0.10819290513E+03  0.11786378254E+03  0.00000000000E+00 0.  1.
          2    1    1    2  501    0 -0.32171435208E+03 -0.14580543444E+03  0.76815035580E+03  0.84546692316E+03  0.00000000000E+00 0. -1.
<scales pt_clust_5="13000.00000" pt_clust_6="13000.00000" pt_clust_7="13000.00000" pt_clust_8="13000.00000" pt_clust_9="324.36929"></scales>
<clustering>
<clus scale="   80.726">  5  6 -1 -1</clus>
<clus scale="   94.204">  7  8 -1 -1</clus>
<clus scale="  170.374">  1  7  2 -1</clus>
<clus scale="  324.369">  2  9  1 -1</clus>
<clus scale="  324.369">  2  5  1 -1</clus>
</clustering>
</event>
<event>
 9    1  0.6296820E-005  0.8723456E+02  0.7546771E-02  0.1311926E+00
         21   -1    0    0  501  502  0.00000000000E+00  0.00000000000E+00  0.80980829215E+02  0.80980829215E+02  0.00000000000E+00 0.  1.
         -2   -1    0    0    0  501 -0.00000000000E+00 -0.00000000000E+00 -0.28244542000E+03  0.28244542000E+03  0.00000000000E+00 0.  1.
         23    2    1    2    0    0  0.24727318159E+02  0.15401669162E+02 -0.12462144681E+03  0.15427084972E+03  0.86141386060E+02 0.  0.
        -24    2    1    2    0    0  0.29991537274E+02  0.32179604676E+02  0.12111072884E+02  0.94390494331E+02  0.82630914726E+02 0.  0.
         11    1    4    4    0    0  0.23450511703E+02 -0.23954021821E+02 -0.78973082102E+01  0.34439644852E+02  0.00000000000E+00 0. -1.
        -12    1    4    4    0    0  0.65410255710E+01  0.56133626497E+02  0.20008381094E+02  0.59950849479E+02  0.00000000000E+00 0.  1.
        -13    1    3    3    0    0  0.23077927642E+02  0.50041997939E+02 -0.88033912392E+02  0.10385933773E+03  0.00000000000E+00 0.  1.
         13    1    3    3    0    0  0.16493905168E+01 -0.34640328777E+02 -0.36587534422E+02  0.50411511998E+02  0.00000000000E+00 0. -1.
         -1    1    1    2    0  502 -0.54718855433E+02 -0.47581273838E+02 -0.88954216854E+02  0.11476490516E+03  0.00000000000E+00 0.  1.
<scales pt_clust_5="13000.00000" pt_clust_6="13000.00000" pt_clust_7="13000.00000" pt_clust_8="13000.00000" pt_clust_9="72.51301"></scales>
<clustering>
<clus scale="   72.513">  1  9  2 -1</clus>
<clus scale="   82.631">  5  6 -1 -1</clus>
<clus scale="   83.770">  1  5  2 -1</clus>
<clus scale="   86.141">  7  8 -1 -1</clus>
<clus scale="   72.513">  1  5  2 -1</clus>
</clustering>
</event>
<event>
 9    1  0.6296820E-005  0.2013298E+03  0.7546771E-02  0.1149582E+00
          1   -1    0    0  502    0 -0.00000000000E+00  0.00000000000E+00  0.34813397235E+03  0.34813397235E+03  0.00000000000E+00 0. -1.
         21   -1    0    0  501  502  0.00000000000E+00 -0.00000000000E+00 -0.14938714967E+03  0.14938714967E+03  0.00000000000E+00 0.  1.
         23    2    1    2    0    0  0.29527354259E+02  0.17787375443E+03  0.11533820175E+03  0.23212701013E+03  0.89828229879E+02 0.  0.
        -24    2    1    2    0    0 -0.44436769676E+01 -0.18099589961E+03  0.21786513205E+02  0.19878913598E+03  0.79140422555E+02 0.  0.
         13    1    4    4    0    0  0.92717861855E+01 -0.18284057188E+03  0.24435167905E+02  0.18469899343E+03  0.00000000000E+00 0. -1.
        -14    1    4    4    0    0 -0.13715463153E+02  0.18446722626E+01 -0.26486546995E+01  0.14090142546E+02  0.00000000000E+00 0.  1.
        -13    1    3    3    0    0 -0.21953337489E+02  0.71279317036E+01  0.14405223242E+02  0.27207846183E+02  0.00000000000E+00 0. -1.
         13    1    3    3    0    0  0.51480691748E+02  0.17074582272E+03  0.10093297851E+03  0.20491916394E+03  0.00000000000E+00 0.  1.
          2    1    1    2  501    0 -0.25083677291E+02  0.31221451866E+01  0.61622107724E+02  0.66604975921E+02  0.00000000000E+00 0. -1.
<scales pt_clust_5="13000.00000" pt_clust_6="13000.00000" pt_clust_7="13000.00000" pt_clust_8="13000.00000" pt_clust_9="25.27725"></scales>
<clustering>
<clus scale="   25.277">  2  9  1 -1</clus>
<clus scale="   79.140">  5  6 -1 -1</clus>
<clus scale="   89.828">  7  8 -1 -1</clus>
<clus scale="  196.794">  2  5  1 -1</clus>
<clus scale="   25.277">  2  5  1 -1</clus>
</clustering>
</event>
<event>
 9    1  0.6296820E-005  0.9263918E+02  0.7546771E-02  0.1298844E+00
         21   -1    0    0  501  502  0.00000000000E+00  0.00000000000E+00  0.13264566268E+03  0.13264566268E+03  0.00000000000E+00 0.  1.
         -2   -1    0    0    0  501 -0.00000000000E+00 -0.00000000000E+00 -0.11201668920E+03  0.11201668920E+03  0.00000000000E+00 0.  1.
        -24    2    1    2    0    0  0.42211993635E+02  0.17813093171E+02 -0.10541899138E+02  0.93551531587E+02  0.80880150407E+02 0.  0.
         23    2    1    2    0    0 -0.27080940559E+02  0.26570444323E+02  0.43284261832E+02  0.10267961789E+03  0.85030645973E+02 0.  0.
         11    1    3    3    0    0 -0.15090124909E+02 -0.15377142439E+02  0.10636420575E+02  0.24027105984E+02  0.00000000000E+00 0. -1.
        -12    1    3    3    0    0  0.57302118544E+02  0.33190235609E+02 -0.21178319713E+02  0.69524425602E+02  0.00000000000E+00 0.  1.
        -11    1    4    4    0    0 -0.56411726013E+02  0.28699651058E+02  0.33966043400E+02  0.71830668290E+02  0.00000000000E+00 0.  1.
         11    1    4    4    0    0  0.29330785454E+02 -0.21292067349E+01  0.93182184315E+01  0.30848949600E+02  0.00000000000E+00 0. -1.
         -1    1    1    2    0  502 -0.15131053076E+02 -0.44383537494E+02 -0.12113389212E+02  0.48431202400E+02  0.00000000000E+00 0.  1.
<scales pt_clust_5="13000.00000" pt_clust_6="13000.00000" pt_clust_7="13000.00000" pt_clust_8="13000.00000" pt_clust_9="46.89189"></scales>
<clustering>
<clus scale="   46.892">  1  9  2 -1</clus>
<clus scale="   80.880">  5  6 -1 -1</clus>
<clus scale="   85.031">  7  8 -1 -1</clus>
<clus scale="   88.845">  2  5  1 -1</clus>
<clus scale="   46.892">  1  5  2 -1</clus>
</clustering>
</event>
<event>
 9    1  0.6296820E-005  0.9152516E+02  0.7546771E-02  0.1306493E+00
         21   -1    0    0  501  502  0.00000000000E+00  0.00000000000E+00  0.21717560266E+03  0.21717560266E+03  0.00000000000E+00 0. -1.
          1   -1    0    0  502    0 -0.00000000000E+00 -0.00000000000E+00 -0.12789867973E+03  0.12789867973E+03  0.00000000000E+00 0. -1.
        -24    2    1    2    0    0 -0.26127831296E+02 -0.32647657733E+01 -0.66732100608E+02  0.10589476388E+03  0.77892268560E+02 0.  0.
         23    2    1    2    0    0 -0.43436266923E+01 -0.22708218268E+02  0.16488449019E+02  0.94027541717E+02  0.89636930896E+02 0.  0.
         13    1    3    3    0    0 -0.29967893004E+02 -0.36231748794E+02 -0.27361566238E+02  0.54401006781E+02  0.00000000000E+00 0. -1.
        -14    1    3    3    0    0  0.38400617071E+01  0.32966983021E+02 -0.39370534370E+02  0.51493757097E+02  0.00000000000E+00 0.  1.
        -11    1    4    4    0    0  0.25289036095E+02  0.25023232579E+02  0.12483492413E+02  0.37703250498E+02  0.00000000000E+00 0.  1.
         11    1    4    4    0    0 -0.29632662788E+02 -0.47731450847E+02  0.40049566055E+01  0.56324291218E+02  0.00000000000E+00 0. -1.
          2    1    1    2  501    0  0.30471457989E+02  0.25972984042E+02  0.13952057452E+03  0.14515197679E+03  0.00000000000E+00 0. -1.
<scales pt_clust_5="13000.00000" pt_clust_6="13000.00000" pt_clust_7="13000.00000" pt_clust_8="13000.00000" pt_clust_9="40.03880"></scales>
<clustering>
<clus scale="   40.039">  1  9  2 -1</clus>
<clus scale="   77.892">  5  6 -1 -1</clus>
<clus scale="   80.058">  2  5  1 -1</clus>
<clus scale="   89.637">  7  8 -1 -1</clus>
<clus scale="   40.039">  1  5  2 -1</clus>
</clustering>
</event>
<event>
 9    1  0.6296820E-005  0.1171732E+03  0.7546771E-02  0.1259593E+00
         21   -1    0    0  501  502  0.00000000000E+00  0.00000000000E+00  0.57270650237E+02  0.57270650237E+02  0.00000000000E+00 0. -1.
          3   -1    0    0  502    0 -0.00000000000E+00 -0.00000000000E+00 -0.51425428676E+03  0.51425428676E+03  0.00000000000E+00 0. -1.
        -24    2    1    2    0    0  0.26216355909E+01 -0.54948106325E+02 -0.34756440746E+03  0.36043530882E+03  0.78015557077E+02 0.  0.
         23    2    1    2    0    0  0.29639270143E+02  0.32751041371E+02 -0.12434718151E+03  0.16918116250E+03  0.10587222086E+03 0.  0.
         11    1    3    3    0    0 -0.17021877655E+01 -0.73599616192E+02 -0.30506425993E+03  0.31382161116E+03  0.00000000000E+00 0. -1.
        -12    1    3    3    0    0  0.43238233564E+01  0.18651509866E+02 -0.42500147532E+02  0.46613697654E+02  0.00000000000E+00 0.  1.
        -11    1    4    4    0    0 -0.25731572860E+02 -0.23828611274E+02 -0.31228001061E+02  0.46958541368E+02  0.00000000000E+00 0.  1.
         11    1    4    4    0    0  0.55370843003E+02  0.56579652645E+02 -0.93119180448E+02  0.12222262113E+03  0.00000000000E+00 0. -1.
          4    1    1    2  501    0 -0.32260905733E+02  0.22197064955E+02  0.14927952450E+02  0.41908465680E+02  0.00000000000E+00 0. -1.
<scales pt_clust_5="13000.00000" pt_clust_6="13000.00000" pt_clust_7="13000.00000" pt_clust_8="13000.00000" pt_clust_9="39.15962"></scales>
<clustering>
<clus scale="   39.160">  1  9  2 -1</clus>
<clus scale="   78.016">  5  6 -1 -1</clus>
<clus scale="   92.774">  2  5  1 -1</clus>
<clus scale="  105.872">  7  8 -1 -1</clus>
<clus scale="   39.160">  1  5  2 -1</clus>
</clustering>
</event>
<event>
 9    1  0.6296820E-005  0.9131329E+02  0.7546771E-02  0.1305057E+00
         -2   -1    0    0    0  501 -0.00000000000E+00  0.00000000000E+00  0.18867823053E+03  0.18867823053E+03  0.00000000000E+00 0.  1.
         21   -1    0    0  501  502  0.00000000000E+00 -0.00000000000E+00 -0.74964478823E+02  0.74964478823E+02  0.00000000000E+00 0.  1.
         23    2    1    2    0    0  0.31378894932E+01  0.27866189876E+01  0.33793703216E+02  0.95836069408E+02  0.89581952572E+02 0.  0.
        -24    2    1    2    0    0  0.41012832168E+02 -0.66933856090E+01  0.19660838385E+02  0.93002084928E+02  0.80845441563E+02 0.  0.
         11    1    4    4    0    0  0.20958772140E+02 -0.40927974570E+02 -0.50523752847E+01  0.46259006993E+02  0.00000000000E+00 0. -1.
        -12    1    4    4    0    0  0.20054060028E+02  0.34234588961E+02  0.24713213670E+02  0.46743077935E+02  0.00000000000E+00 0.  1.
        -11    1    3    3    0    0  0.30865618804E+02 -0.16260585427E+02 -0.13831255287E+02  0.37528611557E+02  0.00000000000E+00 0.  1.
         11    1    3    3    0    0 -0.27727729311E+02  0.19047204415E+02  0.47624958502E+02  0.58307457851E+02  0.00000000000E+00 0. -1.
         -1    1    1    2    0  502 -0.44150721661E+02  0.39067666214E+01  0.60259210109E+02  0.74804555019E+02  0.00000000000E+00 0.  1.
<scales pt_clust_5="13000.00000" pt_clust_6="13000.00000" pt_clust_7="13000.00000" pt_clust_8="13000.00000" pt_clust_9="44.32326"></scales>
<clustering>
<clus scale="   44.323">  2  9  1 -1</clus>
<clus scale="   80.845">  5  6 -1 -1</clus>
<clus scale="   82.760">  2  5  1 -1</clus>
<clus scale="   89.582">  7  8 -1 -1</clus>
<clus scale="   44.323">  2  5  1 -1</clus>
</clustering>
</event>
<event>
 9    1  0.6296820E-005  0.2260545E+03  0.7546771E-02  0.1130244E+00
          1   -1    0    0  502    0 -0.00000000000E+00  0.00000000000E+00  0.91813276572E+03  0.91813276572E+03  0.00000000000E+00 0. -1.
         21   -1    0    0  501  502  0.00000000000E+00 -0.00000000000E+00 -0.80533583055E+02  0.80533583055E+02  0.00000000000E+00 0. -1.
        -24    2    1    2    0    0 -0.21187899330E+03 -0.58081934433E+02  0.62348576419E+03  0.66677977905E+03  0.87146753824E+02 0.  0.
         23    2    1    2    0    0  0.17142620002E+03  0.24713419181E+02  0.18639154637E+03  0.27257056439E+03  0.97750748720E+02 0.  0.
         13    1    3    3    0    0 -0.20548191157E+03 -0.64602330587E+02  0.62102591825E+03  0.65731991316E+03  0.00000000000E+00 0. -1.
        -14    1    3    3    0    0 -0.63970817294E+01  0.65203961542E+01  0.24598459359E+01  0.94598658916E+01  0.00000000000E+00 0.  1.
        -11    1    4    4    0    0  0.17003460705E+03  0.74925327900E+00  0.18024533964E+03  0.24779166943E+03  0.00000000000E+00 0. -1.
         11    1    4    4    0    0  0.13915929612E+01  0.23964165902E+02  0.61462067281E+01  0.24778894962E+02  0.00000000000E+00 0.  1.
          2    1    1    2  501    0  0.40452793286E+02  0.33368515252E+02  0.27721872108E+02  0.59316005327E+02  0.00000000000E+00 0. -1.
<scales pt_clust_5="13000.00000" pt_clust_6="13000.00000" pt_clust_7="13000.00000" pt_clust_8="13000.00000" pt_clust_9="52.43936"></scales>
<clustering>
<clus scale="   52.439">  2  9  1 -1</clus>
<clus scale="   87.147">  5  6 -1 -1</clus>
<clus scale="   97.751">  7  8 -1 -1</clus>
<clus scale="  221.675">  1  5  2 -1</clus>
<clus scale="   52.439">  2  5  1 -1</clus>
</clustering>
</event>
<event>
 9    1  0.6296820E-005  0.1253889E+03  0.7546771E-02  0.1238406E+00
         21   -1    0    0  501  502  0.00000000000E+00  0.00000000000E+00  0.49725548420E+03  0.49725548420E+03  0.00000000000E+00 0.  1.
          1   -1    0    0  502    0 -0.00000000000E+00 -0.00000000000E+00 -0.54811656785E+02  0.54811656785E+02  0.00000000000E+00 0. -1.
        -24    2    1    2    0    0 -0.64205919713E+02  0.55708099237E+02  0.80705857611E+02  0.14094049513E+03  0.78262348985E+02 0.  0.
         23    2    1    2    0    0  0.38810567924E+02 -0.83224785778E+02  0.34758517217E+03  0.37109673689E+03  0.92003864414E+02 0.  0.
         11    1    3    3    0    0 -0.61131884712E+02  0.52243573391E+02  0.23822670615E+02  0.83869052244E+02  0.00000000000E+00 0. -1.
        -12    1    3    3    0    0 -0.30740350012E+01  0.34645258467E+01  0.56883186997E+02  0.57071442889E+02  0.00000000000E+00 0.  1.
        -13    1    4    4    0    0  0.64228750158E+02 -0.75336482595E+02  0.30696449694E+03  0.32253390572E+03  0.00000000000E+00 0.  1.
         13    1    4    4    0    0 -0.25418182234E+02 -0.78883031838E+01  0.40620675234E+02  0.48562831174E+02  0.00000000000E+00 0. -1.
          2    1    1    2  501    0  0.25395351789E+02  0.27516686541E+02  0.14152797632E+02  0.40029908962E+02  0.00000000000E+00 0. -1.
<scales pt_clust_5="13000.00000" pt_clust_6="13000.00000" pt_clust_7="13000.00000" pt_clust_8="13000.00000" pt_clust_9="37.44454"></scales>
<clustering>
<clus scale="   37.445">  1  9  2 -1</clus>
<clus scale="   78.262">  5  6 -1 -1</clus>
<clus scale="   92.004">  7  8 -1 -1</clus>
<clus scale="  115.683">  2  5  1 -1</clus>
<clus scale="   37.445">  1  5  2 -1</clus>
</clustering>
</event>
<event>
 9    1  0.6296820E-005  0.2122117E+03  0.7546771E-02  0.1140770E+00
         21   -1    0    0  501  502  0.00000000000E+00  0.00000000000E+00  0.75802595266E+02  0.75802595266E+02  0.00000000000E+00 0. -1.
          3   -1    0    0  502    0 -0.00000000000E+00 -0.00000000000E+00 -0.12259500093E+04  0.12259500093E+04  0.00000000000E+00 0. -1.
        -24    2    1    2    0    0  0.14597635308E+03  0.12008400572E+03 -0.74118426162E+03  0.76899361594E+03  0.79169486545E+02 0.  0.
         23    2    1    2    0    0 -0.21414577743E+03 -0.42538121250E+02 -0.30818372969E+03  0.38847826690E+03  0.90940897582E+02 0.  0.
         11    1    3    3    0    0  0.11871979669E+03  0.48446105858E+02 -0.47282525774E+03  0.48990319417E+03  0.00000000000E+00 0. -1.
        -12    1    3    3    0    0  0.27256556387E+02  0.71637899865E+02 -0.26835900387E+03  0.27909042177E+03  0.00000000000E+00 0.  1.
        -11    1    4    4    0    0 -0.15686495157E+03 -0.41762714567E+02 -0.28223843045E+03  0.32559064634E+03  0.00000000000E+00 0. -1.
         11    1    4    4    0    0 -0.57280825861E+02 -0.77540668272E+00 -0.25945299240E+02  0.62887620558E+02  0.00000000000E+00 0.  1.
          4    1    1    2  501    0  0.68169424354E+02 -0.77545884474E+02 -0.10077942270E+03  0.14428072171E+03  0.00000000000E+00 0. -1.
<scales pt_clust_5="13000.00000" pt_clust_6="13000.00000" pt_clust_7="13000.00000" pt_clust_8="13000.00000" pt_clust_9="103.24938"></scales>
<clustering>
<clus scale="   79.169">  5  6 -1 -1</clus>
<clus scale="   90.941">  7  8 -1 -1</clus>
<clus scale="  103.249">  1  9  2 -1</clus>
<clus scale="  207.440">  2  5  1 -1</clus>
<clus scale="  103.249">  1  5  2 -1</clus>
</clustering>
</event>
<event>
 9    1  0.6296820E-005  0.9076948E+02  0.7546771E-02  0.1302797E+00
          1   -1    0    0  502    0 -0.00000000000E+00  0.00000000000E+00  0.29960167680E+03  0.29960167680E+03  0.00000000000E+00 0. -1.
         21   -1    0    0  501  502  0.00000000000E+00 -0.00000000000E+00 -0.42257055271E+03  0.42257055271E+03  0.00000000000E+00 0.  1.
         23    2    1    2    0    0 -0.58354766447E+01  0.93599286361E+01  0.26730050674E+03  0.28230716982E+03  0.90144973115E+02 0.  0.
        -24    2    1    2    0    0  0.52080918389E+02  0.46540808603E+02 -0.31970710055E+03  0.33865948197E+03  0.87173078781E+02 0.  0.
         13    1    4    4    0    0  0.50142283257E+02 -0.41122685905E+01 -0.87036449165E+02  0.10053110368E+03  0.00000000000E+00 0. -1.
        -14    1    4    4    0    0  0.19386351320E+01  0.50653077194E+02 -0.23267065138E+03  0.23812837830E+03  0.00000000000E+00 0.  1.
        -11    1    3    3    0    0  0.25447185412E+02 -0.26833266934E+02  0.16880992703E+03  0.17281312139E+03  0.00000000000E+00 0.  1.
         11    1    3    3    0    0 -0.31282662057E+02  0.36193195570E+02  0.98490579703E+02  0.10949404843E+03  0.00000000000E+00 0. -1.
          2    1    1    2  501    0 -0.46245441745E+02 -0.55900737239E+02 -0.70562282097E+02  0.10120557772E+03  0.00000000000E+00 0. -1.
<scales pt_clust_5="13000.00000" pt_clust_6="13000.00000" pt_clust_7="13000.00000" pt_clust_8="13000.00000" pt_clust_9="72.55021"></scales>
<clustering>
<clus scale="   72.550">  2  9  1 -1</clus>
<clus scale="   87.173">  5  6 -1 -1</clus>
<clus scale="   87.819">  2  5  1 -1</clus>
<clus scale="   90.145">  7  8 -1 -1</clus>
<clus scale="   72.550">  2  5  1 -1</clus>
</clustering>
</event>
<event>
 9    1  0.6296820E-005  0.3939827E+03  0.7546771E-02  0.1074198E+00
         21   -1    0    0  501  502  0.00000000000E+00  0.00000000000E+00  0.14380885650E+04  0.14380885650E+04  0.00000000000E+00 0. -1.
          1   -1    0    0  502    0 -0.00000000000E+00 -0.00000000000E+00 -0.16933500878E+03  0.16933500878E+03  0.00000000000E+00 0. -1.
         23    2    1    2    0    0 -0.97093106213E+02  0.11882546484E+03  0.29449446968E+03  0.34429803808E+03  0.90926255759E+02 0.  0.
        -24    2    1    2    0    0 -0.32069744171E+03 -0.18335668336E+03  0.51600722099E+03  0.63966102800E+03  0.80226281084E+02 0.  0.
         11    1    4    4    0    0 -0.18704698498E+03 -0.13084181732E+03  0.25880994300E+03  0.34509236785E+03  0.00000000000E+00 0. -1.
        -12    1    4    4    0    0 -0.13365045673E+03 -0.52514866035E+02  0.25719727799E+03  0.29456866015E+03  0.00000000000E+00 0.  1.
        -11    1    3    3    0    0 -0.35671584034E+02 -0.60118774238E+01  0.37780214931E+02  0.52306301894E+02  0.00000000000E+00 0.  1.
         11    1    3    3    0    0 -0.61421522179E+02  0.12483734227E+03  0.25671425475E+03  0.29199173619E+03  0.00000000000E+00 0. -1.
          2    1    1    2  501    0  0.41779054792E+03  0.64531218518E+02  0.45825186558E+03  0.62346450773E+03  0.00000000000E+00 0. -1.
<scales pt_clust_5="13000.00000" pt_clust_6="13000.00000" pt_clust_7="13000.00000" pt_clust_8="13000.00000" pt_clust_9="385.72819"></scales>
<clustering>
<clus scale="   80.226">  5  6 -1 -1</clus>
<clus scale="   90.926">  7  8 -1 -1</clus>
<clus scale="  178.365">  2  7  1 -1</clus>
<clus scale="  385.728">  1  9  2 -1</clus>
<clus scale="  385.728">  1  5  2 -1</clus>
</clustering>
</event>
<event>
 9    1  0.6296820E-005  0.1032928E+03  0.7546771E-02  0.1279095E+00
          3   -1    0    0  502    0 -0.00000000000E+00  0.00000000000E+00  0.29804982384E+03  0.29804982384E+03  0.00000000000E+00 0. -1.
         21   -1    0    0  501  502  0.00000000000E+00 -0.00000000000E+00 -0.12005299333E+03  0.12005299333E+03  0.00000000000E+00 0.  1.
         23    2    1    2    0    0 -0.45740862718E+02 -0.14118526886E+02  0.23945038659E+03  0.26021254657E+03  0.89902849958E+02 0.  0.
        -24    2    1    2    0    0  0.61687940432E+02  0.45722915513E+02 -0.38991801880E+02  0.11596561115E+03  0.77663861332E+02 0.  0.
         11    1    4    4    0    0  0.18869566346E+02  0.21702047041E+02  0.23044526074E+02  0.36852266713E+02  0.00000000000E+00 0. -1.
        -12    1    4    4    0    0  0.42818374086E+02  0.24020868472E+02 -0.62036327954E+02  0.79113344434E+02  0.00000000000E+00 0.  1.
        -11    1    3    3    0    0 -0.33352736647E+02  0.25144189481E+02  0.44780375307E+02  0.61236568479E+02  0.00000000000E+00 0.  1.
         11    1    3    3    0    0 -0.12388126071E+02 -0.39262716367E+02  0.19467001128E+03  0.19897597809E+03  0.00000000000E+00 0. -1.
          4    1    1    2  501    0 -0.15947077714E+02 -0.31604388627E+02 -0.22461754198E+02  0.41924659447E+02  0.00000000000E+00 0. -1.
<scales pt_clust_5="13000.00000" pt_clust_6="13000.00000" pt_clust_7="13000.00000" pt_clust_8="13000.00000" pt_clust_9="35.39981"></scales>
<clustering>
<clus scale="   35.400">  2  9  1 -1</clus>
<clus scale="   77.664">  5  6 -1 -1</clus>
<clus scale="   89.903">  7  8 -1 -1</clus>
<clus scale="   92.836">  2  5  1 -1</clus>
<clus scale="   35.400">  2  5  1 -1</clus>
</clustering>
</event>
<event>
 9    1  0.6296820E-005  0.1856401E+03  0.7546771E-02  0.1171575E+00
          1   -1    0    0  502    0 -0.00000000000E+00  0.00000000000E+00  0.49431162567E+03  0.49431162567E+03  0.00000000000E+00 0. -1.
         21   -1    0    0  501  502  0.00000000000E+00 -0.00000000000E+00 -0.16877537443E+03  0.16877537443E+03  0.00000000000E+00 0. -1.
         23    2    1    2    0    0  0.71854728054E+02  0.96900165569E+02  0.13536064044E+03  0.20243004130E+03  0.90014857716E+02 0.  0.
        -24    2    1    2    0    0  0.11200077952E+03 -0.10148118030E+03  0.21612463833E+03  0.27492277941E+03  0.77653530348E+02 0.  0.
         13    1    4    4    0    0  0.12818098916E+02 -0.16038671165E+02 -0.18957047228E+01  0.20618834326E+02  0.00000000000E+00 0. -1.
        -14    1    4    4    0    0  0.99182680608E+02 -0.85442509139E+02  0.21802034305E+03  0.25430394509E+03  0.00000000000E+00 0.  1.
        -13    1    3    3    0    0 -0.16513295480E+02  0.14429464361E+02  0.13649677421E+01  0.21971834386E+02  0.00000000000E+00 0.  1.
         13    1    3    3    0    0  0.88368023534E+02  0.82470701208E+02  0.13399567270E+03  0.18045820691E+03  0.00000000000E+00 0. -1.
          2    1    1    2  501    0 -0.18385550758E+03  0.45810147347E+01 -0.25949027539E+02  0.18573417939E+03  0.00000000000E+00 0. -1.
<scales pt_clust_5="13000.00000" pt_clust_6="13000.00000" pt_clust_7="13000.00000" pt_clust_8="13000.00000" pt_clust_9="168.61844"></scales>
<clustering>
<clus scale="   77.654">  5  6 -1 -1</clus>
<clus scale="   90.015">  7  8 -1 -1</clus>
<clus scale="  150.517">  1  7  2 -1</clus>
<clus scale="  168.618">  2  9  1 -1</clus>
<clus scale="  168.618">  2  5  1 -1</clus>
</clustering>
</event>
<event>
 9    1  0.6296820E-005  0.9842851E+02  0.7546771E-02  0.1289353E+00
         21   -1    0    0  501  502  0.00000000000E+00  0.00000000000E+00  0.30401850627E+03  0.30401850627E+03  0.00000000000E+00 0.  1.
         -2   -1    0    0    0  501 -0.00000000000E+00 -0.00000000000E+00 -0.14411170514E+03  0.14411170514E+03  0.00000000000E+00 0.  1.
        -24    2    1    2    0    0 -0.15060066481E+02  0.29845398109E+02 -0.94003533348E+02  0.12821954045E+03  0.80535910511E+02 0.  0.
         23    2    1    2    0    0  0.50104350601E+01 -0.54416855891E+02  0.56244094325E+02  0.12046971697E+03  0.91450838677E+02 0.  0.
         11    1    3    3    0    0  0.31011493776E+02 -0.21477104961E+01 -0.32140116318E+02  0.44713672222E+02  0.00000000000E+00 0. -1.
        -12    1    3    3    0    0 -0.46071560257E+02  0.31993108605E+02 -0.61863417030E+02  0.83505868233E+02  0.00000000000E+00 0.  1.
        -11    1    4    4    0    0 -0.33624886820E+02  0.51075821574E+01  0.28142992975E+02  0.44144631188E+02  0.00000000000E+00 0.  1.
         11    1    4    4    0    0  0.38635321880E+02 -0.59524438049E+02  0.28101101350E+02  0.76325085777E+02  0.00000000000E+00 0. -1.
         -1    1    1    2    0  502  0.10049631421E+02  0.24571457783E+02  0.19766624015E+03  0.19944095398E+03  0.00000000000E+00 0.  1.
<scales pt_clust_5="13000.00000" pt_clust_6="13000.00000" pt_clust_7="13000.00000" pt_clust_8="13000.00000" pt_clust_9="26.54716"></scales>
<clustering>
<clus scale="   26.547">  1  9  2 -1</clus>
<clus scale="   80.536">  5  6 -1 -1</clus>
<clus scale="   88.380">  2  5  1 -1</clus>
<clus scale="   91.451">  7  8 -1 -1</clus>
<clus scale="   26.547">  1  5  2 -1</clus>
</clustering>
</event>
<event>
 9    1  0.6296820E-005  0.9728285E+02  0.7546771E-02  0.1288397E+00
          3   -1    0    0  502    0 -0.00000000000E+00  0.00000000000E+00  0.84577227581E+02  0.84577227581E+02  0.00000000000E+00 0. -1.
         21   -1    0    0  501  502  0.00000000000E+00 -0.00000000000E+00 -0.21022353560E+03  0.21022353560E+03  0.00000000000E+00 0. -1.
         23    2    1    2    0    0 -0.85163043515E+01 -0.47310406997E+02  0.14981276220E+01  0.10322008385E+03  0.91330932733E+02 0.  0.
        -24    2    1    2    0    0  0.66940644305E+01  0.13244416646E+02 -0.37864576633E+02  0.96005026145E+02  0.86965589808E+02 0.  0.
         13    1    4    4    0    0 -0.25121084481E+02 -0.16115759113E+02  0.99901647356E+01  0.31473639268E+02  0.00000000000E+00 0. -1.
        -14    1    4    4    0    0  0.31815148912E+02  0.29360175759E+02 -0.47854741369E+02  0.64531386877E+02  0.00000000000E+00 0.  1.
        -13    1    3    3    0    0  0.31600229242E+02 -0.19213395817E+02  0.29047331916E+02  0.47026338986E+02  0.00000000000E+00 0. -1.
         13    1    3    3    0    0 -0.40116533594E+02 -0.28097011180E+02 -0.27549204294E+02  0.56193744866E+02  0.00000000000E+00 0.  1.
          4    1    1    2  501    0  0.18222399211E+01  0.34065990352E+02 -0.89279859005E+02  0.95575653181E+02  0.00000000000E+00 0. -1.
<scales pt_clust_5="13000.00000" pt_clust_6="13000.00000" pt_clust_7="13000.00000" pt_clust_8="13000.00000" pt_clust_9="34.11469"></scales>
<clustering>
<clus scale="   34.115">  2  9  1 -1</clus>
<clus scale="   86.966">  5  6 -1 -1</clus>
<clus scale="   91.331">  7  8 -1 -1</clus>
<clus scale="   93.197">  2  5  1 -1</clus>
<clus scale="   34.115">  2  5  1 -1</clus>
</clustering>
</event>
<event>
 9    1  0.6296820E-005  0.1182265E+03  0.7546771E-02  0.1251138E+00
         21   -1    0    0  501  502  0.00000000000E+00  0.00000000000E+00  0.38417531727E+03  0.38417531727E+03  0.00000000000E+00 0.  1.
          1   -1    0    0  502    0 -0.00000000000E+00 -0.00000000000E+00 -0.64840828574E+02  0.64840828574E+02  0.00000000000E+00 0. -1.
        -24    2    1    2    0    0 -0.72535878229E+02 -0.28128064069E+02  0.24281194302E+02  0.11343427037E+03  0.78899402274E+02 0.  0.
         23    2    1    2    0    0  0.46803026304E+02  0.94611561275E+01  0.28237202219E+03  0.30135545607E+03  0.93814259259E+02 0.  0.
         13    1    3    3    0    0 -0.82522661387E+02 -0.30917907413E+02  0.12018389382E+01  0.88132576599E+02  0.00000000000E+00 0. -1.
        -14    1    3    3    0    0  0.99867831584E+01  0.27898433435E+01  0.23079355364E+02  0.25301693772E+02  0.00000000000E+00 0.  1.
        -11    1    4    4    0    0  0.62057991688E+02  0.37457283949E+02  0.21330259838E+03  0.22528258017E+03  0.00000000000E+00 0.  1.
         11    1    4    4    0    0 -0.15254965384E+02 -0.27996127821E+02  0.69069423811E+02  0.76072875898E+02  0.00000000000E+00 0. -1.
          2    1    1    2  501    0  0.25732851924E+02  0.18666907942E+02  0.12681272197E+02  0.34226419398E+02  0.00000000000E+00 0. -1.
<scales pt_clust_5="13000.00000" pt_clust_6="13000.00000" pt_clust_7="13000.00000" pt_clust_8="13000.00000" pt_clust_9="31.79047"></scales>
<clustering>
<clus scale="   31.790">  1  9  2 -1</clus>
<clus scale="   78.899">  5  6 -1 -1</clus>
<clus scale="   93.814">  7  8 -1 -1</clus>
<clus scale="  106.778">  2  5  1 -1</clus>
<clus scale="   31.790">  1  5  2 -1</clus>
</clustering>
</event>
<event>
 9    1  0.6296820E-005  0.1575650E+03  0.7546771E-02  0.1217005E+00
         21   -1    0    0  501  502  0.00000000000E+00  0.00000000000E+00  0.68862156198E+03  0.68862156198E+03  0.00000000000E+00 0. -1.
          3   -1    0    0  502    0 -0.00000000000E+00 -0.00000000000E+00 -0.22255163732E+03  0.22255163732E+03  0.00000000000E+00 0. -1.
         23    2    1    2    0    0 -0.89133865801E+01  0.12007664243E+02 -0.17656601308E+03  0.19856924572E+03  0.89613369041E+02 0.  0.
        -24    2    1    2    0    0 -0.11729518842E+03 -0.70303785254E+02  0.43745609123E+03  0.46476164173E+03  0.77037448159E+02 0.  0.
         11    1    4    4    0    0 -0.12337339372E+03 -0.45756055627E+02  0.37234259169E+03  0.39490963079E+03  0.00000000000E+00 0. -1.
        -12    1    4    4    0    0  0.60782052999E+01 -0.24547729626E+02  0.65113499545E+02  0.69852010941E+02  0.00000000000E+00 0.  1.
        -11    1    3    3    0    0  0.32454110147E+02 -0.20297374464E+02 -0.70200588435E+02  0.79958584856E+02  0.00000000000E+00 0.  1.
         11    1    3    3    0    0 -0.41367496727E+02  0.32305038706E+02 -0.10636542464E+03  0.11861066086E+03  0.00000000000E+00 0. -1.
          4    1    1    2  501    0  0.12620857500E+03  0.58296121011E+02  0.20517984650E+03  0.24784231185E+03  0.00000000000E+00 0. -1.
<scales pt_clust_5="13000.00000" pt_clust_6="13000.00000" pt_clust_7="13000.00000" pt_clust_8="13000.00000" pt_clust_9="137.44813"></scales>
<clustering>
<clus scale="   77.037">  5  6 -1 -1</clus>
<clus scale="   89.613">  7  8 -1 -1</clus>
<clus scale="   90.853">  2  7  1 -1</clus>
<clus scale="  137.448">  1  9  2 -1</clus>
<clus scale="  137.448">  1  5  2 -1</clus>
</clustering>
</event>
<event>
 9    1  0.6296820E-005  0.2340361E+03  0.7546771E-02  0.1124682E+00
         21   -1    0    0  501  502  0.00000000000E+00  0.00000000000E+00  0.30472808088E+03  0.30472808088E+03  0.00000000000E+00 0. -1.
          1   -1    0    0  502    0 -0.00000000000E+00 -0.00000000000E+00 -0.32562671240E+03  0.32562671240E+03  0.00000000000E+00 0. -1.
        -24    2    1    2    0    0 -0.21674329414E+03  0.58020746931E+02 -0.54438218227E+02  0.24467884928E+03  0.80994796469E+02 0.  0.
         23    2    1    2    0    0  0.17519025026E+03 -0.86956094008E+02  0.14655427613E+03  0.26183641157E+03  0.93952990912E+02 0.  0.
         13    1    3    3    0    0 -0.10528225951E+03  0.25623612894E+02 -0.67829783020E+02  0.12783506236E+03  0.00000000000E+00 0. -1.
        -14    1    3    3    0    0 -0.11146103463E+03  0.32397134037E+02  0.13391564792E+02  0.11684378692E+03  0.00000000000E+00 0.  1.
        -11    1    4    4    0    0  0.26876478596E+02 -0.11813969556E+01 -0.11010530026E+02  0.29068411927E+02  0.00000000000E+00 0.  1.
         11    1    4    4    0    0  0.14831377166E+03 -0.85774697052E+02  0.15756480616E+03  0.23276799964E+03  0.00000000000E+00 0. -1.
          2    1    1    2  501    0  0.41553043880E+02  0.28935347076E+02 -0.11301468942E+03  0.12383953243E+03  0.00000000000E+00 0. -1.
<scales pt_clust_5="13000.00000" pt_clust_6="13000.00000" pt_clust_7="13000.00000" pt_clust_8="13000.00000" pt_clust_9="50.63509"></scales>
<clustering>
<clus scale="   50.635">  1  9  2 -1</clus>
<clus scale="   80.995">  5  6 -1 -1</clus>
<clus scale="   93.953">  7  8 -1 -1</clus>
<clus scale="  229.142">  2  5  1 -1</clus>
<clus scale="   50.635">  1  5  2 -1</clus>
</clustering>
</event>
<event>
 9    1  0.6296820E-005  0.1010710E+03  0.7546771E-02  0.1283400E+00
          1   -1    0    0  502    0 -0.00000000000E+00  0.00000000000E+00  0.55522690931E+03  0.55522690931E+03  0.00000000000E+00 0. -1.
         21   -1    0    0  501  502  0.00000000000E+00 -0.00000000000E+00 -0.34704293027E+02  0.34704293027E+02  0.00000000000E+00 0.  1.
         23    2    1    2    0    0  0.41414159316E+00 -0.37077163734E+02  0.32372828843E+03  0.33866503716E+03  0.92299052440E+02 0.  0.
        -24    2    1    2    0    0  0.45135528797E+02  0.47031174784E+02  0.10356148987E+03  0.14702501741E+03  0.81499853986E+02 0.  0.
         11    1    4    4    0    0  0.47789913427E+02  0.51785818290E+01  0.91549150975E+02  0.10340184031E+03  0.00000000000E+00 0. -1.
        -12    1    4    4    0    0 -0.26543846300E+01  0.41852592955E+02  0.12012338894E+02  0.43623177103E+02  0.00000000000E+00 0.  1.
        -13    1    3    3    0    0 -0.35216789373E+02  0.12981498478E+02  0.10683669062E+03  0.11323789127E+03  0.00000000000E+00 0.  1.
         13    1    3    3    0    0  0.35630930967E+02 -0.50058662213E+02  0.21689159781E+03  0.22542714589E+03  0.00000000000E+00 0. -1.
          2    1    1    2  501    0 -0.45549670390E+02 -0.99540110498E+01  0.93232837983E+02  0.10424114776E+03  0.00000000000E+00 0. -1.
<scales pt_clust_5="13000.00000" pt_clust_6="13000.00000" pt_clust_7="13000.00000" pt_clust_8="13000.00000" pt_clust_9="46.62464"></scales>
<clustering>
<clus scale="   46.625">  2  9  1 -1</clus>
<clus scale="   81.500">  5  6 -1 -1</clus>
<clus scale="   91.315">  2  5  1 -1</clus>
<clus scale="   92.299">  7  8 -1 -1</clus>
<clus scale="   46.625">  2  5  1 -1</clus>
</clustering>
</event>
<event>
 9    1  0.6296820E-005  0.2113121E+03  0.7546771E-02  0.1170109E+00
         21   -1    0    0  501  502  0.00000000000E+00  0.00000000000E+00  0.21307723951E+03  0.21307723951E+03  0.00000000000E+00 0. -1.
          3   -1    0    0  502    0 -0.00000000000E+00 -0.00000000000E+00 -0.42921803034E+03  0.42921803034E+03  0.00000000000E+00 0. -1.
         23    2    1    2    0    0  0.57949211118E+02 -0.22197738409E+02 -0.20430687452E+03  0.22995112792E+03  0.85354388248E+02 0.  0.
        -24    2    1    2    0    0  0.14924315682E+03 -0.70574240394E+02 -0.23949753428E+02  0.18500714342E+03  0.79998807243E+02 0.  0.
         13    1    4    4    0    0  0.15785085473E+03 -0.63884428793E+02 -0.29418393905E+02  0.17281074759E+03  0.00000000000E+00 0. -1.
        -14    1    4    4    0    0 -0.86076979091E+01 -0.66898116012E+01  0.54686404769E+01  0.12196395829E+02  0.00000000000E+00 0.  1.
        -13    1    3    3    0    0  0.65150819418E+02 -0.42818596981E+02 -0.18516450352E+03  0.20090782683E+03  0.00000000000E+00 0. -1.
         13    1    3    3    0    0 -0.72016082997E+01  0.20620858572E+02 -0.19142371004E+02  0.29043301086E+02  0.00000000000E+00 0.  1.
          4    1    1    2  501    0 -0.20719236794E+03  0.92771978803E+02  0.12115837128E+02  0.22733699852E+03  0.00000000000E+00 0. -1.
<scales pt_clust_5="13000.00000" pt_clust_6="13000.00000" pt_clust_7="13000.00000" pt_clust_8="13000.00000" pt_clust_9="195.58380"></scales>
<clustering>
<clus scale="   79.999">  5  6 -1 -1</clus>
<clus scale="   85.354">  7  8 -1 -1</clus>
<clus scale="  105.528">  2  7  1 -1</clus>
<clus scale="  195.584">  1  9  2 -1</clus>
<clus scale="  195.584">  1  5  2 -1</clus>
</clustering>
</event>
<event>
 9    1  0.6296820E-005  0.1344507E+03  0.7546771E-02  0.1239596E+00
         -2   -1    0    0    0  501 -0.00000000000E+00  0.00000000000E+00  0.15797040847E+03  0.15797040847E+03  0.00000000000E+00 0.  1.
         21   -1    0    0  501  502  0.00000000000E+00 -0.00000000000E+00 -0.26570193851E+03  0.26570193851E+03  0.00000000000E+00 0.  1.
        -24    2    1    2    0    0 -0.39913127791E+02 -0.16442635391E+02  0.24169474518E+02  0.94724616654E+02  0.80778533492E+02 0.  0.
         23    2    1    2    0    0  0.46477969857E+02 -0.79578550503E+02 -0.17703363366E+03  0.22264571011E+03  0.98677542540E+02 0.  0.
         13    1    3    3    0    0 -0.55983900894E+02  0.13063553893E+02  0.10436480718E+02  0.58427508327E+02  0.00000000000E+00 0. -1.
        -14    1    3    3    0    0  0.16070773102E+02 -0.29506189283E+02  0.13732993800E+02  0.36297108326E+02  0.00000000000E+00 0.  1.
        -11    1    4    4    0    0  0.22620578339E+02 -0.39056251967E+02 -0.63204081069E+01  0.45574432973E+02  0.00000000000E+00 0.  1.
         11    1    4    4    0    0  0.23857391518E+02 -0.40522298535E+02 -0.17071322555E+03  0.17707127714E+03  0.00000000000E+00 0. -1.
         -1    1    1    2    0  502 -0.65648420657E+01  0.96021185893E+02  0.45132629105E+02  0.10630202021E+03  0.00000000000E+00 0.  1.
<scales pt_clust_5="13000.00000" pt_clust_6="13000.00000" pt_clust_7="13000.00000" pt_clust_8="13000.00000" pt_clust_9="91.32223"></scales>
<clustering>
<clus scale="   80.779">  5  6 -1 -1</clus>
<clus scale="   91.589">  1  5  2 -1</clus>
<clus scale="   91.322">  2  9  1 -1</clus>
<clus scale="   98.678">  7  8 -1 -1</clus>
<clus scale="   91.322">  2  5  1 -1</clus>
</clustering>
</event>
<event>
 9    1  0.6296820E-005  0.1192482E+03  0.7546771E-02  0.1247633E+00
          1   -1    0    0  502    0 -0.00000000000E+00  0.00000000000E+00  0.31921624886E+03  0.31921624886E+03  0.00000000000E+00 0. -1.
         21   -1    0    0  501  502  0.00000000000E+00 -0.00000000000E+00 -0.99335186469E+02  0.99335186469E+02  0.00000000000E+00 0. -1.
         23    2    1    2    0    0 -0.50015233806E+02  0.22213208817E+02  0.14113328015E+02  0.10757150051E+03  0.91528637242E+02 0.  0.
        -24    2    1    2    0    0  0.10249804245E+03  0.11991135181E+02  0.45739359980E+02  0.13912690761E+03  0.81330015001E+02 0.  0.
         13    1    4    4    0    0  0.11362038270E+03  0.22449724167E+02  0.43399346351E+02  0.12368138398E+03  0.00000000000E+00 0. -1.
        -14    1    4    4    0    0 -0.11122340252E+02 -0.10458588986E+02  0.23400136287E+01  0.15445523625E+02  0.00000000000E+00 0.  1.
        -11    1    3    3    0    0  0.18071089623E+02  0.31729305071E+02 -0.32670434526E+01  0.36660423529E+02  0.00000000000E+00 0.  1.
         11    1    3    3    0    0 -0.68086323429E+02 -0.95160962543E+01  0.17380371468E+02  0.70911076979E+02  0.00000000000E+00 0. -1.
          2    1    1    2  501    0 -0.52482808641E+02 -0.34204343998E+02  0.16002837439E+03  0.17185302721E+03  0.00000000000E+00 0. -1.
<scales pt_clust_5="13000.00000" pt_clust_6="13000.00000" pt_clust_7="13000.00000" pt_clust_8="13000.00000" pt_clust_9="62.64492"></scales>
<clustering>
<clus scale="   62.645">  2  9  1 -1</clus>
<clus scale="   81.330">  5  6 -1 -1</clus>
<clus scale="   91.529">  7  8 -1 -1</clus>
<clus scale="  111.612">  2  5  1 -1</clus>
<clus scale="   62.645">  2  5  1 -1</clus>
</clustering>
</event>
<event>
 9    1  0.6296820E-005  0.9150320E+02  0.7546771E-02  0.1306356E+00
          1   -1    0    0  502    0 -0.00000000000E+00  0.00000000000E+00  0.26017178908E+03  0.26017178908E+03  0.00000000000E+00 0. -1.
         21   -1    0    0  501  502  0.00000000000E+00 -0.00000000000E+00 -0.67324202186E+02  0.67324202186E+02  0.00000000000E+00 0.  1.
         23    2    1    2    0    0 -0.82031811238E+00 -0.17440230946E+01  0.19762385568E+03  0.21772224359E+03  0.91345894718E+02 0.  0.
        -24    2    1    2    0    0  0.24353875113E+02 -0.73660125347E+01  0.59336054520E-01  0.84079309973E+02  0.80137116688E+02 0.  0.
         13    1    4    4    0    0 -0.27709019982E+02  0.66283194020E+01  0.79857973517E+01  0.29588804738E+02  0.00000000000E+00 0. -1.
        -14    1    4    4    0    0  0.52062895096E+02 -0.13994331937E+02 -0.79264612971E+01  0.54490505235E+02  0.00000000000E+00 0.  1.
        -11    1    3    3    0    0 -0.26271584863E+02  0.26666797065E+02  0.15934573898E+03  0.16368377674E+03  0.00000000000E+00 0.  1.
         11    1    3    3    0    0  0.25451266751E+02 -0.28410820159E+02  0.38278116699E+02  0.54038466849E+02  0.00000000000E+00 0. -1.
          2    1    1    2  501    0 -0.23533557001E+02  0.91100356294E+01 -0.48356048470E+01  0.25694437696E+02  0.00000000000E+00 0. -1.
<scales pt_clust_5="13000.00000" pt_clust_6="13000.00000" pt_clust_7="13000.00000" pt_clust_8="13000.00000" pt_clust_9="25.23531"></scales>
<clustering>
<clus scale="   25.235">  2  9  1 -1</clus>
<clus scale="   80.137">  5  6 -1 -1</clus>
<clus scale="   80.316">  2  5  1 -1</clus>
<clus scale="   91.346">  7  8 -1 -1</clus>
<clus scale="   25.235">  2  5  1 -1</clus>
</clustering>
</event>
<event>
 9    1  0.6296820E-005  0.1093577E+03  0.7546771E-02  0.1286892E+00
          1   -1    0    0  502    0 -0.00000000000E+00  0.00000000000E+00  0.68988768960E+02  0.68988768960E+02  0.00000000000E+00 0. -1.
         21   -1    0    0  501  502  0.00000000000E+00 -0.00000000000E+00 -0.27417543529E+03  0.27417543529E+03  0.00000000000E+00 0.  1.
         23    2    1    2    0    0  0.61921896666E+01  0.98616023201E+01 -0.36981155475E+01  0.67592745129E+02  0.66479385695E+02 0.  0.
        -24    2    1    2    0    0  0.39524578266E+02 -0.63795174087E+02 -0.15639107418E+03  0.19171064926E+03  0.81625905417E+02 0.  0.
         13    1    4    4    0    0 -0.20285257998E+02 -0.21092420104E+02 -0.16258856324E+02  0.33477339901E+02  0.00000000000E+00 0. -1.
        -14    1    4    4    0    0  0.59809836264E+02 -0.42702753983E+02 -0.14013221785E+03  0.15823330936E+03  0.00000000000E+00 0.  1.
        -13    1    3    3    0    0  0.26962905984E+02  0.26661731590E+02 -0.11738734587E+02  0.39694383988E+02  0.00000000000E+00 0.  1.
         13    1    3    3    0    0 -0.20770716318E+02 -0.16800129269E+02  0.80406190399E+01  0.27898361141E+02  0.00000000000E+00 0. -1.
          2    1    1    2  501    0 -0.45716767933E+02  0.53933571766E+02 -0.45097476608E+02  0.83860809858E+02  0.00000000000E+00 0. -1.
<scales pt_clust_5="13000.00000" pt_clust_6="13000.00000" pt_clust_7="13000.00000" pt_clust_8="13000.00000" pt_clust_9="72.77590"></scales>
<clustering>
<clus scale="   66.479">  7  8 -1 -1</clus>
<clus scale="   67.492">  1  7  2 -1</clus>
<clus scale="   72.776">  2  9  1 -1</clus>
<clus scale="   81.626">  5  6 -1 -1</clus>
<clus scale="   72.776">  2  5  1 -1</clus>
</clustering>
</event>
<event>
 9    1  0.6296820E-005  0.9441240E+02  0.7546771E-02  0.1298584E+00
         21   -1    0    0  501  502  0.00000000000E+00  0.00000000000E+00  0.67029472049E+02  0.67029472049E+02  0.00000000000E+00 0. -1.
          1   -1    0    0  502    0 -0.00000000000E+00 -0.00000000000E+00 -0.27017872294E+03  0.27017872294E+03  0.00000000000E+00 0. -1.
        -24    2    1    2    0    0  0.35360728919E+02  0.13642257994E+02 -0.15859577375E+03  0.18141165271E+03  0.79505194387E+02 0.  0.
         23    2    1    2    0    0 -0.94343433803E+01 -0.17930956901E+01 -0.72359349929E+02  0.11597510739E+03  0.90122849407E+02 0.  0.
         11    1    3    3    0    0  0.20550531245E+02  0.32171688838E+02 -0.15209976405E+03  0.15681734637E+03  0.00000000000E+00 0. -1.
        -12    1    3    3    0    0  0.14810197674E+02 -0.18529430844E+02 -0.64960097014E+01  0.24594306345E+02  0.00000000000E+00 0.  1.
        -13    1    4    4    0    0 -0.42024292571E+02 -0.10928629125E+02 -0.69576905797E+02  0.82014766482E+02  0.00000000000E+00 0.  1.
         13    1    4    4    0    0  0.32589949191E+02  0.91355334351E+01 -0.27824441316E+01  0.33960340911E+02  0.00000000000E+00 0. -1.
          2    1    1    2  501    0 -0.25926385539E+02 -0.11849162304E+02  0.27805872793E+02  0.39821434884E+02  0.00000000000E+00 0. -1.
<scales pt_clust_5="13000.00000" pt_clust_6="13000.00000" pt_clust_7="13000.00000" pt_clust_8="13000.00000" pt_clust_9="28.50579"></scales>
<clustering>
<clus scale="   28.506">  1  9  2 -1</clus>
<clus scale="   79.505">  5  6 -1 -1</clus>
<clus scale="   84.337">  2  5  1 -1</clus>
<clus scale="   90.123">  7  8 -1 -1</clus>
<clus scale="   28.506">  1  5  2 -1</clus>
</clustering>
</event>
<event>
 9    1  0.6296820E-005  0.8713028E+02  0.7546771E-02  0.1313093E+00
          1   -1    0    0  502    0 -0.00000000000E+00  0.00000000000E+00  0.22249916965E+03  0.22249916965E+03  0.00000000000E+00 0. -1.
         21   -1    0    0  501  502  0.00000000000E+00 -0.00000000000E+00 -0.56371633136E+02  0.56371633136E+02  0.00000000000E+00 0.  1.
         23    2    1    2    0    0  0.53775423081E+00  0.69127487021E+01  0.97698163295E+02  0.12966718114E+03  0.84973945878E+02 0.  0.
        -24    2    1    2    0    0 -0.56890416921E+01 -0.43985288724E+02  0.31890187028E+02  0.96896632505E+02  0.80030635025E+02 0.  0.
         11    1    4    4    0    0  0.22827193366E+02  0.84165741049E+01  0.28026213841E+02  0.37113180123E+02  0.00000000000E+00 0. -1.
        -12    1    4    4    0    0 -0.28516235058E+02 -0.52401862829E+02  0.38639731879E+01  0.59783452381E+02  0.00000000000E+00 0.  1.
        -13    1    3    3    0    0 -0.31138137713E+02 -0.20813251398E+02  0.69653319020E+02  0.79084511154E+02  0.00000000000E+00 0.  1.
         13    1    3    3    0    0  0.31675891944E+02  0.27726000100E+02  0.28044844276E+02  0.50582669981E+02  0.00000000000E+00 0. -1.
          2    1    1    2  501    0  0.51512874613E+01  0.37072540022E+02  0.36539186193E+02  0.52306989149E+02  0.00000000000E+00 0. -1.
<scales pt_clust_5="13000.00000" pt_clust_6="13000.00000" pt_clust_7="13000.00000" pt_clust_8="13000.00000" pt_clust_9="37.42874"></scales>
<clustering>
<clus scale="   37.429">  2  9  1 -1</clus>
<clus scale="   80.031">  5  6 -1 -1</clus>
<clus scale="   82.317">  2  5  1 -1</clus>
<clus scale="   84.974">  7  8 -1 -1</clus>
<clus scale="   37.429">  2  5  1 -1</clus>
</clustering>
</event>
<event>
 9    1  0.6296820E-005  0.9501321E+02  0.7546771E-02  0.1296066E+00
          1   -1    0    0  502    0 -0.00000000000E+00  0.00000000000E+00  0.37785903605E+03  0.37785903605E+03  0.00000000000E+00 0. -1.
         21   -1    0    0  501  502  0.00000000000E+00 -0.00000000000E+00 -0.12808145794E+03  0.12808145794E+03  0.00000000000E+00 0.  1.
         23    2    1    2    0    0 -0.22154138193E+02  0.25850479190E+02  0.21013975607E+03  0.23163710541E+03  0.91312531504E+02 0.  0.
        -24    2    1    2    0    0 -0.14640865569E+02  0.52648349079E+02 -0.79834451136E+02  0.12669050838E+03  0.81796954222E+02 0.  0.
         13    1    4    4    0    0 -0.26757740637E+01  0.64067654448E+02 -0.24016278372E+02  0.68473394397E+02  0.00000000000E+00 0. -1.
        -14    1    4    4    0    0 -0.11965091505E+02 -0.11419305369E+02 -0.55818172764E+02  0.58217113983E+02  0.00000000000E+00 0.  1.
        -13    1    3    3    0    0 -0.53128215950E+02  0.36584249029E+02  0.14559726629E+03  0.15924691067E+03  0.00000000000E+00 0.  1.
         13    1    3    3    0    0  0.30974077757E+02 -0.10733769838E+02  0.64542489784E+02  0.72390194746E+02  0.00000000000E+00 0. -1.
          2    1    1    2  501    0  0.36795003761E+02 -0.78498828270E+02  0.11947227317E+03  0.14761288019E+03  0.00000000000E+00 0. -1.
<scales pt_clust_5="13000.00000" pt_clust_6="13000.00000" pt_clust_7="13000.00000" pt_clust_8="13000.00000" pt_clust_9="86.69455"></scales>
<clustering>
<clus scale="   81.797">  5  6 -1 -1</clus>
<clus scale="   86.695">  2  9  1 -1</clus>
<clus scale="   86.695">  2  5  1 -1</clus>
<clus scale="   91.313">  7  8 -1 -1</clus>
<clus scale="   86.695">  2  5  1 -1</clus>
</clustering>
</event>
<event>
 9    1  0.6296820E-005  0.1524668E+03  0.7546771E-02  0.1218904E+00
         21   -1    0    0  501  502  0.00000000000E+00  0.00000000000E+00  0.19571835297E+03  0.19571835297E+03  0.00000000000E+00 0.  1.
         -2   -1    0    0    0  501 -0.00000000000E+00 -0.00000000000E+00 -0.22626961741E+03  0.22626961741E+03  0.00000000000E+00 0.  1.
         23    2    1    2    0    0  0.33611900468E+02 -0.16866973955E+01 -0.79583408299E+02  0.12496074826E+03  0.90272171395E+02 0.  0.
        -24    2    1    2    0    0 -0.10823615723E+03 -0.95965798119E+02  0.17793371764E+01  0.16535483581E+03  0.80090920489E+02 0.  0.
         13    1    4    4    0    0 -0.19114628991E+02  0.13830562082E+02  0.39633714864E+01  0.23924084152E+02  0.00000000000E+00 0. -1.
        -14    1    4    4    0    0 -0.89121528235E+02 -0.10979636020E+03 -0.21840343100E+01  0.14143075166E+03  0.00000000000E+00 0.  1.
        -13    1    3    3    0    0  0.49520875123E+02  0.29326339900E+02 -0.31611314766E+02  0.65662976677E+02  0.00000000000E+00 0.  1.
         13    1    3    3    0    0 -0.15908974655E+02 -0.31013037295E+02 -0.47972093533E+02  0.59297771584E+02  0.00000000000E+00 0. -1.
         -1    1    1    2    0  502  0.74624256759E+02  0.97652495515E+02  0.47252806682E+02  0.13167238631E+03  0.00000000000E+00 0.  1.
<scales pt_clust_5="13000.00000" pt_clust_6="13000.00000" pt_clust_7="13000.00000" pt_clust_8="13000.00000" pt_clust_9="129.73651"></scales>
<clustering>
<clus scale="   80.091">  5  6 -1 -1</clus>
<clus scale="   90.272">  7  8 -1 -1</clus>
<clus scale="   96.341">  2  7  1 -1</clus>
<clus scale="  129.737">  1  9  2 -1</clus>
<clus scale="  129.737">  1  5  2 -1</clus>
</clustering>
</event>
<event>
 9    1  0.6296820E-005  0.1246461E+03  0.7546771E-02  0.1237857E+00
         21   -1    0    0  501  502  0.00000000000E+00  0.00000000000E+00  0.33555552266E+03  0.33555552266E+03  0.00000000000E+00 0. -1.
         -2   -1    0    0    0  501 -0.00000000000E+00 -0.00000000000E+00 -0.11484917315E+03  0.11484917315E+03  0.00000000000E+00 0.  1.
        -24    2    1    2    0    0  0.80054201946E+02 -0.55356387300E+02 -0.34936656805E+02  0.13215119316E+03  0.82282215578E+02 0.  0.
         23    2    1    2    0    0 -0.54889247643E+02  0.30461507678E+02  0.72248151143E+02  0.13147367810E+03  0.90137670992E+02 0.  0.
         13    1    3    3    0    0  0.82872886125E+02 -0.43158870627E+02  0.16808269069E+01  0.93452814551E+02  0.00000000000E+00 0. -1.
        -14    1    3    3    0    0 -0.28186841785E+01 -0.12197516673E+02 -0.36617483711E+02  0.38698378607E+02  0.00000000000E+00 0.  1.
        -13    1    4    4    0    0 -0.18789701159E+02  0.26350117481E+02  0.86568733487E+02  0.92420382917E+02  0.00000000000E+00 0.  1.
         13    1    4    4    0    0 -0.36099546484E+02  0.41113901968E+01 -0.14320582345E+02  0.39053295179E+02  0.00000000000E+00 0. -1.
         -1    1    1    2    0  502 -0.25164954303E+02  0.24894879622E+02  0.18339485518E+03  0.18677982456E+03  0.00000000000E+00 0.  1.
<scales pt_clust_5="13000.00000" pt_clust_6="13000.00000" pt_clust_7="13000.00000" pt_clust_8="13000.00000" pt_clust_9="35.39816"></scales>
<clustering>
<clus scale="   35.398">  1  9  2 -1</clus>
<clus scale="   82.282">  5  6 -1 -1</clus>
<clus scale="   90.138">  7  8 -1 -1</clus>
<clus scale="  119.089">  2  5  1 -1</clus>
<clus scale="   35.398">  1  5  2 -1</clus>
</clustering>
</event>
<event>
 9    1  0.6296820E-005  0.1066508E+03  0.7546771E-02  0.1272423E+00
          1   -1    0    0  502    0 -0.00000000000E+00  0.00000000000E+00  0.23533125372E+03  0.23533125372E+03  0.00000000000E+00 0. -1.
         21   -1    0    0  501  502  0.00000000000E+00 -0.00000000000E+00 -0.13749960157E+03  0.13749960157E+03  0.00000000000E+00 0. -1.
         23    2    1    2    0    0 -0.31038077658E+02  0.27896881838E+02  0.12576179090E+03  0.16151287285E+03  0.92351403688E+02 0.  0.
        -24    2    1    2    0    0  0.50263824014E+02 -0.56860110769E+02  0.53837706899E+02  0.12246710437E+03  0.79625176719E+02 0.  0.
         11    1    4    4    0    0  0.47754989237E+02  0.16240386355E+01  0.40001753205E+02  0.62316263993E+02  0.00000000000E+00 0. -1.
        -12    1    4    4    0    0  0.25088347763E+01 -0.58484149404E+02  0.13835953694E+02  0.60150840377E+02  0.00000000000E+00 0.  1.
        -11    1    3    3    0    0  0.19558394458E+02  0.22717664618E+02  0.10020347636E+03  0.10459139427E+03  0.00000000000E+00 0. -1.
         11    1    3    3    0    0 -0.50596472115E+02  0.51792172205E+01  0.25558314538E+02  0.56921478579E+02  0.00000000000E+00 0.  1.
          2    1    1    2  501    0 -0.19225746356E+02  0.28963228931E+02 -0.81767845652E+02  0.88850878080E+02  0.00000000000E+00 0. -1.
<scales pt_clust_5="13000.00000" pt_clust_6="13000.00000" pt_clust_7="13000.00000" pt_clust_8="13000.00000" pt_clust_9="34.76346"></scales>
<clustering>
<clus scale="   34.763">  2  9  1 -1</clus>
<clus scale="   79.625">  5  6 -1 -1</clus>
<clus scale="   92.351">  7  8 -1 -1</clus>
<clus scale="   95.843">  2  5  1 -1</clus>
<clus scale="   34.763">  2  5  1 -1</clus>
</clustering>
</event>
<event>
 9    1  0.6296820E-005  0.1172185E+03  0.7546771E-02  0.1251588E+00
         21   -1    0    0  501  502  0.00000000000E+00  0.00000000000E+00  0.48745455855E+02  0.48745455855E+02  0.00000000000E+00 0. -1.
          1   -1    0    0  502    0 -0.00000000000E+00 -0.00000000000E+00 -0.37480824825E+03  0.37480824825E+03  0.00000000000E+00 0. -1.
         23    2    1    2    0    0  0.76218812365E+02  0.12836751564E+02 -0.23331244861E+03  0.26271688647E+03  0.92797490323E+02 0.  0.
        -24    2    1    2    0    0 -0.58076125973E+02 -0.26963358803E+02 -0.90628172362E+02  0.13774522365E+03  0.81611407817E+02 0.  0.
         11    1    4    4    0    0 -0.48799926110E+02 -0.52519261570E+02 -0.82651303138E+02  0.10941180711E+03  0.00000000000E+00 0. -1.
        -12    1    4    4    0    0 -0.92761998632E+01  0.25555902767E+02 -0.79768692235E+01  0.28333416538E+02  0.00000000000E+00 0.  1.
        -11    1    3    3    0    0  0.79372540872E+02  0.36652627380E+02 -0.21623957987E+03  0.23324444525E+03  0.00000000000E+00 0. -1.
         11    1    3    3    0    0 -0.31537285063E+01 -0.23815875816E+02 -0.17072868743E+02  0.29472441220E+02  0.00000000000E+00 0.  1.
          2    1    1    2  501    0 -0.18142686392E+02  0.14126607239E+02 -0.21221714278E+01  0.23091593994E+02  0.00000000000E+00 0. -1.
<scales pt_clust_5="13000.00000" pt_clust_6="13000.00000" pt_clust_7="13000.00000" pt_clust_8="13000.00000" pt_clust_9="22.99387"></scales>
<clustering>
<clus scale="   22.994">  1  9  2 -1</clus>
<clus scale="   81.611">  5  6 -1 -1</clus>
<clus scale="   92.797">  7  8 -1 -1</clus>
<clus scale="  108.578">  1  5  2 -1</clus>
<clus scale="   22.994">  1  5  2 -1</clus>
</clustering>
</event>
<event>
 9    1  0.6296820E-005  0.9432284E+02  0.7546771E-02  0.1299621E+00
          3   -1    0    0  502    0 -0.00000000000E+00  0.00000000000E+00  0.34401745997E+02  0.34401745997E+02  0.00000000000E+00 0. -1.
         21   -1    0    0  501  502  0.00000000000E+00 -0.00000000000E+00 -0.47588949848E+03  0.47588949848E+03  0.00000000000E+00 0.  1.
         23    2    1    2    0    0  0.28011218553E+02  0.28762518686E+02 -0.16622645770E+03  0.19322615955E+03  0.89962229028E+02 0.  0.
        -24    2    1    2    0    0 -0.25192411304E+02  0.18849406214E+02 -0.24857254119E+03  0.26241043612E+03  0.77980581233E+02 0.  0.
         11    1    4    4    0    0 -0.31309005799E+02 -0.17434309558E+02 -0.56947733627E+02  0.67284867237E+02  0.00000000000E+00 0. -1.
        -12    1    4    4    0    0  0.61165944951E+01  0.36283715772E+02 -0.19162480756E+03  0.19512556888E+03  0.00000000000E+00 0.  1.
        -13    1    3    3    0    0 -0.27301559282E+02  0.33069763247E+02 -0.77803937881E+02  0.88839389520E+02  0.00000000000E+00 0.  1.
         13    1    3    3    0    0  0.55312777835E+02 -0.43072445616E+01 -0.88422519816E+02  0.10438677003E+03  0.00000000000E+00 0. -1.
          4    1    1    2  501    0 -0.28188072488E+01 -0.47611924900E+02 -0.26688753594E+02  0.54654648799E+02  0.00000000000E+00 0. -1.
<scales pt_clust_5="13000.00000" pt_clust_6="13000.00000" pt_clust_7="13000.00000" pt_clust_8="13000.00000" pt_clust_9="47.69532"></scales>
<clustering>
<clus scale="   47.695">  2  9  1 -1</clus>
<clus scale="   77.981">  5  6 -1 -1</clus>
<clus scale="   82.973">  2  5  1 -1</clus>
<clus scale="   89.962">  7  8 -1 -1</clus>
<clus scale="   47.695">  2  5  1 -1</clus>
</clustering>
</event>
<event>
 9    1  0.6296820E-005  0.1640258E+03  0.7546771E-02  0.1185676E+00
         -2   -1    0    0    0  501 -0.00000000000E+00  0.00000000000E+00  0.74583612689E+03  0.74583612689E+03  0.00000000000E+00 0.  1.
         21   -1    0    0  501  502  0.00000000000E+00 -0.00000000000E+00 -0.81971274556E+02  0.81971274556E+02  0.00000000000E+00 0.  1.
        -24    2    1    2    0    0  0.13915747510E+03 -0.75607382783E+02  0.58026461064E+03  0.60684955520E+03  0.80486552108E+02 0.  0.
         23    2    1    2    0    0 -0.56043220451E+02  0.50449239562E+02  0.49205690762E+02  0.12755604418E+03  0.90351403263E+02 0.  0.
         13    1    3    3    0    0  0.82532526694E+01 -0.21833619706E+02  0.26619737871E+02  0.35403863820E+02  0.00000000000E+00 0. -1.
        -14    1    3    3    0    0  0.13090422243E+03 -0.53773763076E+02  0.55364487277E+03  0.57144569138E+03  0.00000000000E+00 0.  1.
        -11    1    4    4    0    0 -0.43001352436E+02  0.65955597925E+02  0.64812889673E+02  0.10198023277E+03  0.00000000000E+00 0. -1.
         11    1    4    4    0    0 -0.13041868015E+02 -0.15506358363E+02 -0.15607198911E+02  0.25575811402E+02  0.00000000000E+00 0.  1.
         -1    1    1    2    0  502 -0.83114254653E+02  0.25158143220E+02  0.34394550930E+02  0.93401802073E+02  0.00000000000E+00 0.  1.
<scales pt_clust_5="13000.00000" pt_clust_6="13000.00000" pt_clust_7="13000.00000" pt_clust_8="13000.00000" pt_clust_9="86.83842"></scales>
<clustering>
<clus scale="   80.487">  5  6 -1 -1</clus>
<clus scale="   86.838">  2  9  1 -1</clus>
<clus scale="   90.351">  7  8 -1 -1</clus>
<clus scale="  158.805">  1  5  2 -1</clus>
<clus scale="   86.838">  2  5  1 -1</clus>
</clustering>
</event>
<event>
 9    1  0.6296820E-005  0.9556683E+02  0.7546771E-02  0.1297922E+00
         21   -1    0    0  501  502  0.00000000000E+00  0.00000000000E+00  0.16145558389E+03  0.16145558389E+03  0.00000000000E+00 0.  1.
         -2   -1    0    0    0  501 -0.00000000000E+00 -0.00000000000E+00 -0.13972278567E+03  0.13972278567E+03  0.00000000000E+00 0.  1.
        -24    2    1    2    0    0 -0.54067569237E+01  0.33213425490E+02 -0.34354783934E+02  0.93628959666E+02  0.80335336284E+02 0.  0.
         23    2    1    2    0    0  0.25148188669E+02  0.16147056716E+02 -0.32930471214E+02  0.10386529754E+03  0.93863865596E+02 0.  0.
         11    1    3    3    0    0 -0.42424747715E+02  0.16623689236E+02 -0.25099761525E+02  0.52021190789E+02  0.00000000000E+00 0. -1.
        -12    1    3    3    0    0  0.37017990791E+02  0.16589736253E+02 -0.92550224090E+01  0.41607768877E+02  0.00000000000E+00 0.  1.
        -11    1    4    4    0    0  0.50535005898E+02 -0.11279087136E+02 -0.40497466279E+02  0.65734689493E+02  0.00000000000E+00 0. -1.
         11    1    4    4    0    0 -0.25386817230E+02  0.27426143852E+02  0.75669950643E+01  0.38130608046E+02  0.00000000000E+00 0.  1.
         -1    1    1    2    0  502 -0.19741431745E+02 -0.49360482206E+02  0.89018053364E+02  0.10368411236E+03  0.00000000000E+00 0.  1.
<scales pt_clust_5="13000.00000" pt_clust_6="13000.00000" pt_clust_7="13000.00000" pt_clust_8="13000.00000" pt_clust_9="53.16184"></scales>
<clustering>
<clus scale="   53.162">  1  9  2 -1</clus>
<clus scale="   80.335">  5  6 -1 -1</clus>
<clus scale="   82.319">  2  5  1 -1</clus>
<clus scale="   93.864">  7  8 -1 -1</clus>
<clus scale="   53.162">  1  5  2 -1</clus>
</clustering>
</event>
<event>
 9    1  0.6296820E-005  0.1006949E+03  0.7546771E-02  0.1283671E+00
          1   -1    0    0  502    0 -0.00000000000E+00  0.00000000000E+00  0.58800383765E+02  0.58800383765E+02  0.00000000000E+00 0. -1.
         21   -1    0    0  501  502  0.00000000000E+00 -0.00000000000E+00 -0.34210301851E+03  0.34210301851E+03  0.00000000000E+00 0. -1.
         23    2    1    2    0    0  0.42427015178E+02  0.31856757311E+02 -0.55751805365E+02  0.11898014229E+03  0.90736463749E+02 0.  0.
        -24    2    1    2    0    0 -0.44560664803E+02  0.34799348300E+02 -0.11955523184E+03  0.15499557206E+03  0.80830232009E+02 0.  0.
         11    1    4    4    0    0 -0.67035002666E+02  0.33703868054E+02 -0.10106439724E+03  0.12587158017E+03  0.00000000000E+00 0. -1.
        -12    1    4    4    0    0  0.22474337863E+02  0.10954802460E+01 -0.18490834603E+02  0.29123991890E+02  0.00000000000E+00 0.  1.
        -11    1    3    3    0    0  0.39496144031E+02  0.16640070203E+01  0.14778333930E+02  0.42203239999E+02  0.00000000000E+00 0. -1.
         11    1    3    3    0    0  0.29308711475E+01  0.30192750290E+02 -0.70530139295E+02  0.76776902287E+02  0.00000000000E+00 0.  1.
          2    1    1    2  501    0  0.21336496250E+01 -0.66656105611E+02 -0.10799559754E+03  0.12692768793E+03  0.00000000000E+00 0. -1.
<scales pt_clust_5="13000.00000" pt_clust_6="13000.00000" pt_clust_7="13000.00000" pt_clust_8="13000.00000" pt_clust_9="66.69025"></scales>
<clustering>
<clus scale="   66.690">  2  9  1 -1</clus>
<clus scale="   80.830">  5  6 -1 -1</clus>
<clus scale="   90.736">  7  8 -1 -1</clus>
<clus scale="   91.869">  2  5  1 -1</clus>
<clus scale="   66.690">  2  5  1 -1</clus>
</clustering>
</event>
<event>
 9    1  0.6296820E-005  0.1347227E+03  0.7546771E-02  0.1240958E+00
         -2   -1    0    0    0  501 -0.00000000000E+00  0.00000000000E+00  0.26437006242E+03  0.26437006242E+03  0.00000000000E+00 0.  1.
         21   -1    0    0  501  502  0.00000000000E+00 -0.00000000000E+00 -0.26250528315E+03  0.26250528315E+03  0.00000000000E+00 0.  1.
        -24    2    1    2    0    0 -0.28023570823E+02 -0.24558654550E+02 -0.86140544909E+02  0.12353961381E+03  0.80333023521E+02 0.  0.
         23    2    1    2    0    0 -0.49448289230E+01  0.10926837194E+03  0.20670635692E+03  0.25382791666E+03  0.98676566872E+02 0.  0.
         11    1    3    3    0    0  0.22305887099E+02 -0.20612681847E+02 -0.96060541953E+01  0.31854537030E+02  0.00000000000E+00 0. -1.
        -12    1    3    3    0    0 -0.50329457922E+02 -0.39459727035E+01 -0.76534490713E+02  0.91685076779E+02  0.00000000000E+00 0.  1.
        -11    1    4    4    0    0  0.30184782946E+02  0.60956531530E+02  0.45304417748E+02  0.81727046472E+02  0.00000000000E+00 0. -1.
         11    1    4    4    0    0 -0.35129611869E+02  0.48311840408E+02  0.16140193917E+03  0.17210087019E+03  0.00000000000E+00 0.  1.
         -1    1    1    2    0  502  0.32968399746E+02 -0.84709717388E+02 -0.11870103274E+03  0.14950781510E+03  0.00000000000E+00 0.  1.
<scales pt_clust_5="13000.00000" pt_clust_6="13000.00000" pt_clust_7="13000.00000" pt_clust_8="13000.00000" pt_clust_9="91.72311"></scales>
<clustering>
<clus scale="   80.333">  5  6 -1 -1</clus>
<clus scale="   88.554">  1  5  2 -1</clus>
<clus scale="   91.723">  2  9  1 -1</clus>
<clus scale="   98.677">  7  8 -1 -1</clus>
<clus scale="   91.723">  2  5  1 -1</clus>
</clustering>
</event>
<event>
 9    1  0.6296820E-005  0.9313199E+02  0.7546771E-02  0.1299604E+00
          1   -1    0    0  502    0 -0.00000000000E+00  0.00000000000E+00  0.20003861458E+03  0.20003861458E+03  0.00000000000E+00 0. -1.
         21   -1    0    0  501  502  0.00000000000E+00 -0.00000000000E+00 -0.10818656789E+03  0.10818656789E+03  0.00000000000E+00 0. -1.
         23    2    1    2    0    0 -0.38695574905E+01 -0.28483637970E+02  0.13813830163E+03  0.16663806769E+03  0.88655310730E+02 0.  0.
        -24    2    1    2    0    0 -0.34577150505E+02  0.27408194375E+02 -0.19164317199E+02  0.94524332861E+02  0.81368237004E+02 0.  0.
         11    1    4    4    0    0 -0.58938476356E+02  0.30755015196E+02 -0.21382659062E+02  0.69834325825E+02  0.00000000000E+00 0. -1.
        -12    1    4    4    0    0  0.24361325851E+02 -0.33468208206E+01  0.22183418622E+01  0.24690007036E+02  0.00000000000E+00 0.  1.
        -11    1    3    3    0    0  0.22214984904E+02  0.23243150682E+02  0.30073537173E+02  0.44024620907E+02  0.00000000000E+00 0.  1.
         11    1    3    3    0    0 -0.26084542394E+02 -0.51726788652E+02  0.10806476445E+03  0.12261344678E+03  0.00000000000E+00 0. -1.
          2    1    1    2  501    0  0.38446707996E+02  0.10754435945E+01 -0.27121937743E+02  0.47062781915E+02  0.00000000000E+00 0. -1.
<scales pt_clust_5="13000.00000" pt_clust_6="13000.00000" pt_clust_7="13000.00000" pt_clust_8="13000.00000" pt_clust_9="38.46175"></scales>
<clustering>
<clus scale="   38.462">  2  9  1 -1</clus>
<clus scale="   81.368">  5  6 -1 -1</clus>
<clus scale="   86.224">  2  5  1 -1</clus>
<clus scale="   88.655">  7  8 -1 -1</clus>
<clus scale="   38.462">  2  5  1 -1</clus>
</clustering>
</event>
<event>
 9    1  0.6296820E-005  0.2292634E+03  0.7546771E-02  0.1127869E+00
          1   -1    0    0  502    0 -0.00000000000E+00  0.00000000000E+00  0.54465521426E+03  0.54465521426E+03  0.00000000000E+00 0. -1.
         21   -1    0    0  501  502  0.00000000000E+00 -0.00000000000E+00 -0.11534870995E+03  0.11534870995E+03  0.00000000000E+00 0. -1.
         23    2    1    2    0    0  0.11382531244E+03  0.16510072791E+03  0.23077363968E+03  0.31911925694E+03  0.91466798758E+02 0.  0.
        -24    2    1    2    0    0 -0.15193225118E+03 -0.16575674894E+03  0.17191992614E+03  0.29440007155E+03  0.80970564759E+02 0.  0.
         11    1    4    4    0    0 -0.10558695044E+03 -0.15016007915E+03  0.16129027093E+03  0.24435876283E+03  0.00000000000E+00 0. -1.
        -12    1    4    4    0    0 -0.46345300739E+02 -0.15596669790E+02  0.10629655215E+02  0.50041308727E+02  0.00000000000E+00 0.  1.
        -11    1    3    3    0    0  0.91772009685E+02  0.13634514701E+03  0.23023274515E+03  0.28287668305E+03  0.00000000000E+00 0.  1.
         11    1    3    3    0    0  0.22053302754E+02  0.28755580902E+02  0.54089452283E+00  0.36242573892E+02  0.00000000000E+00 0. -1.
          2    1    1    2  501    0  0.38106938741E+02  0.65602103286E+00  0.26612938488E+02  0.46484595715E+02  0.00000000000E+00 0. -1.
<scales pt_clust_5="13000.00000" pt_clust_6="13000.00000" pt_clust_7="13000.00000" pt_clust_8="13000.00000" pt_clust_9="38.11259"></scales>
<clustering>
<clus scale="   38.113">  2  9  1 -1</clus>
<clus scale="   80.971">  5  6 -1 -1</clus>
<clus scale="   91.467">  7  8 -1 -1</clus>
<clus scale="  225.282">  2  5  1 -1</clus>
<clus scale="   38.113">  2  5  1 -1</clus>
</clustering>
</event>
<event>
 9    1  0.6296820E-005  0.1026408E+03  0.7546771E-02  0.1282635E+00
         21   -1    0    0  501  502  0.00000000000E+00  0.00000000000E+00  0.43958083639E+03  0.43958083639E+03  0.00000000000E+00 0.  1.
          3   -1    0    0  502    0 -0.00000000000E+00 -0.00000000000E+00 -0.71251727556E+02  0.71251727556E+02  0.00000000000E+00 0. -1.
         23    2    1    2    0    0 -0.47014362900E+02 -0.24321407160E+02 -0.16473492366E+02  0.10688475777E+03  0.91384322109E+02 0.  0.
        -24    2    1    2    0    0  0.15459327809E+02  0.16359352300E+02  0.17669794660E+03  0.19331385396E+03  0.75109670343E+02 0.  0.
         11    1    4    4    0    0  0.30024155208E+02 -0.20524960200E+02  0.61123167881E+02  0.71124999395E+02  0.00000000000E+00 0. -1.
        -12    1    4    4    0    0 -0.14564827398E+02  0.36884312500E+02  0.11557477872E+03  0.12218885457E+03  0.00000000000E+00 0.  1.
        -13    1    3    3    0    0 -0.23997409861E+02 -0.28895831284E+02 -0.52097387019E+02  0.64226026499E+02  0.00000000000E+00 0. -1.
         13    1    3    3    0    0 -0.23016953039E+02  0.45744241240E+01  0.35623894653E+02  0.42658731269E+02  0.00000000000E+00 0.  1.
          4    1    1    2  501    0  0.31555035091E+02  0.79620548601E+01  0.20810465461E+03  0.21063395222E+03  0.00000000000E+00 0. -1.
<scales pt_clust_5="13000.00000" pt_clust_6="13000.00000" pt_clust_7="13000.00000" pt_clust_8="13000.00000" pt_clust_9="32.54404"></scales>
<clustering>
<clus scale="   32.544">  1  9  2 -1</clus>
<clus scale="   75.110">  5  6 -1 -1</clus>
<clus scale="   88.462">  1  5  2 -1</clus>
<clus scale="   91.384">  7  8 -1 -1</clus>
<clus scale="   32.544">  1  5  2 -1</clus>
</clustering>
</event>
<event>
 9    1  0.6296820E-005  0.9304850E+02  0.7546771E-02  0.1300987E+00
         21   -1    0    0  501  502  0.00000000000E+00  0.00000000000E+00  0.18386021321E+03  0.18386021321E+03  0.00000000000E+00 0. -1.
         -2   -1    0    0    0  501 -0.00000000000E+00 -0.00000000000E+00 -0.15377649955E+03  0.15377649955E+03  0.00000000000E+00 0.  1.
        -24    2    1    2    0    0  0.17553543038E+02 -0.12431953370E+02 -0.11317964117E+03  0.14102987158E+03  0.81345640108E+02 0.  0.
         23    2    1    2    0    0 -0.37495610290E+02 -0.71095077327E+01  0.13609617582E+03  0.16778110263E+03  0.90398359704E+02 0.  0.
         11    1    3    3    0    0 -0.24734195231E+02 -0.18764503769E+02 -0.16148872422E+02  0.34995329631E+02  0.00000000000E+00 0. -1.
        -12    1    3    3    0    0  0.42287738269E+02  0.63325503994E+01 -0.97030768746E+02  0.10603454195E+03  0.00000000000E+00 0.  1.
        -13    1    4    4    0    0  0.29117201740E+01 -0.28008388992E+02  0.11358622065E+03  0.11702468752E+03  0.00000000000E+00 0. -1.
         13    1    4    4    0    0 -0.40407330464E+02  0.20898881260E+02  0.22509955169E+02  0.50756415110E+02  0.00000000000E+00 0.  1.
         -1    1    1    2    0  502  0.19942067252E+02  0.19541461103E+02  0.71671790036E+01  0.28825738554E+02  0.00000000000E+00 0.  1.
<scales pt_clust_5="13000.00000" pt_clust_6="13000.00000" pt_clust_7="13000.00000" pt_clust_8="13000.00000" pt_clust_9="27.92051"></scales>
<clustering>
<clus scale="   27.921">  1  9  2 -1</clus>
<clus scale="   81.346">  5  6 -1 -1</clus>
<clus scale="   84.281">  2  5  1 -1</clus>
<clus scale="   90.398">  7  8 -1 -1</clus>
<clus scale="   27.921">  1  5  2 -1</clus>
</clustering>
</event>
<event>
 9    1  0.6296820E-005  0.1453705E+03  0.7546771E-02  0.1219996E+00
         21   -1    0    0  501  502  0.00000000000E+00  0.00000000000E+00  0.69172224763E+03  0.69172224763E+03  0.00000000000E+00 0. -1.
          1   -1    0    0  502    0 -0.00000000000E+00 -0.00000000000E+00 -0.65122042840E+02  0.65122042840E+02  0.00000000000E+00 0. -1.
        -24    2    1    2    0    0  0.38205575565E+02  0.65102761831E+02  0.30801640785E+03  0.32661034484E+03  0.78116414743E+02 0.  0.
         23    2    1    2    0    0  0.79375894968E+02 -0.91718264057E+02  0.24981394439E+03  0.29144244808E+03  0.88424663224E+02 0.  0.
         13    1    3    3    0    0  0.58336658250E+02  0.63177168860E+02  0.21792835895E+03  0.23428036621E+03  0.00000000000E+00 0. -1.
        -14    1    3    3    0    0 -0.20131082685E+02  0.19255929713E+01  0.90088048904E+02  0.92329978629E+02  0.00000000000E+00 0.  1.
        -11    1    4    4    0    0  0.38630191789E+02 -0.19347742777E+02  0.17300184063E+03  0.17831506872E+03  0.00000000000E+00 0.  1.
         11    1    4    4    0    0  0.40745703179E+02 -0.72370521280E+02  0.76812103754E+02  0.11312737936E+03  0.00000000000E+00 0. -1.
          2    1    1    2  501    0 -0.11758147053E+03  0.26615502226E+02  0.68769852548E+02  0.13879149755E+03  0.00000000000E+00 0. -1.
<scales pt_clust_5="13000.00000" pt_clust_6="13000.00000" pt_clust_7="13000.00000" pt_clust_8="13000.00000" pt_clust_9="115.38486"></scales>
<clustering>
<clus scale="   78.116">  5  6 -1 -1</clus>
<clus scale="   88.425">  7  8 -1 -1</clus>
<clus scale="  108.629">  2  5  1 -1</clus>
<clus scale="  115.385">  1  9  2 -1</clus>
<clus scale="  115.385">  1  5  2 -1</clus>
</clustering>
</event>
<event>
 9    1  0.6296820E-005  0.1196904E+03  0.7546771E-02  0.1254528E+00
          1   -1    0    0  502    0 -0.00000000000E+00  0.00000000000E+00  0.21975754877E+03  0.21975754877E+03  0.00000000000E+00 0. -1.
         21   -1    0    0  501  502  0.00000000000E+00 -0.00000000000E+00 -0.24174074852E+03  0.24174074852E+03  0.00000000000E+00 0. -1.
         23    2    1    2    0    0 -0.42793524117E+02  0.23857497469E+02 -0.10598706565E+03  0.14313515241E+03  0.82788573354E+02 0.  0.
        -24    2    1    2    0    0 -0.80570758021E+02 -0.11704340866E+02 -0.59115709363E+02  0.12902308535E+03  0.80769120443E+02 0.  0.
         13    1    4    4    0    0 -0.48695242140E+02 -0.31943256385E+01  0.12325015817E+02  0.50332259419E+02  0.00000000000E+00 0. -1.
        -14    1    4    4    0    0 -0.31875515881E+02 -0.85100152272E+01 -0.71440725179E+02  0.78690825933E+02  0.00000000000E+00 0.  1.
        -11    1    3    3    0    0 -0.22864780197E+01  0.40557003681E+02 -0.85725287360E+02  0.94862655572E+02  0.00000000000E+00 0. -1.
         11    1    3    3    0    0 -0.40507046098E+02 -0.16699506212E+02 -0.20261778288E+02  0.48272496835E+02  0.00000000000E+00 0.  1.
          2    1    1    2  501    0  0.12336428214E+03 -0.12153156604E+02  0.14311957526E+03  0.18934005954E+03  0.00000000000E+00 0. -1.
<scales pt_clust_5="13000.00000" pt_clust_6="13000.00000" pt_clust_7="13000.00000" pt_clust_8="13000.00000" pt_clust_9="88.32982"></scales>
<clustering>
<clus scale="   80.769">  5  6 -1 -1</clus>
<clus scale="   82.789">  7  8 -1 -1</clus>
<clus scale="   96.200">  1  7  2 -1</clus>
<clus scale="   88.330">  2  9  1 -1</clus>
<clus scale="   88.330">  2  5  1 -1</clus>
</clustering>
</event>
<event>
 9    1  0.6296820E-005  0.1589186E+03  0.7546771E-02  0.1191426E+00
         21   -1    0    0  501  502  0.00000000000E+00  0.00000000000E+00  0.84602250147E+02  0.84602250147E+02  0.00000000000E+00 0. -1.
         -2   -1    0    0    0  501 -0.00000000000E+00 -0.00000000000E+00 -0.62873620808E+03  0.62873620808E+03  0.00000000000E+00 0.  1.
         23    2    1    2    0    0 -0.12792323821E+03  0.41251814155E+02 -0.46197478845E+03  0.48942522341E+03  0.89723336459E+02 0.  0.
        -24    2    1    2    0    0  0.12649031764E+03  0.10989580309E+01 -0.97656268746E+02  0.17879338052E+03  0.80183027677E+02 0.  0.
         11    1    4    4    0    0  0.34315791742E+02  0.17301512859E+02  0.62698938124E+01  0.38938765755E+02  0.00000000000E+00 0. -1.
        -12    1    4    4    0    0  0.92174525896E+02 -0.16202554828E+02 -0.10392616256E+03  0.13985461477E+03  0.00000000000E+00 0.  1.
        -11    1    3    3    0    0 -0.10597950981E+03  0.55570272100E+00 -0.38779583392E+03  0.40201688286E+03  0.00000000000E+00 0.  1.
         11    1    3    3    0    0 -0.21943728407E+02  0.40696111434E+02 -0.74178954530E+02  0.87408340548E+02  0.00000000000E+00 0. -1.
         -1    1    1    2    0  502  0.14329205766E+01 -0.42350772185E+02  0.15497099260E+02  0.45119854294E+02  0.00000000000E+00 0.  1.
<scales pt_clust_5="13000.00000" pt_clust_6="13000.00000" pt_clust_7="13000.00000" pt_clust_8="13000.00000" pt_clust_9="42.37501"></scales>
<clustering>
<clus scale="   42.375">  1  9  2 -1</clus>
<clus scale="   80.183">  5  6 -1 -1</clus>
<clus scale="   89.723">  7  8 -1 -1</clus>
<clus scale="  153.734">  1  5  2 -1</clus>
<clus scale="   42.375">  1  5  2 -1</clus>
</clustering>
</event>
<event>
 9    1  0.6296820E-005  0.1369262E+03  0.7546771E-02  0.1221229E+00
          1   -1    0    0  502    0 -0.00000000000E+00  0.00000000000E+00  0.64034004684E+03  0.64034004684E+03  0.00000000000E+00 0. -1.
         21   -1    0    0  501  502  0.00000000000E+00 -0.00000000000E+00 -0.50003582972E+02  0.50003582972E+02  0.00000000000E+00 0.  1.
         23    2    1    2    0    0 -0.78795076817E+02  0.83332793268E+02  0.37954993733E+03  0.40685004154E+03  0.91190914073E+02 0.  0.
        -24    2    1    2    0    0  0.52991947840E+02 -0.48045013472E+02  0.46589769938E+02  0.11357712719E+03  0.74917870384E+02 0.  0.
         11    1    4    4    0    0  0.56691567732E+02 -0.16859804622E+01  0.30281426701E+02  0.64294176914E+02  0.00000000000E+00 0. -1.
        -12    1    4    4    0    0 -0.36996198919E+01 -0.46359033010E+02  0.16308343237E+02  0.49282950278E+02  0.00000000000E+00 0.  1.
        -11    1    3    3    0    0  0.33861800118E+01  0.47738426082E+02  0.20679600909E+03  0.21226166144E+03  0.00000000000E+00 0.  1.
         11    1    3    3    0    0 -0.82181256829E+02  0.35594367187E+02  0.17275392824E+03  0.19458838010E+03  0.00000000000E+00 0. -1.
          2    1    1    2  501    0  0.25803128976E+02 -0.35287779796E+02  0.16419675660E+03  0.16991646108E+03  0.00000000000E+00 0. -1.
<scales pt_clust_5="13000.00000" pt_clust_6="13000.00000" pt_clust_7="13000.00000" pt_clust_8="13000.00000" pt_clust_9="43.71534"></scales>
<clustering>
<clus scale="   43.715">  2  9  1 -1</clus>
<clus scale="   74.918">  5  6 -1 -1</clus>
<clus scale="   91.191">  7  8 -1 -1</clus>
<clus scale="  126.672">  2  5  1 -1</clus>
<clus scale="   43.715">  2  5  1 -1</clus>
</clustering>
</event>
<event>
 9    1  0.6296820E-005  0.1241568E+03  0.7546771E-02  0.1239267E+00
         -4   -1    0    0    0  501 -0.00000000000E+00  0.00000000000E+00  0.75574930366E+03  0.75574930366E+03  0.00000000000E+00 0.  1.
         21   -1    0    0  501  502  0.00000000000E+00 -0.00000000000E+00 -0.41209750379E+02  0.41209750379E+02  0.00000000000E+00 0. -1.
        -24    2    1    2    0    0  0.29355742659E+02  0.76076739864E+02  0.57469831141E+03  0.58605797577E+03  0.80847831470E+02 0.  0.
         23    2    1    2    0    0 -0.37268757993E+02 -0.95246439305E+02  0.11621869208E+03  0.17946673324E+03  0.90778188072E+02 0.  0.
         11    1    3    3    0    0 -0.10264950679E+02  0.23144557116E+02  0.40357745831E+02  0.47642285683E+02  0.00000000000E+00 0. -1.
        -12    1    3    3    0    0  0.39620693339E+02  0.52932182748E+02  0.53434056558E+03  0.53841569009E+03  0.00000000000E+00 0.  1.
        -11    1    4    4    0    0  0.60745384053E+01 -0.87175111266E+02  0.99217584311E+02  0.13221395190E+03  0.00000000000E+00 0.  1.
         11    1    4    4    0    0 -0.43343296398E+02 -0.80713280387E+01  0.17001107764E+02  0.47252781338E+02  0.00000000000E+00 0. -1.
         -3    1    1    2    0  502  0.79130153334E+01  0.19169699441E+02  0.23622549791E+02  0.31434345022E+02  0.00000000000E+00 0.  1.
<scales pt_clust_5="13000.00000" pt_clust_6="13000.00000" pt_clust_7="13000.00000" pt_clust_8="13000.00000" pt_clust_9="20.73869"></scales>
<clustering>
<clus scale="   20.739">  2  9  1 -1</clus>
<clus scale="   80.848">  5  6 -1 -1</clus>
<clus scale="   90.778">  7  8 -1 -1</clus>
<clus scale="  117.092">  1  5  2 -1</clus>
<clus scale="   20.739">  2  5  1 -1</clus>
</clustering>
</event>
<event>
 9    1  0.1270013E-004  0.1171842E+03  0.7546771E-02  0.1248191E+00
         -4   -1    0    0    0  501 -0.00000000000E+00  0.00000000000E+00  0.25959226972E+03  0.25959226972E+03  0.00000000000E+00 0.  1.
         21   -1    0    0  501  502  0.00000000000E+00 -0.00000000000E+00 -0.59090489159E+03  0.59090489159E+03  0.00000000000E+00 0.  1.
        -24    2    1    2    0    0 -0.34073239436E+02  0.78971469940E+02  0.23203229210E+03  0.25927311994E+03  0.77369809594E+02 0.  0.
         23    2    1    2    0    0  0.69549390374E+02 -0.91928748087E+02 -0.40273436590E+03  0.42623253706E+03  0.78684139109E+02 0.  0.
         11    1    3    3    0    0 -0.12640556624E+02  0.29416585247E+02  0.14512772509E+02  0.35153089839E+02  0.00000000000E+00 0. -1.
        -12    1    3    3    0    0 -0.21432682811E+02  0.49554884693E+02  0.21751951960E+03  0.22412003011E+03  0.00000000000E+00 0.  1.
        -13    1    4    4    0    0  0.71498741316E+02 -0.43599660327E+02 -0.18319973554E+03  0.20143272697E+03  0.00000000000E+00 0.  1.
         13    1    4    4    0    0 -0.19493509412E+01 -0.48329087760E+02 -0.21953463036E+03  0.22479981010E+03  0.00000000000E+00 0. -1.
         -3    1    1    2    0  502 -0.35476150939E+02  0.12957278148E+02 -0.16061054807E+03  0.16499150431E+03  0.00000000000E+00 0.  1.
<scales pt_clust_5="13000.00000" pt_clust_6="13000.00000" pt_clust_7="13000.00000" pt_clust_8="13000.00000" pt_clust_9="37.76835"></scales>
<clustering>
<clus scale="   37.768">  2  9  1 -1</clus>
<clus scale="   77.370">  5  6 -1 -1</clus>
<clus scale="   78.684">  7  8 -1 -1</clus>
<clus scale="  116.306">  1  5  2 -1</clus>
<clus scale="   37.768">  2  5  1 -1</clus>
</clustering>
</event>
<event>
 9    1  0.6296820E-005  0.1238367E+03  0.7546771E-02  0.1250241E+00
          3   -1    0    0  502    0 -0.00000000000E+00  0.00000000000E+00  0.24530008070E+03  0.24530008070E+03  0.00000000000E+00 0. -1.
         21   -1    0    0  501  502  0.00000000000E+00 -0.00000000000E+00 -0.11048482190E+03  0.11048482190E+03  0.00000000000E+00 0.  1.
         23    2    1    2    0    0 -0.47539779300E+00 -0.17190711607E+02  0.60414502120E+02  0.11223855629E+03  0.93015240061E+02 0.  0.
        -24    2    1    2    0    0  0.95661955504E+02  0.14428737693E+02  0.31841135093E+01  0.12463495268E+03  0.78513276900E+02 0.  0.
         11    1    4    4    0    0  0.54653963990E+02  0.82201383256E-02  0.39953173042E+02  0.67700161621E+02  0.00000000000E+00 0. -1.
        -12    1    4    4    0    0  0.41007991515E+02  0.14420517554E+02 -0.36769059532E+02  0.56934791064E+02  0.00000000000E+00 0.  1.
        -11    1    3    3    0    0  0.25163249914E+02  0.29650387247E+02  0.13521122939E+02  0.41172264641E+02  0.00000000000E+00 0. -1.
         11    1    3    3    0    0 -0.25638647707E+02 -0.46841098854E+02  0.46893379181E+02  0.71066291651E+02  0.00000000000E+00 0.  1.
          4    1    1    2  501    0 -0.95186557711E+02  0.27619739146E+01  0.71216643176E+02  0.11891139363E+03  0.00000000000E+00 0. -1.
<scales pt_clust_5="13000.00000" pt_clust_6="13000.00000" pt_clust_7="13000.00000" pt_clust_8="13000.00000" pt_clust_9="95.76643"></scales>
<clustering>
<clus scale="   78.513">  5  6 -1 -1</clus>
<clus scale="   93.015">  7  8 -1 -1</clus>
<clus scale="   94.592">  1  7  2 -1</clus>
<clus scale="   95.766">  2  9  1 -1</clus>
<clus scale="   95.766">  2  5  1 -1</clus>
</clustering>
</event>
<event>
 9    1  0.6296820E-005  0.9391057E+02  0.7546771E-02  0.1299686E+00
         21   -1    0    0  501  502  0.00000000000E+00  0.00000000000E+00  0.54648041847E+02  0.54648041847E+02  0.00000000000E+00 0.  1.
          1   -1    0    0  502    0 -0.00000000000E+00 -0.00000000000E+00 -0.23268107039E+03  0.23268107039E+03  0.00000000000E+00 0. -1.
         23    2    1    2    0    0 -0.78570799183E+01 -0.16692336282E+02 -0.11778991622E+03  0.14967819943E+03  0.90491608585E+02 0.  0.
        -24    2    1    2    0    0  0.39621228607E+02  0.16853089541E+02 -0.36587971668E+02  0.98045955259E+02  0.80127781003E+02 0.  0.
         13    1    4    4    0    0  0.16002662410E+02 -0.30400060404E+02 -0.28429909210E+02  0.44592696874E+02  0.00000000000E+00 0. -1.
        -14    1    4    4    0    0  0.23618566196E+02  0.47253149945E+02 -0.81580624574E+01  0.53453258385E+02  0.00000000000E+00 0.  1.
        -13    1    3    3    0    0 -0.12464882449E+02 -0.51832122887E+02 -0.90153856480E+02  0.10473614512E+03  0.00000000000E+00 0.  1.
         13    1    3    3    0    0  0.46078025311E+01  0.35139786604E+02 -0.27636059744E+02  0.44942054303E+02  0.00000000000E+00 0. -1.
          2    1    1    2  501    0 -0.31764148689E+02 -0.16075325809E+00 -0.23655140655E+02  0.39604957555E+02  0.00000000000E+00 0. -1.
<scales pt_clust_5="13000.00000" pt_clust_6="13000.00000" pt_clust_7="13000.00000" pt_clust_8="13000.00000" pt_clust_9="31.76456"></scales>
<clustering>
<clus scale="   31.765">  1  9  2 -1</clus>
<clus scale="   80.128">  5  6 -1 -1</clus>
<clus scale="   83.970">  1  5  2 -1</clus>
<clus scale="   90.492">  7  8 -1 -1</clus>
<clus scale="   31.765">  1  5  2 -1</clus>
</clustering>
</event>
<event>
 9    1  0.6296820E-005  0.2682253E+03  0.7546771E-02  0.1102727E+00
         21   -1    0    0  501  502  0.00000000000E+00  0.00000000000E+00  0.86143553489E+03  0.86143553489E+03  0.00000000000E+00 0. -1.
          3   -1    0    0  502    0 -0.00000000000E+00 -0.00000000000E+00 -0.13135257485E+03  0.13135257485E+03  0.00000000000E+00 0. -1.
         23    2    1    2    0    0 -0.23127056182E+03  0.66939904959E+02  0.14197433199E+03  0.29357990266E+03  0.89807709369E+02 0.  0.
        -24    2    1    2    0    0  0.26863043666E+03 -0.10082778651E+03  0.57411511547E+03  0.64686351147E+03  0.80595797808E+02 0.  0.
         13    1    4    4    0    0  0.21943639261E+03 -0.45841321776E+02  0.42540610580E+03  0.48085768377E+03  0.00000000000E+00 0. -1.
        -14    1    4    4    0    0  0.49194044051E+02 -0.54986464739E+02  0.14870900967E+03  0.16600582771E+03  0.00000000000E+00 0.  1.
        -13    1    3    3    0    0 -0.64773847732E+02 -0.71977593236E+01  0.75113949113E+02  0.99446289225E+02  0.00000000000E+00 0. -1.
         13    1    3    3    0    0 -0.16649671408E+03  0.74137664282E+02  0.66860382878E+02  0.19413361343E+03  0.00000000000E+00 0.  1.
          4    1    1    2  501    0 -0.37359874845E+02  0.33887881556E+02  0.13993512569E+02  0.52344695613E+02  0.00000000000E+00 0. -1.
<scales pt_clust_5="13000.00000" pt_clust_6="13000.00000" pt_clust_7="13000.00000" pt_clust_8="13000.00000" pt_clust_9="50.43958"></scales>
<clustering>
<clus scale="   50.440">  1  9  2 -1</clus>
<clus scale="   80.596">  5  6 -1 -1</clus>
<clus scale="   89.808">  7  8 -1 -1</clus>
<clus scale="  265.283">  1  5  2 -1</clus>
<clus scale="   50.440">  1  5  2 -1</clus>
</clustering>
</event>
<event>
 9    1  0.6296820E-005  0.1678051E+03  0.7546771E-02  0.1206181E+00
         -4   -1    0    0    0  501 -0.00000000000E+00  0.00000000000E+00  0.22835051112E+03  0.22835051112E+03  0.00000000000E+00 0.  1.
         21   -1    0    0  501  502  0.00000000000E+00 -0.00000000000E+00 -0.32444646999E+03  0.32444646999E+03  0.00000000000E+00 0.  1.
         23    2    1    2    0    0 -0.13132108915E+02 -0.92551157911E+01  0.58192798916E+02  0.11116239877E+03  0.93341135630E+02 0.  0.
        -24    2    1    2    0    0 -0.13283380663E+03  0.54285124290E+02 -0.21961926538E+03  0.27549661140E+03  0.84107468535E+02 0.  0.
         13    1    4    4    0    0 -0.11157757388E+03  0.45663908706E+01 -0.13685169317E+03  0.17663180021E+03  0.00000000000E+00 0. -1.
        -14    1    4    4    0    0 -0.21256232745E+02  0.49718733419E+02 -0.82767572204E+02  0.98864811191E+02  0.00000000000E+00 0.  1.
        -11    1    3    3    0    0  0.26430133904E+02  0.28142894693E+02  0.14087916591E+02  0.41097979193E+02  0.00000000000E+00 0.  1.
         11    1    3    3    0    0 -0.39562242819E+02 -0.37398010484E+02  0.44104882325E+02  0.70064419572E+02  0.00000000000E+00 0. -1.
         -3    1    1    2    0  502  0.14596591555E+03 -0.45030008499E+02  0.65330507593E+02  0.16613797094E+03  0.00000000000E+00 0.  1.
<scales pt_clust_5="13000.00000" pt_clust_6="13000.00000" pt_clust_7="13000.00000" pt_clust_8="13000.00000" pt_clust_9="145.20505"></scales>
<clustering>
<clus scale="   84.107">  5  6 -1 -1</clus>
<clus scale="   93.341">  7  8 -1 -1</clus>
<clus scale="   94.714">  1  7  2 -1</clus>
<clus scale="  145.205">  2  9  1 -1</clus>
<clus scale="  145.205">  2  5  1 -1</clus>
</clustering>
</event>
<event>
 9    1  0.6296820E-005  0.1495433E+03  0.7546771E-02  0.1221670E+00
         21   -1    0    0  501  502  0.00000000000E+00  0.00000000000E+00  0.15269471560E+03  0.15269471560E+03  0.00000000000E+00 0. -1.
          1   -1    0    0  502    0 -0.00000000000E+00 -0.00000000000E+00 -0.88973356436E+03  0.88973356436E+03  0.00000000000E+00 0. -1.
         23    2    1    2    0    0  0.59054106131E+01  0.29878865400E+02 -0.24386195321E+03  0.26220455982E+03  0.91405462043E+02 0.  0.
        -24    2    1    2    0    0 -0.13368287724E+03 -0.23131348120E+01 -0.59523793842E+03  0.61438220859E+03  0.72669337669E+02 0.  0.
         11    1    4    4    0    0 -0.11826227207E+03 -0.21885617540E+02 -0.40383092980E+03  0.42136013708E+03  0.00000000000E+00 0. -1.
        -12    1    4    4    0    0 -0.15420605168E+02  0.19572482728E+02 -0.19140700862E+03  0.19302207151E+03  0.00000000000E+00 0.  1.
        -11    1    3    3    0    0 -0.93437810572E+01  0.59089741531E+02 -0.12072207420E+03  0.13473204147E+03  0.00000000000E+00 0. -1.
         11    1    3    3    0    0  0.15249191670E+02 -0.29210876132E+02 -0.12313987901E+03  0.12747251835E+03  0.00000000000E+00 0.  1.
          2    1    1    2  501    0  0.12777746663E+03 -0.27565730588E+02  0.10206104287E+03  0.16584151155E+03  0.00000000000E+00 0. -1.
<scales pt_clust_5="13000.00000" pt_clust_6="13000.00000" pt_clust_7="13000.00000" pt_clust_8="13000.00000" pt_clust_9="130.69950"></scales>
<clustering>
<clus scale="   72.669">  5  6 -1 -1</clus>
<clus scale="   91.405">  7  8 -1 -1</clus>
<clus scale="   96.346">  2  7  1 -1</clus>
<clus scale="  130.700">  1  9  2 -1</clus>
<clus scale="  130.700">  1  5  2 -1</clus>
</clustering>
</event>
<event>
 9    1  0.6296820E-005  0.1027102E+03  0.7546771E-02  0.1280137E+00
         21   -1    0    0  501  502  0.00000000000E+00  0.00000000000E+00  0.33043822022E+03  0.33043822022E+03  0.00000000000E+00 0.  1.
          1   -1    0    0  502    0 -0.00000000000E+00 -0.00000000000E+00 -0.19193919201E+03  0.19193919201E+03  0.00000000000E+00 0. -1.
         23    2    1    2    0    0  0.43605313456E+02  0.12362263711E+01 -0.15957594011E+03  0.18931953493E+03  0.92056797842E+02 0.  0.
        -24    2    1    2    0    0 -0.73251907713E+02 -0.22306296521E+02  0.20642496348E+03  0.23445467353E+03  0.80587316279E+02 0.  0.
         13    1    4    4    0    0 -0.56430870793E+02 -0.40782880080E+01  0.48283520483E+02  0.74379929832E+02  0.00000000000E+00 0. -1.
        -14    1    4    4    0    0 -0.16821036920E+02 -0.18228008513E+02  0.15814144300E+03  0.16007474370E+03  0.00000000000E+00 0.  1.
        -13    1    3    3    0    0  0.25335732536E+02  0.30380274761E+02 -0.17707416340E+02  0.43340662560E+02  0.00000000000E+00 0.  1.
         13    1    3    3    0    0  0.18269580921E+02 -0.29144048390E+02 -0.14186852377E+03  0.14597887237E+03  0.00000000000E+00 0. -1.
          2    1    1    2  501    0  0.29646594257E+02  0.21070070150E+02  0.91650004831E+02  0.98603203765E+02  0.00000000000E+00 0. -1.
<scales pt_clust_5="13000.00000" pt_clust_6="13000.00000" pt_clust_7="13000.00000" pt_clust_8="13000.00000" pt_clust_9="36.37126"></scales>
<clustering>
<clus scale="   36.371">  1  9  2 -1</clus>
<clus scale="   80.587">  5  6 -1 -1</clus>
<clus scale="   92.057">  7  8 -1 -1</clus>
<clus scale="   92.570">  1  5  2 -1</clus>
<clus scale="   36.371">  1  5  2 -1</clus>
</clustering>
</event>
<event>
 9    1  0.6296820E-005  0.1599181E+03  0.7546771E-02  0.1190608E+00
          1   -1    0    0  502    0 -0.00000000000E+00  0.00000000000E+00  0.11158229911E+03  0.11158229911E+03  0.00000000000E+00 0. -1.
         21   -1    0    0  501  502  0.00000000000E+00 -0.00000000000E+00 -0.58730072060E+03  0.58730072060E+03  0.00000000000E+00 0.  1.
         23    2    1    2    0    0 -0.12134263387E+03 -0.31036367943E+02 -0.16494280464E+01  0.15498243719E+03  0.91266337149E+02 0.  0.
        -24    2    1    2    0    0  0.13547359577E+03  0.10605378646E+03 -0.35490815976E+03  0.40238520721E+03  0.79709173515E+02 0.  0.
         11    1    4    4    0    0 -0.22038557892E+00  0.34281034586E+02 -0.45283562578E+02  0.56796469449E+02  0.00000000000E+00 0. -1.
        -12    1    4    4    0    0  0.13569398135E+03  0.71772751873E+02 -0.30962459718E+03  0.34558873776E+03  0.00000000000E+00 0.  1.
        -11    1    3    3    0    0 -0.20229820207E+02 -0.38009172529E+02  0.25518609675E+02  0.50051396201E+02  0.00000000000E+00 0. -1.
         11    1    3    3    0    0 -0.10111281366E+03  0.69728045864E+01 -0.27168037722E+02  0.10493104099E+03  0.00000000000E+00 0.  1.
          2    1    1    2  501    0 -0.14130961906E+02 -0.75017418516E+02 -0.11916083368E+03  0.14151537531E+03  0.00000000000E+00 0. -1.
<scales pt_clust_5="13000.00000" pt_clust_6="13000.00000" pt_clust_7="13000.00000" pt_clust_8="13000.00000" pt_clust_9="76.33674"></scales>
<clustering>
<clus scale="   76.337">  2  9  1 -1</clus>
<clus scale="   79.709">  5  6 -1 -1</clus>
<clus scale="   91.266">  7  8 -1 -1</clus>
<clus scale="  153.616">  2  5  1 -1</clus>
<clus scale="   76.337">  2  5  1 -1</clus>
</clustering>
</event>
<event>
 9    1  0.6296820E-005  0.1641773E+03  0.7546771E-02  0.1185722E+00
         -4   -1    0    0    0  501 -0.00000000000E+00  0.00000000000E+00  0.11623371774E+03  0.11623371774E+03  0.00000000000E+00 0.  1.
         21   -1    0    0  501  502  0.00000000000E+00 -0.00000000000E+00 -0.51537613194E+03  0.51537613194E+03  0.00000000000E+00 0.  1.
         23    2    1    2    0    0 -0.24525110755E+02  0.12060021053E+03 -0.17266728419E+02  0.15404533512E+03  0.91027103235E+02 0.  0.
        -24    2    1    2    0    0 -0.67997899138E+01 -0.19198716781E+03 -0.29328133655E+03  0.35955474468E+03  0.79751879655E+02 0.  0.
         13    1    4    4    0    0 -0.30752928091E+02 -0.27131052711E+02 -0.67240314596E+02  0.78759739172E+02  0.00000000000E+00 0. -1.
        -14    1    4    4    0    0  0.23953138177E+02 -0.16485611509E+03 -0.22604102195E+03  0.28079500551E+03  0.00000000000E+00 0.  1.
        -13    1    3    3    0    0  0.24268106634E+02  0.87892227955E+01  0.12191745038E+02  0.28545228743E+02  0.00000000000E+00 0. -1.
         13    1    3    3    0    0 -0.48793217389E+02  0.11181098773E+03 -0.29458473457E+02  0.12550010637E+03  0.00000000000E+00 0.  1.
         -3    1    1    2    0  502  0.31324900669E+02  0.71386957276E+02 -0.88594349236E+02  0.11800976988E+03  0.00000000000E+00 0.  1.
<scales pt_clust_5="13000.00000" pt_clust_6="13000.00000" pt_clust_7="13000.00000" pt_clust_8="13000.00000" pt_clust_9="77.95734"></scales>
<clustering>
<clus scale="   77.957">  2  9  1 -1</clus>
<clus scale="   79.752">  5  6 -1 -1</clus>
<clus scale="   91.027">  7  8 -1 -1</clus>
<clus scale="  158.204">  2  5  1 -1</clus>
<clus scale="   77.957">  2  5  1 -1</clus>
</clustering>
</event>
<event>
 9    1  0.6296820E-005  0.1011847E+03  0.7546771E-02  0.1282434E+00
         21   -1    0    0  501  502  0.00000000000E+00  0.00000000000E+00  0.25091025564E+03  0.25091025564E+03  0.00000000000E+00 0. -1.
          3   -1    0    0  502    0 -0.00000000000E+00 -0.00000000000E+00 -0.81639004713E+02  0.81639004713E+02  0.00000000000E+00 0. -1.
         23    2    1    2    0    0  0.54731563070E+02  0.81741165175E+01  0.47082070686E+01  0.10693242517E+03  0.91378422844E+02 0.  0.
        -24    2    1    2    0    0 -0.26118212214E+02  0.28390145196E+02  0.53243133237E+02  0.10500260890E+03  0.81869135121E+02 0.  0.
         11    1    4    4    0    0  0.29071722972E+02  0.15596828218E+01  0.18240494095E+02  0.34355688203E+02  0.00000000000E+00 0. -1.
        -12    1    4    4    0    0 -0.55189935187E+02  0.26830462374E+02  0.35002639142E+02  0.70646920697E+02  0.00000000000E+00 0.  1.
        -11    1    3    3    0    0  0.79830769247E+02  0.10499834723E+02 -0.29977896866E+01  0.80574096277E+02  0.00000000000E+00 0. -1.
         11    1    3    3    0    0 -0.25099206177E+02 -0.23257182055E+01  0.77059967552E+01  0.26358328890E+02  0.00000000000E+00 0.  1.
          4    1    1    2  501    0 -0.28613350856E+02 -0.36564261713E+02  0.11131991062E+03  0.12061422628E+03  0.00000000000E+00 0. -1.
<scales pt_clust_5="13000.00000" pt_clust_6="13000.00000" pt_clust_7="13000.00000" pt_clust_8="13000.00000" pt_clust_9="46.42918"></scales>
<clustering>
<clus scale="   46.429">  1  9  2 -1</clus>
<clus scale="   81.869">  5  6 -1 -1</clus>
<clus scale="   91.378">  7  8 -1 -1</clus>
<clus scale="   92.687">  1  5  2 -1</clus>
<clus scale="   46.429">  1  5  2 -1</clus>
</clustering>
</event>
<event>
 9    1  0.6296820E-005  0.1323992E+03  0.7546771E-02  0.1241476E+00
         21   -1    0    0  501  502  0.00000000000E+00  0.00000000000E+00  0.18585151054E+02  0.18585151054E+02  0.00000000000E+00 0.  1.
          1   -1    0    0  502    0 -0.00000000000E+00 -0.00000000000E+00 -0.15475448552E+04  0.15475448552E+04  0.00000000000E+00 0. -1.
        -24    2    1    2    0    0 -0.18400519362E+02 -0.21745329919E+02 -0.30226380883E+03  0.31604903733E+03  0.87818821349E+02 0.  0.
         23    2    1    2    0    0 -0.68197258865E+02 -0.50147783856E+02 -0.52599296710E+03  0.54039625821E+03  0.90519876899E+02 0.  0.
         13    1    3    3    0    0 -0.17739663893E+02 -0.51682022485E+02 -0.24919232783E+03  0.25511280520E+03  0.00000000000E+00 0. -1.
        -14    1    3    3    0    0 -0.66085546847E+00  0.29936692566E+02 -0.53071480998E+02  0.60936232137E+02  0.00000000000E+00 0.  1.
        -13    1    4    4    0    0  0.20615496187E+02 -0.25693155106E+00 -0.61478577719E+02  0.64843505575E+02  0.00000000000E+00 0. -1.
         13    1    4    4    0    0 -0.88812755052E+02 -0.49890852305E+02 -0.46451438938E+03  0.47555275264E+03  0.00000000000E+00 0.  1.
          2    1    1    2  501    0  0.86597778226E+02  0.71893113775E+02 -0.70070292827E+03  0.70968471076E+03  0.00000000000E+00 0. -1.
<scales pt_clust_5="13000.00000" pt_clust_6="13000.00000" pt_clust_7="13000.00000" pt_clust_8="13000.00000" pt_clust_9="96.62142"></scales>
<clustering>
<clus scale="   87.819">  5  6 -1 -1</clus>
<clus scale="   90.520">  7  8 -1 -1</clus>
<clus scale="   92.323">  2  5  1 -1</clus>
<clus scale="   96.621">  1  9  2 -1</clus>
<clus scale="   96.621">  1  5  2 -1</clus>
</clustering>
</event>
<event>
 9    1  0.6296820E-005  0.9473168E+02  0.7546771E-02  0.1296750E+00
         21   -1    0    0  501  502  0.00000000000E+00  0.00000000000E+00  0.11222160438E+03  0.11222160438E+03  0.00000000000E+00 0. -1.
          1   -1    0    0  502    0 -0.00000000000E+00 -0.00000000000E+00 -0.31219896735E+03  0.31219896735E+03  0.00000000000E+00 0. -1.
         23    2    1    2    0    0 -0.30286404361E+02 -0.41321294640E+01 -0.27284456861E+03  0.28900210991E+03  0.90242562750E+02 0.  0.
        -24    2    1    2    0    0  0.11019764892E+02  0.20711151935E+02  0.39537657453E+02  0.93502758734E+02  0.81419607597E+02 0.  0.
         11    1    4    4    0    0 -0.11558006844E+02  0.18683379067E+02 -0.20053525387E+02  0.29745588850E+02  0.00000000000E+00 0. -1.
        -12    1    4    4    0    0  0.22577771736E+02  0.20277728677E+01  0.59591182840E+02  0.63757169884E+02  0.00000000000E+00 0.  1.
        -11    1    3    3    0    0  0.30871792111E+02 -0.69964228697E+01 -0.12577915963E+03  0.12970125087E+03  0.00000000000E+00 0.  1.
         11    1    3    3    0    0 -0.61158196471E+02  0.28642934056E+01 -0.14706540898E+03  0.15930085904E+03  0.00000000000E+00 0. -1.
          2    1    1    2  501    0  0.19266639469E+02 -0.16579022471E+02  0.33329548186E+02  0.41915703082E+02  0.00000000000E+00 0. -1.
<scales pt_clust_5="13000.00000" pt_clust_6="13000.00000" pt_clust_7="13000.00000" pt_clust_8="13000.00000" pt_clust_9="25.41786"></scales>
<clustering>
<clus scale="   25.418">  1  9  2 -1</clus>
<clus scale="   81.420">  5  6 -1 -1</clus>
<clus scale="   86.369">  1  5  2 -1</clus>
<clus scale="   90.243">  7  8 -1 -1</clus>
<clus scale="   25.418">  1  5  2 -1</clus>
</clustering>
</event>
<event>
 9    1  0.6296820E-005  0.1013897E+03  0.7546771E-02  0.1284861E+00
         21   -1    0    0  501  502  0.00000000000E+00  0.00000000000E+00  0.10304852659E+03  0.10304852659E+03  0.00000000000E+00 0.  1.
         -2   -1    0    0    0  501 -0.00000000000E+00 -0.00000000000E+00 -0.22008368018E+03  0.22008368018E+03  0.00000000000E+00 0.  1.
         23    2    1    2    0    0 -0.11974705188E+02  0.28556222580E+02 -0.12151115206E+03  0.15780437720E+03  0.95804018568E+02 0.  0.
        -24    2    1    2    0    0  0.50260046288E+02 -0.74013529620E+01 -0.39006473161E+02  0.10365108200E+03  0.81493494051E+02 0.  0.
         11    1    4    4    0    0  0.38696304705E+02 -0.38412617023E+02 -0.44148225695E+02  0.70156959572E+02  0.00000000000E+00 0. -1.
        -12    1    4    4    0    0  0.11563741583E+02  0.31011264061E+02  0.51417525340E+01  0.33494122427E+02  0.00000000000E+00 0.  1.
        -13    1    3    3    0    0 -0.39373923468E+02  0.50061585682E+01 -0.10491859461E+02  0.41054190868E+02  0.00000000000E+00 0. -1.
         13    1    3    3    0    0  0.27399218281E+02  0.23550064012E+02 -0.11101929260E+03  0.11675018633E+03  0.00000000000E+00 0.  1.
         -1    1    1    2    0  502 -0.38285341101E+02 -0.21154869618E+02  0.43482471630E+02  0.61676747570E+02  0.00000000000E+00 0.  1.
<scales pt_clust_5="13000.00000" pt_clust_6="13000.00000" pt_clust_7="13000.00000" pt_clust_8="13000.00000" pt_clust_9="43.74124"></scales>
<clustering>
<clus scale="   43.741">  1  9  2 -1</clus>
<clus scale="   81.493">  5  6 -1 -1</clus>
<clus scale="   87.992">  1  5  2 -1</clus>
<clus scale="   95.804">  7  8 -1 -1</clus>
<clus scale="   43.741">  1  5  2 -1</clus>
</clustering>
</event>
<event>
 9    1  0.6296820E-005  0.1294837E+03  0.7546771E-02  0.1240356E+00
         21   -1    0    0  501  502  0.00000000000E+00  0.00000000000E+00  0.21844566218E+03  0.21844566218E+03  0.00000000000E+00 0.  1.
         -2   -1    0    0    0  501 -0.00000000000E+00 -0.00000000000E+00 -0.16574102110E+03  0.16574102110E+03  0.00000000000E+00 0.  1.
         23    2    1    2    0    0  0.44046995727E+02 -0.13987277355E+01  0.15954425514E+02  0.10222250308E+03  0.90844934755E+02 0.  0.
        -24    2    1    2    0    0  0.18916994529E+02  0.96666533572E+02  0.89923066456E+02  0.15599683932E+03  0.80910967131E+02 0.  0.
         11    1    4    4    0    0  0.25507966284E+02  0.90923918322E+01 -0.40427982814E+01  0.27380141547E+02  0.00000000000E+00 0. -1.
        -12    1    4    4    0    0 -0.65909717554E+01  0.87574141740E+02  0.93965864738E+02  0.12861669777E+03  0.00000000000E+00 0.  1.
        -11    1    3    3    0    0  0.48275067398E+02 -0.39656927735E+02  0.10281298976E+02  0.63315552262E+02  0.00000000000E+00 0.  1.
         11    1    3    3    0    0 -0.42280716710E+01  0.38258199999E+02  0.56731265387E+01  0.38906950818E+02  0.00000000000E+00 0. -1.
         -1    1    1    2    0  502 -0.62963990256E+02 -0.95267805837E+02 -0.53172850891E+02  0.12596734089E+03  0.00000000000E+00 0.  1.
<scales pt_clust_5="13000.00000" pt_clust_6="13000.00000" pt_clust_7="13000.00000" pt_clust_8="13000.00000" pt_clust_9="101.09134"></scales>
<clustering>
<clus scale="   80.911">  5  6 -1 -1</clus>
<clus scale="   90.845">  7  8 -1 -1</clus>
<clus scale="  100.970">  2  7  1 -1</clus>
<clus scale="  101.091">  1  9  2 -1</clus>
<clus scale="  101.091">  1  5  2 -1</clus>
</clustering>
</event>
<event>
 9    1  0.6296820E-005  0.1456882E+03  0.7546771E-02  0.1228485E+00
          3   -1    0    0  502    0 -0.00000000000E+00  0.00000000000E+00  0.32173077211E+03  0.32173077211E+03  0.00000000000E+00 0. -1.
         21   -1    0    0  501  502  0.00000000000E+00 -0.00000000000E+00 -0.33701828736E+03  0.33701828736E+03  0.00000000000E+00 0. -1.
         23    2    1    2    0    0  0.37002858564E+02  0.71661774621E+00  0.25692977910E+03  0.27237410582E+03  0.82492527252E+02 0.  0.
        -24    2    1    2    0    0 -0.12406427248E+03  0.57248748470E+02 -0.21536226694E+03  0.26732804014E+03  0.80087527830E+02 0.  0.
         13    1    4    4    0    0 -0.95537644931E+02  0.73213248102E+02 -0.19390411635E+03  0.22822451146E+03  0.00000000000E+00 0. -1.
        -14    1    4    4    0    0 -0.28526627547E+02 -0.15964499632E+02 -0.21458150595E+02  0.39103528672E+02  0.00000000000E+00 0.  1.
        -13    1    3    3    0    0 -0.23808449592E+02 -0.11291898563E+02  0.52315693585E+02  0.58577137523E+02  0.00000000000E+00 0.  1.
         13    1    3    3    0    0  0.60811308156E+02  0.12008516309E+02  0.20461408551E+03  0.21379696830E+03  0.00000000000E+00 0. -1.
          4    1    1    2  501    0  0.87061413914E+02 -0.57965366216E+02 -0.56855027405E+02  0.11904691350E+03  0.00000000000E+00 0. -1.
<scales pt_clust_5="13000.00000" pt_clust_6="13000.00000" pt_clust_7="13000.00000" pt_clust_8="13000.00000" pt_clust_9="121.70069"></scales>
<clustering>
<clus scale="   80.088">  5  6 -1 -1</clus>
<clus scale="   82.493">  7  8 -1 -1</clus>
<clus scale="   90.414">  1  7  2 -1</clus>
<clus scale="  121.701">  2  9  1 -1</clus>
<clus scale="  121.701">  2  5  1 -1</clus>
</clustering>
</event>
<event>
 9    1  0.6296820E-005  0.1119843E+03  0.7546771E-02  0.1259185E+00
         -2   -1    0    0    0  501 -0.00000000000E+00  0.00000000000E+00  0.44257473552E+03  0.44257473552E+03  0.00000000000E+00 0.  1.
         21   -1    0    0  501  502  0.00000000000E+00 -0.00000000000E+00 -0.37823639611E+02  0.37823639611E+02  0.00000000000E+00 0.  1.
         23    2    1    2    0    0 -0.53663288411E+02  0.31547405943E+02  0.19493711311E+03  0.22341519216E+03  0.89659816389E+02 0.  0.
        -24    2    1    2    0    0  0.47519429306E+02 -0.60672210515E+02  0.13500546684E+03  0.17647035601E+03  0.83523033843E+02 0.  0.
         11    1    4    4    0    0 -0.19537184331E+02 -0.53189882293E+01  0.53846561247E+02  0.57527779077E+02  0.00000000000E+00 0. -1.
        -12    1    4    4    0    0  0.67056613637E+02 -0.55353222285E+02  0.81158905595E+02  0.11894257693E+03  0.00000000000E+00 0.  1.
        -13    1    3    3    0    0 -0.41527743812E+02 -0.26874065328E+02  0.86380046397E+02  0.99540350155E+02  0.00000000000E+00 0.  1.
         13    1    3    3    0    0 -0.12135544599E+02  0.58421471271E+02  0.10855706671E+03  0.12387484200E+03  0.00000000000E+00 0. -1.
         -1    1    1    2    0  502  0.61438591050E+01  0.29124804572E+02  0.74808515964E+02  0.80512826970E+02  0.00000000000E+00 0.  1.
<scales pt_clust_5="13000.00000" pt_clust_6="13000.00000" pt_clust_7="13000.00000" pt_clust_8="13000.00000" pt_clust_9="29.76579"></scales>
<clustering>
<clus scale="   29.766">  2  9  1 -1</clus>
<clus scale="   83.523">  5  6 -1 -1</clus>
<clus scale="   89.660">  7  8 -1 -1</clus>
<clus scale="  107.134">  2  5  1 -1</clus>
<clus scale="   29.766">  2  5  1 -1</clus>
</clustering>
</event>
<event>
 9    1  0.6296820E-005  0.8770392E+02  0.7546771E-02  0.1312733E+00
          1   -1    0    0  502    0 -0.00000000000E+00  0.00000000000E+00  0.46007579923E+03  0.46007579923E+03  0.00000000000E+00 0. -1.
         21   -1    0    0  501  502  0.00000000000E+00 -0.00000000000E+00 -0.24970169153E+02  0.24970169153E+02  0.00000000000E+00 0. -1.
         23    2    1    2    0    0  0.16817172107E+02  0.42373318642E+01  0.25759728196E+03  0.27243716165E+03  0.86976290541E+02 0.  0.
        -24    2    1    2    0    0  0.14138069601E+01  0.21448112354E+02  0.14586222944E+03  0.16795919901E+03  0.80451738209E+02 0.  0.
         13    1    4    4    0    0  0.44348288930E+01  0.51175345978E+02  0.10908049507E+03  0.12057005494E+03  0.00000000000E+00 0. -1.
        -14    1    4    4    0    0 -0.30210219328E+01 -0.29727233623E+02  0.36781734369E+02  0.47389144069E+02  0.00000000000E+00 0.  1.
        -11    1    3    3    0    0 -0.35346121765E+02 -0.30981504804E+01  0.89384742921E+02  0.96169533259E+02  0.00000000000E+00 0.  1.
         11    1    3    3    0    0  0.52163293873E+02  0.73354823446E+01  0.16821253904E+03  0.17626762839E+03  0.00000000000E+00 0. -1.
          2    1    1    2  501    0 -0.18230979067E+02 -0.25685444219E+02  0.31646118676E+02  0.44649607722E+02  0.00000000000E+00 0. -1.
<scales pt_clust_5="13000.00000" pt_clust_6="13000.00000" pt_clust_7="13000.00000" pt_clust_8="13000.00000" pt_clust_9="31.49779"></scales>
<clustering>
<clus scale="   31.498">  2  9  1 -1</clus>
<clus scale="   80.452">  5  6 -1 -1</clus>
<clus scale="   81.238">  2  5  1 -1</clus>
<clus scale="   86.976">  7  8 -1 -1</clus>
<clus scale="   31.498">  2  5  1 -1</clus>
</clustering>
</event>
<event>
 9    1  0.6296820E-005  0.1022100E+03  0.7546771E-02  0.1287978E+00
         21   -1    0    0  501  502  0.00000000000E+00  0.00000000000E+00  0.47008556887E+02  0.47008556887E+02  0.00000000000E+00 0.  1.
          1   -1    0    0  502    0 -0.00000000000E+00 -0.00000000000E+00 -0.35283850652E+03  0.35283850652E+03  0.00000000000E+00 0. -1.
        -24    2    1    2    0    0 -0.23474712486E+02 -0.13354246447E+01 -0.14838623195E+03  0.17040239100E+03  0.80409300091E+02 0.  0.
         23    2    1    2    0    0 -0.27127680191E+02 -0.67400154719E+01 -0.65524945911E+02  0.12420743811E+03  0.10174787617E+03 0.  0.
         11    1    3    3    0    0 -0.69325956692E+01  0.30940567488E+02 -0.21190069212E+02  0.38136578667E+02  0.00000000000E+00 0. -1.
        -12    1    3    3    0    0 -0.16542116817E+02 -0.32275992133E+02 -0.12719616274E+03  0.13226581234E+03  0.00000000000E+00 0.  1.
        -13    1    4    4    0    0 -0.44612963570E+02 -0.45042171290E+02 -0.38292613480E+02  0.74063742548E+02  0.00000000000E+00 0.  1.
         13    1    4    4    0    0  0.17485283380E+02  0.38302155818E+02 -0.27232332430E+02  0.50143695564E+02  0.00000000000E+00 0. -1.
          2    1    1    2  501    0  0.50602392677E+02  0.80754401166E+01 -0.91918771767E+02  0.10523723429E+03  0.00000000000E+00 0. -1.
<scales pt_clust_5="13000.00000" pt_clust_6="13000.00000" pt_clust_7="13000.00000" pt_clust_8="13000.00000" pt_clust_9="51.24273"></scales>
<clustering>
<clus scale="   51.243">  1  9  2 -1</clus>
<clus scale="   80.409">  5  6 -1 -1</clus>
<clus scale="   80.993">  2  5  1 -1</clus>
<clus scale="  101.748">  7  8 -1 -1</clus>
<clus scale="   51.243">  1  5  2 -1</clus>
</clustering>
</event>
<event>
 9    1  0.6296820E-005  0.1664139E+03  0.7546771E-02  0.1199249E+00
          1   -1    0    0  502    0 -0.00000000000E+00  0.00000000000E+00  0.96423046246E+03  0.96423046246E+03  0.00000000000E+00 0. -1.
         21   -1    0    0  501  502  0.00000000000E+00 -0.00000000000E+00 -0.76609742439E+02  0.76609742439E+02  0.00000000000E+00 0. -1.
         23    2    1    2    0    0 -0.47941627922E+02  0.45764919827E+02  0.21013206213E+03  0.23849845897E+03  0.91286383550E+02 0.  0.
        -24    2    1    2    0    0 -0.36442482879E+02  0.13063642618E+03  0.86025374661E+02  0.17939156458E+03  0.79918946157E+02 0.  0.
         13    1    4    4    0    0 -0.57287792582E+02  0.10369376502E+03  0.46636669204E+02  0.12731561962E+03  0.00000000000E+00 0. -1.
        -14    1    4    4    0    0  0.20845309702E+02  0.26942661155E+02  0.39388705457E+02  0.52075944968E+02  0.00000000000E+00 0.  1.
        -13    1    3    3    0    0  0.13341947408E+02  0.33762315246E+02  0.13983110944E+03  0.14446674586E+03  0.00000000000E+00 0.  1.
         13    1    3    3    0    0 -0.61283575330E+02  0.12002604581E+02  0.70300952694E+02  0.94031713117E+02  0.00000000000E+00 0. -1.
          2    1    1    2  501    0  0.84384110802E+02 -0.17640134601E+03  0.59146328322E+03  0.62295018134E+03  0.00000000000E+00 0. -1.
<scales pt_clust_5="13000.00000" pt_clust_6="13000.00000" pt_clust_7="13000.00000" pt_clust_8="13000.00000" pt_clust_9="145.96767"></scales>
<clustering>
<clus scale="   79.919">  5  6 -1 -1</clus>
<clus scale="   91.286">  7  8 -1 -1</clus>
<clus scale="  112.810">  1  7  2 -1</clus>
<clus scale="  145.968">  2  9  1 -1</clus>
<clus scale="  145.968">  2  5  1 -1</clus>
</clustering>
</event>
<event>
 9    1  0.6296820E-005  0.1806759E+03  0.7546771E-02  0.1167446E+00
          1   -1    0    0  502    0 -0.00000000000E+00  0.00000000000E+00  0.21333100203E+03  0.21333100203E+03  0.00000000000E+00 0. -1.
         21   -1    0    0  501  502  0.00000000000E+00 -0.00000000000E+00 -0.35711961011E+03  0.35711961011E+03  0.00000000000E+00 0.  1.
        -24    2    1    2    0    0 -0.54912262011E+02 -0.15353986508E+03  0.13409460514E+03  0.22880485284E+03  0.88206864077E+02 0.  0.
         23    2    1    2    0    0  0.23227821152E+02  0.12004368852E+03 -0.22240708935E+03  0.26951048391E+03  0.90669557800E+02 0.  0.
         13    1    3    3    0    0 -0.67173653896E+02 -0.15780768322E+03  0.12993704694E+03  0.21517249087E+03  0.00000000000E+00 0. -1.
        -14    1    3    3    0    0  0.12261391885E+02  0.42678181448E+01  0.41575581987E+01  0.13632361969E+02  0.00000000000E+00 0.  1.
        -13    1    4    4    0    0  0.44071437571E+02  0.12053435128E+03 -0.16921550705E+03  0.21237869308E+03  0.00000000000E+00 0.  1.
         13    1    4    4    0    0 -0.20843616419E+02 -0.49066275576E+00 -0.53191582302E+02  0.57131790828E+02  0.00000000000E+00 0. -1.
          2    1    1    2  501    0  0.31684440859E+02  0.33496176557E+02 -0.55476123866E+02  0.72135275390E+02  0.00000000000E+00 0. -1.
<scales pt_clust_5="13000.00000" pt_clust_6="13000.00000" pt_clust_7="13000.00000" pt_clust_8="13000.00000" pt_clust_9="46.10746"></scales>
<clustering>
<clus scale="   46.107">  2  9  1 -1</clus>
<clus scale="   88.207">  5  6 -1 -1</clus>
<clus scale="   90.670">  7  8 -1 -1</clus>
<clus scale="  179.453">  1  5  2 -1</clus>
<clus scale="   46.107">  2  5  1 -1</clus>
</clustering>
</event>
<event>
 9    1  0.6296820E-005  0.3965512E+03  0.7546771E-02  0.1065862E+00
         21   -1    0    0  501  502  0.00000000000E+00  0.00000000000E+00  0.13209949724E+04  0.13209949724E+04  0.00000000000E+00 0. -1.
          1   -1    0    0  502    0 -0.00000000000E+00 -0.00000000000E+00 -0.43726253832E+03  0.43726253832E+03  0.00000000000E+00 0. -1.
         23    2    1    2    0    0 -0.19971657404E+03 -0.38567266380E+01 -0.26861705540E+03  0.34714851812E+03  0.91953177714E+02 0.  0.
        -24    2    1    2    0    0 -0.29807892651E+03 -0.11532969510E+02  0.35290879183E+03  0.46922649878E+03  0.81515863376E+02 0.  0.
         13    1    4    4    0    0 -0.27311163896E+03  0.12455157335E+02  0.32539265242E+03  0.42500056062E+03  0.00000000000E+00 0. -1.
        -14    1    4    4    0    0 -0.24967287553E+02 -0.23988126845E+02  0.27516139413E+02  0.44225938153E+02  0.00000000000E+00 0.  1.
        -13    1    3    3    0    0 -0.11675340214E+03 -0.46309891553E+02 -0.17119639197E+03  0.21233032659E+03  0.00000000000E+00 0.  1.
         13    1    3    3    0    0 -0.82963171893E+02  0.42453164915E+02 -0.97420663438E+02  0.13481819153E+03  0.00000000000E+00 0. -1.
          2    1    1    2  501    0  0.49779550055E+03  0.15389696148E+02  0.79944069762E+03  0.94188249380E+03  0.00000000000E+00 0. -1.
<scales pt_clust_5="13000.00000" pt_clust_6="13000.00000" pt_clust_7="13000.00000" pt_clust_8="13000.00000" pt_clust_9="388.08265"></scales>
<clustering>
<clus scale="   81.516">  5  6 -1 -1</clus>
<clus scale="   91.953">  7  8 -1 -1</clus>
<clus scale="  219.902">  2  7  1 -1</clus>
<clus scale="  388.083">  1  9  2 -1</clus>
<clus scale="  388.083">  1  5  2 -1</clus>
</clustering>
</event>
<event>
 9    1  0.6296820E-005  0.1141877E+03  0.7546771E-02  0.1257326E+00
          3   -1    0    0  502    0 -0.00000000000E+00  0.00000000000E+00  0.67097677344E+03  0.67097677344E+03  0.00000000000E+00 0. -1.
         21   -1    0    0  501  502  0.00000000000E+00 -0.00000000000E+00 -0.79804727622E+02  0.79804727622E+02  0.00000000000E+00 0.  1.
        -24    2    1    2    0    0 -0.17858618911E+02 -0.70129778088E+02  0.59119627391E+03  0.60094745708E+03  0.79923062040E+02 0.  0.
         23    2    1    2    0    0  0.25512143172E+02  0.23329837011E+02  0.16671430047E+02  0.99559239968E+02  0.91863784697E+02 0.  0.
         11    1    3    3    0    0 -0.48428342824E+02 -0.56291609035E+02  0.41006594657E+03  0.41673508393E+03  0.00000000000E+00 0. -1.
        -12    1    3    3    0    0  0.30569723914E+02 -0.13838169053E+02  0.18113032733E+03  0.18421237315E+03  0.00000000000E+00 0.  1.
        -11    1    4    4    0    0  0.22882852029E+02 -0.43874781181E+01 -0.34308407399E+02  0.41472179826E+02  0.00000000000E+00 0.  1.
         11    1    4    4    0    0  0.26292911427E+01  0.27717315129E+02  0.50979837446E+02  0.58087060142E+02  0.00000000000E+00 0. -1.
          4    1    1    2  501    0 -0.76535242613E+01  0.46799941077E+02 -0.16695658132E+02  0.50274804017E+02  0.00000000000E+00 0. -1.
<scales pt_clust_5="13000.00000" pt_clust_6="13000.00000" pt_clust_7="13000.00000" pt_clust_8="13000.00000" pt_clust_9="47.42163"></scales>
<clustering>
<clus scale="   47.422">  2  9  1 -1</clus>
<clus scale="   79.923">  5  6 -1 -1</clus>
<clus scale="   91.864">  7  8 -1 -1</clus>
<clus scale="  104.822">  1  5  2 -1</clus>
<clus scale="   47.422">  2  5  1 -1</clus>
</clustering>
</event>
<event>
 9    1  0.6296820E-005  0.2759844E+03  0.7546771E-02  0.1133386E+00
          1   -1    0    0  502    0 -0.00000000000E+00  0.00000000000E+00  0.12171707029E+04  0.12171707029E+04  0.00000000000E+00 0. -1.
         21   -1    0    0  501  502  0.00000000000E+00 -0.00000000000E+00 -0.11834459366E+03  0.11834459366E+03  0.00000000000E+00 0. -1.
         23    2    1    2    0    0 -0.61037331854E+02  0.22197468097E+02  0.33614549010E+03  0.35456612373E+03  0.92222893668E+02 0.  0.
        -24    2    1    2    0    0  0.23981684699E+03  0.16231716339E+03  0.61534065384E+03  0.68477890144E+03  0.80118923831E+02 0.  0.
         13    1    4    4    0    0  0.67783209665E+02  0.91125558136E+02  0.25631266399E+03  0.28034730707E+03  0.00000000000E+00 0. -1.
        -14    1    4    4    0    0  0.17203363733E+03  0.71191605256E+02  0.35902798985E+03  0.40443159437E+03  0.00000000000E+00 0.  1.
        -13    1    3    3    0    0 -0.59393596391E+02  0.52710091918E+02  0.27461367797E+03  0.28586469738E+03  0.00000000000E+00 0.  1.
         13    1    3    3    0    0 -0.16437354628E+01 -0.30512623821E+02  0.61531812128E+02  0.68701426349E+02  0.00000000000E+00 0. -1.
          2    1    1    2  501    0 -0.17877951514E+03 -0.18451463149E+03  0.14733996528E+03  0.29617027136E+03  0.00000000000E+00 0. -1.
<scales pt_clust_5="13000.00000" pt_clust_6="13000.00000" pt_clust_7="13000.00000" pt_clust_8="13000.00000" pt_clust_9="264.09915"></scales>
<clustering>
<clus scale="   80.119">  5  6 -1 -1</clus>
<clus scale="   92.223">  7  8 -1 -1</clus>
<clus scale="  112.798">  1  7  2 -1</clus>
<clus scale="  264.099">  2  9  1 -1</clus>
<clus scale="  264.099">  2  5  1 -1</clus>
</clustering>
</event>
<event>
 9    1  0.6296820E-005  0.9655564E+02  0.7546771E-02  0.1294205E+00
         21   -1    0    0  501  502  0.00000000000E+00  0.00000000000E+00  0.44204312390E+02  0.44204312390E+02  0.00000000000E+00 0.  1.
          3   -1    0    0  502    0 -0.00000000000E+00 -0.00000000000E+00 -0.28931074141E+03  0.28931074141E+03  0.00000000000E+00 0. -1.
        -24    2    1    2    0    0  0.21252681734E+02  0.10224000655E+02 -0.10043062372E+03  0.13099427802E+03  0.80727839205E+02 0.  0.
         23    2    1    2    0    0 -0.38947785591E+02  0.17815367236E+01 -0.63693971497E+02  0.11876334605E+03  0.92345581841E+02 0.  0.
         11    1    3    3    0    0  0.13019788426E+02  0.44990287929E+02 -0.69086555996E+02  0.83466119582E+02  0.00000000000E+00 0. -1.
        -12    1    3    3    0    0  0.82328933089E+01 -0.34766287274E+02 -0.31344067725E+02  0.47528158439E+02  0.00000000000E+00 0.  1.
        -11    1    4    4    0    0  0.97842105753E+01  0.37548382545E+02 -0.33156278654E+02  0.51038716897E+02  0.00000000000E+00 0. -1.
         11    1    4    4    0    0 -0.48731996166E+02 -0.35766845822E+02 -0.30537692843E+02  0.67724629158E+02  0.00000000000E+00 0.  1.
          4    1    1    2  501    0  0.17695103857E+02 -0.12005537379E+02 -0.80981833802E+02  0.83757429725E+02  0.00000000000E+00 0. -1.
<scales pt_clust_5="13000.00000" pt_clust_6="13000.00000" pt_clust_7="13000.00000" pt_clust_8="13000.00000" pt_clust_9="21.38341"></scales>
<clustering>
<clus scale="   21.383">  1  9  2 -1</clus>
<clus scale="   80.728">  5  6 -1 -1</clus>
<clus scale="   85.512">  2  5  1 -1</clus>
<clus scale="   92.346">  7  8 -1 -1</clus>
<clus scale="   21.383">  1  5  2 -1</clus>
</clustering>
</event>
<event>
 9    1  0.6296820E-005  0.9275644E+02  0.7546771E-02  0.1302346E+00
         -2   -1    0    0    0  501 -0.00000000000E+00  0.00000000000E+00  0.29360935667E+03  0.29360935667E+03  0.00000000000E+00 0.  1.
         21   -1    0    0  501  502  0.00000000000E+00 -0.00000000000E+00 -0.65962414372E+02  0.65962414372E+02  0.00000000000E+00 0. -1.
         23    2    1    2    0    0  0.91528880637E+01  0.35293543824E+01  0.59257167328E+02  0.10858963576E+03  0.90465824561E+02 0.  0.
        -24    2    1    2    0    0 -0.10619609027E+01  0.53101815743E+02  0.29515783483E+02  0.10078713522E+03  0.80411035027E+02 0.  0.
         13    1    4    4    0    0  0.14865717829E+02  0.70283757213E+02  0.15519248138E+02  0.73495871702E+02  0.00000000000E+00 0. -1.
        -14    1    4    4    0    0 -0.15927678732E+02 -0.17181941470E+02  0.13996535345E+02  0.27291263513E+02  0.00000000000E+00 0.  1.
        -13    1    3    3    0    0 -0.36029107238E+02  0.21663122524E+02  0.23298068261E+02  0.48064409188E+02  0.00000000000E+00 0.  1.
         13    1    3    3    0    0  0.45181995302E+02 -0.18133768141E+02  0.35959099067E+02  0.60525226577E+02  0.00000000000E+00 0. -1.
         -1    1    1    2    0  502 -0.80909271610E+01 -0.56631170125E+02  0.13887399148E+03  0.15019500006E+03  0.00000000000E+00 0.  1.
<scales pt_clust_5="13000.00000" pt_clust_6="13000.00000" pt_clust_7="13000.00000" pt_clust_8="13000.00000" pt_clust_9="57.20626"></scales>
<clustering>
<clus scale="   57.206">  2  9  1 -1</clus>
<clus scale="   80.411">  5  6 -1 -1</clus>
<clus scale="   82.980">  2  5  1 -1</clus>
<clus scale="   90.466">  7  8 -1 -1</clus>
<clus scale="   57.206">  2  5  1 -1</clus>
</clustering>
</event>
