<event>
10    4  0.7508634E-005  0.2138400E+03  0.7546771E-02  0.1157953E+00
          2   -1    0    0  503    0 -0.00000000000E+00  0.00000000000E+00  0.12852041171E+04  0.12852041171E+04  0.00000000000E+00 0. -1.
         21   -1    0    0  501  502  0.00000000000E+00 -0.00000000000E+00 -0.81139455151E+02  0.81139455151E+02  0.00000000000E+00 0. -1.
         24    2    1    2    0    0  0.94034513639E+02 -0.66231738823E+02  0.87237183505E+03  0.88358744142E+03  0.80405317430E+02 0.  0.
         23    2    1    2    0    0 -0.83919075376E+01  0.48973016253E+02  0.21855929279E+03  0.24201194296E+03  0.91284366863E+02 0.  0.
        -11    1    3    3    0    0  0.50803284350E+02 -0.43398085385E+02  0.23417487829E+03  0.24352051482E+03  0.00000000000E+00 0.  1.
         12    1    3    3    0    0  0.43231229288E+02 -0.22833653438E+02  0.63819695676E+03  0.64006692660E+03  0.00000000000E+00 0. -1.
        -11    1    4    4    0    0 -0.95484571364E+01  0.72934804395E+02  0.12149546086E+03  0.14202748232E+03  0.00000000000E+00 0. -1.
         11    1    4    4    0    0  0.11565495988E+01 -0.23961788143E+02  0.97063831936E+02  0.99984460633E+02  0.00000000000E+00 0.  1.
         21    1    1    2  503  502 -0.26071489726E+01  0.70241687195E+02 -0.21882283794E+02  0.73617431291E+02  0.00000000000E+00 0. -1.
          1    1    1    2  501    0 -0.83035457129E+02 -0.52982964625E+02  0.13501581788E+03  0.16712675656E+03  0.00000000000E+00 0. -1.
<scales pt_clust_5="13000.00000" pt_clust_6="13000.00000" pt_clust_7="13000.00000" pt_clust_8="13000.00000" pt_clust_9="70.29006" pt_clust_10="13000.00000"></scales>
<clustering>
<clus scale="   70.290">  2  9  1 -1</clus>
<clus scale="   80.405">  5  6 -1 -1</clus>
<clus scale="   91.284">  7  8 -1 -1</clus>
<clus scale="   86.450">  7 10 -1 -1</clus>
<clus scale="  134.865">  1  5  2 -1</clus>
<clus scale="   70.290">  2  5  1 -1</clus>
</clustering>
</event>
<event>
10    4  0.7508634E-005  0.2993002E+03  0.7546771E-02  0.1127725E+00
         21   -1    0    0  501  502  0.00000000000E+00  0.00000000000E+00  0.41654673677E+02  0.41654673677E+02  0.00000000000E+00 0. -1.
          2   -1    0    0  503    0 -0.00000000000E+00 -0.00000000000E+00 -0.15235352958E+04  0.15235352958E+04  0.00000000000E+00 0. -1.
         24    2    1    2    0    0 -0.55648394541E+02 -0.33824088432E+02 -0.69525550043E+03  0.70285737544E+03  0.79921627626E+02 0.  0.
         23    2    1    2    0    0  0.82794775649E+01 -0.11909073531E+03 -0.34773353450E+03  0.37934194158E+03  0.93437383524E+02 0.  0.
        -11    1    3    3    0    0 -0.57271711922E+01 -0.32710734370E+02 -0.97107318996E+02  0.10262857319E+03  0.00000000000E+00 0.  1.
         12    1    3    3    0    0 -0.49921223349E+02 -0.11133540621E+01 -0.59814818143E+03  0.60022880225E+03  0.00000000000E+00 0. -1.
        -13    1    4    4    0    0 -0.40369222134E+02 -0.32804267332E+02 -0.10512433356E+03  0.11728989537E+03  0.00000000000E+00 0.  1.
         13    1    4    4    0    0  0.48648699699E+02 -0.86286467982E+02 -0.24260920095E+03  0.26205204621E+03  0.00000000000E+00 0. -1.
         21    1    1    2  503  502  0.13078085719E+02  0.15383387240E+02  0.16012028229E+01  0.20254598972E+02  0.00000000000E+00 0.  1.
          1    1    1    2  501    0  0.34290831257E+02  0.13753143651E+03 -0.44049278999E+03  0.46273605346E+03  0.00000000000E+00 0. -1.
<scales pt_clust_5="13000.00000" pt_clust_6="13000.00000" pt_clust_7="13000.00000" pt_clust_8="13000.00000" pt_clust_9="20.19121" pt_clust_10="13000.00000"></scales>
<clustering>
<clus scale="   20.191">  1  9  2 -1</clus>
<clus scale="   79.922">  5  6 -1 -1</clus>
<clus scale="   93.437">  7  8 -1 -1</clus>
<clus scale="  101.616">  2  5  1 -1</clus>
<clus scale="  124.438">  7 10 -1 -1</clus>
<clus scale="   20.191">  1  5  2 -1</clus>
</clustering>
</event>
<event>
10    4  0.7508634E-005  0.3565223E+03  0.7546771E-02  0.1096083E+00
         21   -1    0    0  501  502  0.00000000000E+00  0.00000000000E+00  0.45293465899E+02  0.45293465899E+02  0.00000000000E+00 0. -1.
          2   -1    0    0  503    0 -0.00000000000E+00 -0.00000000000E+00 -0.16296359420E+04  0.16296359420E+04  0.00000000000E+00 0. -1.
         24    2    1    2    0    0  0.88402937305E+02  0.31318982177E+02 -0.32839722367E+03  0.35197262278E+03  0.85111883442E+02 0.  0.
         23    2    1    2    0    0 -0.30971293347E+02 -0.18492699899E+03 -0.76351344190E+03  0.79180106272E+03  0.94015589069E+02 0.  0.
        -11    1    3    3    0    0  0.91074395590E+02  0.26878517031E+02 -0.33222554776E+03  0.34552975964E+03  0.00000000000E+00 0.  1.
         12    1    3    3    0    0 -0.26714582846E+01  0.44404651466E+01  0.38283240929E+01  0.64428631403E+01  0.00000000000E+00 0. -1.
        -11    1    4    4    0    0  0.12569416233E+02 -0.11057595019E+03 -0.55743580085E+03  0.56843619084E+03  0.00000000000E+00 0. -1.
         11    1    4    4    0    0 -0.43540709581E+02 -0.74351048793E+02 -0.20607764105E+03  0.22336487188E+03  0.00000000000E+00 0.  1.
         21    1    1    2  503  502  0.25300280776E+02  0.25465912094E+02 -0.40203421088E+02  0.53897420655E+02  0.00000000000E+00 0. -1.
          1    1    1    2  501    0 -0.82731924734E+02  0.12814210472E+03 -0.45222838944E+03  0.47725830175E+03  0.00000000000E+00 0. -1.
<scales pt_clust_5="13000.00000" pt_clust_6="13000.00000" pt_clust_7="13000.00000" pt_clust_8="13000.00000" pt_clust_9="35.89731" pt_clust_10="13000.00000"></scales>
<clustering>
<clus scale="   35.897">  1  9  2 -1</clus>
<clus scale="   85.112">  5  6 -1 -1</clus>
<clus scale="   94.016">  7  8 -1 -1</clus>
<clus scale="  134.245">  2  5  1 -1</clus>
<clus scale="  156.425">  7 10 -1 -1</clus>
<clus scale="   35.897">  1  5  2 -1</clus>
</clustering>
</event>
<event>
10    4  0.7508634E-005  0.1489758E+03  0.7546771E-02  0.1225445E+00
          2   -1    0    0  503    0 -0.00000000000E+00  0.00000000000E+00  0.11693661506E+03  0.11693661506E+03  0.00000000000E+00 0. -1.
         21   -1    0    0  501  502  0.00000000000E+00 -0.00000000000E+00 -0.42713125060E+03  0.42713125060E+03  0.00000000000E+00 0. -1.
         24    2    1    2    0    0  0.63343005756E+02  0.73200039315E-01 -0.32101394706E+03  0.33714458105E+03  0.81266060489E+02 0.  0.
         23    2    1    2    0    0 -0.14163644245E+02 -0.34234534357E+02  0.43279829605E+02  0.10686618949E+03  0.90413641915E+02 0.  0.
        -11    1    3    3    0    0  0.53357874774E+02  0.31450937827E+02 -0.13898425069E+03  0.15216059355E+03  0.00000000000E+00 0.  1.
         12    1    3    3    0    0  0.99851309822E+01 -0.31377737788E+02 -0.18202969637E+03  0.18498398749E+03  0.00000000000E+00 0. -1.
        -11    1    4    4    0    0 -0.48123192346E+02 -0.98567111564E+00  0.32660539149E+02  0.58168066898E+02  0.00000000000E+00 0. -1.
         11    1    4    4    0    0  0.33959548102E+02 -0.33248863241E+02  0.10619290457E+02  0.48698122591E+02  0.00000000000E+00 0.  1.
         21    1    1    2  503  502 -0.29769843150E+02 -0.10844809934E+02 -0.39395843062E+02  0.50555770336E+02  0.00000000000E+00 0.  1.
          1    1    1    2  501    0 -0.19409518362E+02  0.45006144252E+02  0.69353249798E+01  0.49501324791E+02  0.00000000000E+00 0. -1.
<scales pt_clust_5="13000.00000" pt_clust_6="13000.00000" pt_clust_7="13000.00000" pt_clust_8="13000.00000" pt_clust_9="31.68365" pt_clust_10="13000.00000"></scales>
<clustering>
<clus scale="   31.684">  2  9  1 -1</clus>
<clus scale="   81.266">  5  6 -1 -1</clus>
<clus scale="   90.066">  1  5  2 -1</clus>
<clus scale="   90.414">  7  8 -1 -1</clus>
<clus scale="   43.257">  7 10 -1 -1</clus>
<clus scale="   31.684">  2  5  1 -1</clus>
</clustering>
</event>
<event>
10    4  0.7508634E-005  0.5053116E+03  0.7546771E-02  0.1064299E+00
          2   -1    0    0  503    0 -0.00000000000E+00  0.00000000000E+00  0.13386119771E+04  0.13386119771E+04  0.00000000000E+00 0. -1.
         21   -1    0    0  501  502  0.00000000000E+00 -0.00000000000E+00 -0.17351920084E+03  0.17351920084E+03  0.00000000000E+00 0. -1.
         24    2    1    2    0    0  0.15671680832E+02  0.65762859841E+02  0.28466548684E+03  0.30320403484E+03  0.79548048546E+02 0.  0.
         23    2    1    2    0    0  0.80510432971E+02  0.15135414414E+03  0.27681923352E+03  0.33780551647E+03  0.89964838403E+02 0.  0.
        -13    1    3    3    0    0  0.34002025343E+02  0.32699066834E+02  0.65028687856E+02  0.80337394429E+02  0.00000000000E+00 0.  1.
         14    1    3    3    0    0 -0.18330344511E+02  0.33063793007E+02  0.21963679899E+03  0.22286664041E+03  0.00000000000E+00 0. -1.
        -13    1    4    4    0    0  0.23877614609E+02  0.19937584402E+02  0.62554206074E+01  0.31729765807E+02  0.00000000000E+00 0.  1.
         13    1    4    4    0    0  0.56632818362E+02  0.13141655974E+03  0.27056381291E+03  0.30607575067E+03  0.00000000000E+00 0. -1.
         21    1    1    2  503  502  0.43775181539E+02  0.70837827330E+02 -0.80487224699E+02  0.11581216533E+03  0.00000000000E+00 0. -1.
          1    1    1    2  501    0 -0.13995729534E+03 -0.28795483131E+03  0.68409528056E+03  0.75530946127E+03  0.00000000000E+00 0. -1.
<scales pt_clust_5="13000.00000" pt_clust_6="13000.00000" pt_clust_7="13000.00000" pt_clust_8="13000.00000" pt_clust_9="83.27223" pt_clust_10="13000.00000"></scales>
<clustering>
<clus scale="   79.548">  5  6 -1 -1</clus>
<clus scale="   83.272">  2  9  1 -1</clus>
<clus scale="   89.965">  7  8 -1 -1</clus>
<clus scale="  110.985">  1  5  2 -1</clus>
<clus scale="  237.770">  7 10 -1 -1</clus>
<clus scale="   83.272">  2  5  1 -1</clus>
</clustering>
</event>
<event>
10    4  0.7508634E-005  0.1490681E+03  0.7546771E-02  0.1236510E+00
         21   -1    0    0  501  502  0.00000000000E+00  0.00000000000E+00  0.20410979526E+03  0.20410979526E+03  0.00000000000E+00 0.  1.
          2   -1    0    0  503    0 -0.00000000000E+00 -0.00000000000E+00 -0.33823062401E+03  0.33823062401E+03  0.00000000000E+00 0. -1.
         24    2    1    2    0    0  0.16464765621E+01  0.10946255014E+02  0.14433278372E+03  0.16112697442E+03  0.70763112183E+02 0.  0.
         23    2    1    2    0    0  0.40117930652E+02 -0.25929282716E+02 -0.18368085853E+03  0.21068568648E+03  0.91476907663E+02 0.  0.
        -13    1    3    3    0    0  0.20529225116E+00 -0.22279861485E+02  0.11386138244E+03  0.11602089805E+03  0.00000000000E+00 0.  1.
         14    1    3    3    0    0  0.14411843110E+01  0.33226116499E+02  0.30471401279E+02  0.45106076373E+02  0.00000000000E+00 0. -1.
        -13    1    4    4    0    0 -0.96996029488E+01 -0.47438054166E+02 -0.97169703276E+02  0.10856519937E+03  0.00000000000E+00 0.  1.
         13    1    4    4    0    0  0.49817533601E+02  0.21508771451E+02 -0.86511155250E+02  0.10212048710E+03  0.00000000000E+00 0. -1.
         21    1    1    2  503  502 -0.12839864572E+02 -0.16569410584E+02  0.31140103073E+02  0.37538160700E+02  0.00000000000E+00 0.  1.
          1    1    1    2  501    0 -0.28924542642E+02  0.31552438286E+02 -0.12591285701E+03  0.13298959767E+03  0.00000000000E+00 0. -1.
<scales pt_clust_5="13000.00000" pt_clust_6="13000.00000" pt_clust_7="13000.00000" pt_clust_8="13000.00000" pt_clust_9="20.96205" pt_clust_10="13000.00000"></scales>
<clustering>
<clus scale="   20.962">  1  9  2 -1</clus>
<clus scale="   70.763">  5  6 -1 -1</clus>
<clus scale="   71.563">  2  5  1 -1</clus>
<clus scale="   91.477">  7  8 -1 -1</clus>
<clus scale="   44.439">  7 10 -1 -1</clus>
<clus scale="   20.962">  1  5  2 -1</clus>
</clustering>
</event>
<event>
10    4  0.7508634E-005  0.2441620E+03  0.7546771E-02  0.1143485E+00
         -1   -1    0    0    0  501 -0.00000000000E+00  0.00000000000E+00  0.45858123580E+03  0.45858123580E+03  0.00000000000E+00 0.  1.
         21   -1    0    0  501  502  0.00000000000E+00 -0.00000000000E+00 -0.18609720824E+03  0.18609720824E+03  0.00000000000E+00 0.  1.
         24    2    1    2    0    0  0.76181476466E+02 -0.76866488047E+02 -0.51135677771E+02  0.14729814127E+03  0.85847600668E+02 0.  0.
         23    2    1    2    0    0 -0.11578665084E+03 -0.54849217010E+02  0.23134216871E+03  0.27968949153E+03  0.91060570661E+02 0.  0.
        -13    1    3    3    0    0  0.26585709620E+02 -0.24006439930E+02 -0.64322901606E+02  0.73624349133E+02  0.00000000000E+00 0.  1.
         14    1    3    3    0    0  0.49595766846E+02 -0.52860048117E+02  0.13187223836E+02  0.73673792141E+02  0.00000000000E+00 0. -1.
        -11    1    4    4    0    0 -0.92730018099E+02 -0.71720896773E+02  0.21933670381E+03  0.24869928213E+03  0.00000000000E+00 0.  1.
         11    1    4    4    0    0 -0.23056632741E+02  0.16871679764E+02  0.12005464895E+02  0.30990209401E+02  0.00000000000E+00 0. -1.
         21    1    1    2  503  502  0.12396533538E+02  0.49826147553E+02 -0.36271806262E+02  0.62864639928E+02  0.00000000000E+00 0. -1.
         -2    1    1    2    0  503  0.27208640835E+02  0.81889557504E+02  0.12854934289E+03  0.15482617131E+03  0.00000000000E+00 0.  1.
<scales pt_clust_5="13000.00000" pt_clust_6="13000.00000" pt_clust_7="13000.00000" pt_clust_8="13000.00000" pt_clust_9="51.34510" pt_clust_10="13000.00000"></scales>
<clustering>
<clus scale="   51.345">  2  9  1 -1</clus>
<clus scale="   85.848">  5  6 -1 -1</clus>
<clus scale="   91.061">  7  8 -1 -1</clus>
<clus scale="   91.219">  7 10 -1 -1</clus>
<clus scale="  127.594">  1  5  2 -1</clus>
<clus scale="   51.345">  2  5  1 -1</clus>
</clustering>
</event>
<event>
10    4  0.7508634E-005  0.1814349E+03  0.7546771E-02  0.1192957E+00
          2   -1    0    0  502    0 -0.00000000000E+00  0.00000000000E+00  0.54665877368E+03  0.54665877368E+03  0.00000000000E+00 0. -1.
         21   -1    0    0  503  502  0.00000000000E+00 -0.00000000000E+00 -0.76719005905E+02  0.76719005905E+02  0.00000000000E+00 0. -1.
         24    2    1    2    0    0  0.46824198927E+02  0.43696144551E+02  0.39244180727E+03  0.40532580925E+03  0.78591226599E+02 0.  0.
         23    2    1    2    0    0  0.25698565924E+02 -0.64583451996E+00  0.22051911285E+01  0.95291948209E+02  0.91732541297E+02 0.  0.
        -11    1    3    3    0    0 -0.20601466705E+01  0.49984636211E+02  0.23835118150E+03  0.24354464433E+03  0.00000000000E+00 0.  1.
         12    1    3    3    0    0  0.48884345597E+02 -0.62884916601E+01  0.15409062578E+03  0.16178116492E+03  0.00000000000E+00 0. -1.
        -13    1    4    4    0    0 -0.28057119950E+02  0.22251474225E+02  0.76235806389E+01  0.36612143707E+02  0.00000000000E+00 0.  1.
         13    1    4    4    0    0  0.53755685874E+02 -0.22897308745E+02 -0.54183895104E+01  0.58679804502E+02  0.00000000000E+00 0. -1.
         21    1    1    2  503  501 -0.23464243514E+02 -0.94032574613E+01 -0.18478772268E+01  0.25345741749E+02  0.00000000000E+00 0.  1.
          1    1    1    2  501    0 -0.49058521338E+02 -0.33647052570E+02  0.77140646597E+02  0.97414280369E+02  0.00000000000E+00 0. -1.
<scales pt_clust_5="13000.00000" pt_clust_6="13000.00000" pt_clust_7="13000.00000" pt_clust_8="13000.00000" pt_clust_9="25.27829" pt_clust_10="13000.00000"></scales>
<clustering>
<clus scale="   25.278">  2  9  1 -1</clus>
<clus scale="   78.591">  5  6 -1 -1</clus>
<clus scale="   91.733">  7  8 -1 -1</clus>
<clus scale="   63.456">  7 10 -1 -1</clus>
<clus scale="   99.885">  1  5  2 -1</clus>
<clus scale="   25.278">  2  5  1 -1</clus>
</clustering>
</event>
<event>
10    4  0.7508634E-005  0.3331090E+03  0.7546771E-02  0.1116762E+00
          2   -1    0    0  503    0 -0.00000000000E+00  0.00000000000E+00  0.47189983183E+03  0.47189983183E+03  0.00000000000E+00 0. -1.
         21   -1    0    0  501  502  0.00000000000E+00 -0.00000000000E+00 -0.30006295381E+03  0.30006295381E+03  0.00000000000E+00 0.  1.
         24    2    1    2    0    0  0.57353151795E+02 -0.35498668018E+02  0.15307251733E+03  0.18113976612E+03  0.69504531189E+02 0.  0.
         23    2    1    2    0    0  0.15716987682E+03  0.66990980779E+02 -0.25144584214E+01  0.19247669323E+03  0.88604702202E+02 0.  0.
        -11    1    3    3    0    0  0.41801880767E+02 -0.44128637939E+02  0.15155466231E+03  0.16328977185E+03  0.00000000000E+00 0.  1.
         12    1    3    3    0    0  0.15551271027E+02  0.86299699216E+01  0.15178550132E+01  0.17849994265E+02  0.00000000000E+00 0. -1.
        -11    1    4    4    0    0  0.82552936267E+02  0.20063528017E+02 -0.43296734934E+02  0.95352712068E+02  0.00000000000E+00 0.  1.
         11    1    4    4    0    0  0.74616940552E+02  0.46927452762E+02  0.40782276512E+02  0.97123981167E+02  0.00000000000E+00 0. -1.
         21    1    1    2  503  502 -0.21546615678E+03 -0.44755777865E+01 -0.12530333289E+03  0.24929223964E+03  0.00000000000E+00 0.  1.
          1    1    1    2  501    0  0.94312816100E+00 -0.27016734975E+02  0.14658215200E+03  0.14905408664E+03  0.00000000000E+00 0. -1.
<scales pt_clust_5="13000.00000" pt_clust_6="13000.00000" pt_clust_7="13000.00000" pt_clust_8="13000.00000" pt_clust_9="204.13597" pt_clust_10="13000.00000"></scales>
<clustering>
<clus scale="   69.505">  5  6 -1 -1</clus>
<clus scale="   88.605">  7  8 -1 -1</clus>
<clus scale="   27.033">  7 10 -1 -1</clus>
<clus scale="   96.853">  1  5  2 -1</clus>
<clus scale="  204.136">  2  9  1 -1</clus>
<clus scale="  204.136">  2  5  1 -1</clus>
</clustering>
</event>
<event>
10    4  0.7508634E-005  0.2971590E+03  0.7546771E-02  0.1136927E+00
         21   -1    0    0  503  502  0.00000000000E+00  0.00000000000E+00  0.16863725366E+03  0.16863725366E+03  0.00000000000E+00 0.  1.
          2   -1    0    0  502    0 -0.00000000000E+00 -0.00000000000E+00 -0.12004484186E+04  0.12004484186E+04  0.00000000000E+00 0. -1.
         24    2    1    2    0    0  0.18132643928E+02 -0.26624487421E+01 -0.63508677737E+02  0.10443282344E+03  0.80851598958E+02 0.  0.
         23    2    1    2    0    0 -0.43389835383E+02  0.24851733152E+03 -0.79987395847E+03  0.84367379517E+03  0.91343206311E+02 0.  0.
        -13    1    3    3    0    0 -0.19674686308E+02 -0.23097733129E+02 -0.51561713456E+02  0.59826489547E+02  0.00000000000E+00 0.  1.
         14    1    3    3    0    0  0.37807330236E+02  0.20435284387E+02 -0.11946964281E+02  0.44606333890E+02  0.00000000000E+00 0. -1.
        -13    1    4    4    0    0 -0.69310943571E+02  0.21420675934E+03 -0.66052367171E+03  0.69783956862E+03  0.00000000000E+00 0. -1.
         13    1    4    4    0    0  0.25921108188E+02  0.34310572183E+02 -0.13935028676E+03  0.14583422655E+03  0.00000000000E+00 0.  1.
         21    1    1    2  503  501  0.52829741221E+02 -0.24250221837E+03  0.21043610807E+01  0.24819898430E+03  0.00000000000E+00 0.  1.
          1    1    1    2  501    0 -0.27572549765E+02 -0.33526644127E+01 -0.17053288983E+03  0.17278006937E+03  0.00000000000E+00 0. -1.
<scales pt_clust_5="13000.00000" pt_clust_6="13000.00000" pt_clust_7="13000.00000" pt_clust_8="13000.00000" pt_clust_9="248.90932" pt_clust_10="13000.00000"></scales>
<clustering>
<clus scale="   80.852">  5  6 -1 -1</clus>
<clus scale="   82.903">  2  5  1 -1</clus>
<clus scale="   91.343">  7  8 -1 -1</clus>
<clus scale="   25.069">  7 10 -1 -1</clus>
<clus scale="  248.909">  1  9  2 -1</clus>
<clus scale="  248.909">  1  5  2 -1</clus>
</clustering>
</event>
<event>
10    4  0.7508634E-005  0.5227386E+03  0.7546771E-02  0.1056058E+00
         21   -1    0    0  501  502  0.00000000000E+00  0.00000000000E+00  0.33746642005E+03  0.33746642005E+03  0.00000000000E+00 0. -1.
          2   -1    0    0  503    0 -0.00000000000E+00 -0.00000000000E+00 -0.66805676105E+03  0.66805676105E+03  0.00000000000E+00 0. -1.
         24    2    1    2    0    0  0.52655889936E+01 -0.81919417451E+02 -0.42275477411E+03  0.44132383246E+03  0.96470765917E+02 0.  0.
         23    2    1    2    0    0  0.23704375202E+03  0.94757951086E+01  0.12484362699E+03  0.28320820894E+03  0.91331414906E+02 0.  0.
        -11    1    3    3    0    0 -0.39895531788E+02 -0.53527102096E+02 -0.16287786400E+03  0.17602841446E+03  0.00000000000E+00 0.  1.
         12    1    3    3    0    0  0.45161120782E+02 -0.28392315355E+02 -0.25987691011E+03  0.26529541800E+03  0.00000000000E+00 0. -1.
        -13    1    4    4    0    0  0.51227117685E+02  0.26723392414E+02 -0.15821593086E+01  0.57800177478E+02  0.00000000000E+00 0.  1.
         13    1    4    4    0    0  0.18581663433E+03 -0.17247597305E+02  0.12642578630E+03  0.22540803146E+03  0.00000000000E+00 0. -1.
         21    1    1    2  503  502 -0.16286471067E+02  0.20390785885E+02  0.30948553758E+02  0.40482666273E+02  0.00000000000E+00 0. -1.
          1    1    1    2  501    0 -0.22602286995E+03  0.52052836457E+02 -0.63627747630E+02  0.24050847343E+03  0.00000000000E+00 0. -1.
<scales pt_clust_5="13000.00000" pt_clust_6="13000.00000" pt_clust_7="13000.00000" pt_clust_8="13000.00000" pt_clust_9="26.09661" pt_clust_10="13000.00000"></scales>
<clustering>
<clus scale="   26.097">  1  9  2 -1</clus>
<clus scale="   91.331">  7  8 -1 -1</clus>
<clus scale="   96.471">  5  6 -1 -1</clus>
<clus scale="  126.245">  2  5  1 -1</clus>
<clus scale="  227.591">  7 10 -1 -1</clus>
<clus scale="   26.097">  1  5  2 -1</clus>
</clustering>
</event>
<event>
10    4  0.7508634E-005  0.3941771E+03  0.7546771E-02  0.1088584E+00
          2   -1    0    0  503    0 -0.00000000000E+00  0.00000000000E+00  0.14269161183E+04  0.14269161183E+04  0.00000000000E+00 0. -1.
         21   -1    0    0  501  502  0.00000000000E+00 -0.00000000000E+00 -0.56349111850E+02  0.56349111850E+02  0.00000000000E+00 0. -1.
         24    2    1    2    0    0  0.88572739926E+02 -0.95865006136E+01  0.35807569768E+03  0.37838461401E+03  0.83783528184E+02 0.  0.
         23    2    1    2    0    0  0.11217212966E+03  0.53108402333E+02  0.16835723658E+03  0.22792897459E+03  0.90577973459E+02 0.  0.
        -13    1    3    3    0    0  0.24063535573E+02 -0.38057204472E+02  0.20445005566E+03  0.20934953980E+03  0.00000000000E+00 0.  1.
         14    1    3    3    0    0  0.64509204353E+02  0.28470703859E+02  0.15362564202E+03  0.16903507420E+03  0.00000000000E+00 0. -1.
        -13    1    4    4    0    0  0.50504679985E+02  0.72958205044E+02  0.10192503794E+03  0.13513820978E+03  0.00000000000E+00 0.  1.
         13    1    4    4    0    0  0.61667449673E+02 -0.19849802710E+02  0.66432198645E+02  0.92790764808E+02  0.00000000000E+00 0. -1.
         21    1    1    2  503  502 -0.16312164563E+02 -0.44539487784E+02  0.10607648061E+03  0.11619841834E+03  0.00000000000E+00 0. -1.
          1    1    1    2  501    0 -0.18443270502E+03  0.10175860638E+01  0.73805759156E+03  0.76075322321E+03  0.00000000000E+00 0. -1.
<scales pt_clust_5="13000.00000" pt_clust_6="13000.00000" pt_clust_7="13000.00000" pt_clust_8="13000.00000" pt_clust_9="47.43261" pt_clust_10="13000.00000"></scales>
<clustering>
<clus scale="   47.433">  2  9  1 -1</clus>
<clus scale="   83.784">  5  6 -1 -1</clus>
<clus scale="   90.578">  7  8 -1 -1</clus>
<clus scale="  121.004">  1  5  2 -1</clus>
<clus scale="  124.963">  7 10 -1 -1</clus>
<clus scale="   47.433">  2  5  1 -1</clus>
</clustering>
</event>
<event>
10    4  0.7508634E-005  0.2739192E+03  0.7546771E-02  0.1110513E+00
         21   -1    0    0  503  502  0.00000000000E+00  0.00000000000E+00  0.14558945333E+03  0.14558945333E+03  0.00000000000E+00 0. -1.
          2   -1    0    0  502    0 -0.00000000000E+00 -0.00000000000E+00 -0.50254960217E+03  0.50254960217E+03  0.00000000000E+00 0. -1.
         24    2    1    2    0    0  0.18854965047E+02  0.18797330280E+03 -0.56933270155E+02  0.21333610457E+03  0.81125976038E+02 0.  0.
         23    2    1    2    0    0 -0.42109745788E+02 -0.30131518344E+02 -0.15317908892E+03  0.18564230974E+03  0.91203589804E+02 0.  0.
        -13    1    3    3    0    0 -0.31902303428E+02  0.60794099445E+02 -0.19949043194E+02  0.71495760823E+02  0.00000000000E+00 0.  1.
         14    1    3    3    0    0  0.50757268475E+02  0.12717920336E+03 -0.36984226961E+02  0.14184034374E+03  0.00000000000E+00 0. -1.
        -13    1    4    4    0    0  0.14768030244E+02 -0.29263319737E+02 -0.14678585886E+02  0.35915142808E+02  0.00000000000E+00 0.  1.
         13    1    4    4    0    0 -0.56877776032E+02 -0.86819860758E+00 -0.13850050304E+03  0.14972716693E+03  0.00000000000E+00 0. -1.
         21    1    1    2  503  501 -0.27598785326E+02 -0.13289317965E+01  0.14000594822E+01  0.27666210036E+02  0.00000000000E+00 0. -1.
          1    1    1    2  501    0  0.50853566067E+02 -0.15651285266E+03 -0.14824784925E+03  0.22149443116E+03  0.00000000000E+00 0. -1.
<scales pt_clust_5="13000.00000" pt_clust_6="13000.00000" pt_clust_7="13000.00000" pt_clust_8="13000.00000" pt_clust_9="27.63076" pt_clust_10="13000.00000"></scales>
<clustering>
<clus scale="   27.631">  1  9  2 -1</clus>
<clus scale="   81.126">  5  6 -1 -1</clus>
<clus scale="   91.204">  7  8 -1 -1</clus>
<clus scale="  162.708">  7 10 -1 -1</clus>
<clus scale="  204.019">  2  5  1 -1</clus>
<clus scale="   27.631">  1  5  2 -1</clus>
</clustering>
</event>
<event>
10    4  0.7508634E-005  0.2819500E+03  0.7546771E-02  0.1131371E+00
         21   -1    0    0  501  502  0.00000000000E+00  0.00000000000E+00  0.53806118679E+03  0.53806118679E+03  0.00000000000E+00 0. -1.
          2   -1    0    0  503    0 -0.00000000000E+00 -0.00000000000E+00 -0.10139057787E+03  0.10139057787E+03  0.00000000000E+00 0. -1.
         24    2    1    2    0    0  0.23530483533E+02  0.71383756929E+02  0.23183486926E+03  0.25548218610E+03  0.76644741517E+02 0.  0.
         23    2    1    2    0    0  0.97593480106E+01 -0.33092477054E+02 -0.33698625341E+02  0.10261613092E+03  0.90576575686E+02 0.  0.
        -13    1    3    3    0    0  0.13374296586E+02 -0.15154843456E+02  0.42822155884E+02  0.47352699225E+02  0.00000000000E+00 0.  1.
         14    1    3    3    0    0  0.10156186947E+02  0.86538600385E+02  0.18901271337E+03  0.20812948687E+03  0.00000000000E+00 0. -1.
        -11    1    4    4    0    0 -0.33144544751E+02  0.27687480674E+00  0.80153451460E+01  0.34101074238E+02  0.00000000000E+00 0.  1.
         11    1    4    4    0    0  0.42903892761E+02 -0.33369351860E+02 -0.41713970487E+02  0.68515056677E+02  0.00000000000E+00 0. -1.
         21    1    1    2  503  502  0.36276967553E+02 -0.41078972091E+01  0.69798434960E+01  0.37170033758E+02  0.00000000000E+00 0.  1.
          1    1    1    2  501    0 -0.69566799097E+02 -0.34183382666E+02  0.23155452151E+03  0.24418341389E+03  0.00000000000E+00 0. -1.
<scales pt_clust_5="13000.00000" pt_clust_6="13000.00000" pt_clust_7="13000.00000" pt_clust_8="13000.00000" pt_clust_9="36.50883" pt_clust_10="13000.00000"></scales>
<clustering>
<clus scale="   36.509">  1  9  2 -1</clus>
<clus scale="   76.645">  5  6 -1 -1</clus>
<clus scale="   90.577">  7  8 -1 -1</clus>
<clus scale="   63.984">  7 10 -1 -1</clus>
<clus scale="  111.132">  2  5  1 -1</clus>
<clus scale="   36.509">  1  5  2 -1</clus>
</clustering>
</event>
<event>
10    4  0.7508634E-005  0.1556577E+03  0.7546771E-02  0.1225664E+00
         21   -1    0    0  501  502  0.00000000000E+00  0.00000000000E+00  0.18794322416E+03  0.18794322416E+03  0.00000000000E+00 0.  1.
         -3   -1    0    0    0  501 -0.00000000000E+00 -0.00000000000E+00 -0.26697842189E+03  0.26697842189E+03  0.00000000000E+00 0.  1.
         24    2    1    2    0    0 -0.20118396158E+02  0.42131628920E+01  0.38856541262E+02  0.83557765336E+02  0.71060317644E+02 0.  0.
         23    2    1    2    0    0  0.52557011690E+02  0.30520050636E+01 -0.18917832374E+03  0.21644853037E+03  0.91049293856E+02 0.  0.
        -13    1    3    3    0    0 -0.24156970092E+02  0.30630865085E+02  0.34008711262E+01  0.39158332757E+02  0.00000000000E+00 0.  1.
         14    1    3    3    0    0  0.40385739338E+01 -0.26417702193E+02  0.35455670136E+02  0.44399432579E+02  0.00000000000E+00 0. -1.
        -13    1    4    4    0    0  0.77895351235E+02  0.76959488927E+01 -0.12754557498E+03  0.14964887928E+03  0.00000000000E+00 0.  1.
         13    1    4    4    0    0 -0.25338339545E+02 -0.46439438291E+01 -0.61632748762E+02  0.66799651086E+02  0.00000000000E+00 0. -1.
         21    1    1    2  503  502 -0.57322934175E+01  0.27082222743E+02  0.99354673832E+02  0.10313901875E+03  0.00000000000E+00 0.  1.
         -4    1    1    2    0  503 -0.26706322115E+02 -0.34347390699E+02 -0.28068089077E+02  0.51776331592E+02  0.00000000000E+00 0.  1.
<scales pt_clust_5="13000.00000" pt_clust_6="13000.00000" pt_clust_7="13000.00000" pt_clust_8="13000.00000" pt_clust_9="27.68223" pt_clust_10="13000.00000"></scales>
<clustering>
<clus scale="   27.682">  1  9  2 -1</clus>
<clus scale="   71.060">  5  6 -1 -1</clus>
<clus scale="   78.600">  2  5  1 -1</clus>
<clus scale="   91.049">  7  8 -1 -1</clus>
<clus scale="   41.297">  7 10 -1 -1</clus>
<clus scale="   27.682">  1  5  2 -1</clus>
</clustering>
</event>
<event>
10    4  0.7508634E-005  0.3029156E+03  0.7546771E-02  0.1134883E+00
         21   -1    0    0  503  502  0.00000000000E+00  0.00000000000E+00  0.63892618567E+02  0.63892618567E+02  0.00000000000E+00 0. -1.
          2   -1    0    0  502    0 -0.00000000000E+00 -0.00000000000E+00 -0.74445026003E+03  0.74445026003E+03  0.00000000000E+00 0. -1.
         24    2    1    2    0    0  0.13268965392E+02  0.11043800325E+02 -0.17273833389E+03  0.19110411809E+03  0.79901320317E+02 0.  0.
         23    2    1    2    0    0  0.11747715231E+03 -0.43530727945E+02 -0.38605576426E+03  0.41650556143E+03  0.93498791410E+02 0.  0.
        -13    1    3    3    0    0  0.18771206286E+02  0.41139835391E+02 -0.13585437450E+03  0.14318259431E+03  0.00000000000E+00 0.  1.
         14    1    3    3    0    0 -0.55022408937E+01 -0.30096035067E+02 -0.36883959385E+02  0.47921523781E+02  0.00000000000E+00 0. -1.
        -13    1    4    4    0    0  0.86841908520E+01 -0.40471200028E+02 -0.61038175031E+02  0.73749522125E+02  0.00000000000E+00 0.  1.
         13    1    4    4    0    0  0.10879296145E+03 -0.30595279167E+01 -0.32501758922E+03  0.34275603930E+03  0.00000000000E+00 0. -1.
         21    1    1    2  503  501 -0.41287797906E+01  0.21856984068E+02  0.32532383236E+01  0.22480172034E+02  0.00000000000E+00 0. -1.
          1    1    1    2  501    0 -0.12661733791E+03  0.10629943552E+02 -0.12501678164E+03  0.17825302704E+03  0.00000000000E+00 0. -1.
<scales pt_clust_5="13000.00000" pt_clust_6="13000.00000" pt_clust_7="13000.00000" pt_clust_8="13000.00000" pt_clust_9="22.24353" pt_clust_10="13000.00000"></scales>
<clustering>
<clus scale="   22.244">  1  9  2 -1</clus>
<clus scale="   79.901">  5  6 -1 -1</clus>
<clus scale="   82.252">  2  5  1 -1</clus>
<clus scale="   93.499">  7  8 -1 -1</clus>
<clus scale="  127.814">  7 10 -1 -1</clus>
<clus scale="   22.244">  1  5  2 -1</clus>
</clustering>
</event>
<event>
10    4  0.7508634E-005  0.1926081E+03  0.7546771E-02  0.1192161E+00
          2   -1    0    0  502    0 -0.00000000000E+00  0.00000000000E+00  0.62616716685E+03  0.62616716685E+03  0.00000000000E+00 0. -1.
         21   -1    0    0  503  502  0.00000000000E+00 -0.00000000000E+00 -0.15605495155E+03  0.15605495155E+03  0.00000000000E+00 0. -1.
         24    2    1    2    0    0 -0.31566237870E+02 -0.21173620722E+02  0.16610549325E+03  0.18822277655E+03  0.79950166586E+02 0.  0.
         23    2    1    2    0    0 -0.16322889875E+02 -0.29060809420E+02  0.10499810592E+03  0.14244069311E+03  0.90298291390E+02 0.  0.
        -11    1    3    3    0    0  0.45797587935E+01 -0.34165034730E+02  0.13337978340E+03  0.13776207900E+03  0.00000000000E+00 0.  1.
         12    1    3    3    0    0 -0.36145996663E+02  0.12991414007E+02  0.32725709843E+02  0.50460697552E+02  0.00000000000E+00 0. -1.
        -11    1    4    4    0    0  0.12563457078E+02 -0.55570481861E+02  0.64919623837E+02  0.86374049732E+02  0.00000000000E+00 0. -1.
         11    1    4    4    0    0 -0.28886346953E+02  0.26509672441E+02  0.40078482087E+02  0.56066643377E+02  0.00000000000E+00 0.  1.
         21    1    1    2  503  501  0.24749022708E+02  0.10562847899E+02 -0.12319434187E+03  0.12609890463E+03  0.00000000000E+00 0. -1.
          1    1    1    2  501    0  0.23140105037E+02  0.39671582244E+02  0.32220295799E+03  0.32545974411E+03  0.00000000000E+00 0. -1.
<scales pt_clust_5="13000.00000" pt_clust_6="13000.00000" pt_clust_7="13000.00000" pt_clust_8="13000.00000" pt_clust_9="26.90888" pt_clust_10="13000.00000"></scales>
<clustering>
<clus scale="   26.909">  2  9  1 -1</clus>
<clus scale="   79.950">  5  6 -1 -1</clus>
<clus scale="   84.964">  1  5  2 -1</clus>
<clus scale="   90.298">  7  8 -1 -1</clus>
<clus scale="   28.347">  7 10 -1 -1</clus>
<clus scale="   26.909">  2  5  1 -1</clus>
</clustering>
</event>
<event>
10    4  0.7508634E-005  0.2186684E+03  0.7546771E-02  0.1177563E+00
         21   -1    0    0  501  502  0.00000000000E+00  0.00000000000E+00  0.43313174311E+03  0.43313174311E+03  0.00000000000E+00 0. -1.
          2   -1    0    0  503    0 -0.00000000000E+00 -0.00000000000E+00 -0.20129715495E+03  0.20129715495E+03  0.00000000000E+00 0. -1.
         24    2    1    2    0    0  0.18247133111E+02 -0.18402443728E+02 -0.82693793227E+01  0.80818381553E+02  0.76102696145E+02 0.  0.
         23    2    1    2    0    0 -0.22813348627E+01  0.45839277326E+02  0.30956656587E+02  0.11309432798E+03  0.98618297493E+02 0.  0.
        -13    1    3    3    0    0  0.12518131489E+02 -0.44461985921E+02 -0.21600326513E+02  0.50991625915E+02  0.00000000000E+00 0.  1.
         14    1    3    3    0    0  0.57290016217E+01  0.26059542193E+02  0.13330947190E+02  0.29826755637E+02  0.00000000000E+00 0. -1.
        -11    1    4    4    0    0 -0.38966286943E+02  0.84150671274E+01  0.43710470912E+02  0.59159024165E+02  0.00000000000E+00 0.  1.
         11    1    4    4    0    0  0.36684952080E+02  0.37424210199E+02 -0.12753814325E+02  0.53935303818E+02  0.00000000000E+00 0. -1.
         21    1    1    2  503  502  0.24902562295E+02 -0.10415586638E+03  0.29773198183E+03  0.31640625012E+03  0.00000000000E+00 0. -1.
          1    1    1    2  501    0 -0.40868360544E+02  0.76719032784E+02 -0.88584670941E+02  0.12410993840E+03  0.00000000000E+00 0. -1.
<scales pt_clust_5="13000.00000" pt_clust_6="13000.00000" pt_clust_7="13000.00000" pt_clust_8="13000.00000" pt_clust_9="108.41329" pt_clust_10="13000.00000"></scales>
<clustering>
<clus scale="   76.103">  5  6 -1 -1</clus>
<clus scale="   80.394">  2  5  1 -1</clus>
<clus scale="   98.618">  7  8 -1 -1</clus>
<clus scale="   70.268">  7 10 -1 -1</clus>
<clus scale="  108.413">  1  9  2 -1</clus>
<clus scale="  108.413">  1  5  2 -1</clus>
</clustering>
</event>
<event>
10    4  0.7508634E-005  0.3981737E+03  0.7546771E-02  0.1092350E+00
          2   -1    0    0  502    0 -0.00000000000E+00  0.00000000000E+00  0.41879230604E+03  0.41879230604E+03  0.00000000000E+00 0. -1.
         21   -1    0    0  503  502  0.00000000000E+00 -0.00000000000E+00 -0.37991291957E+03  0.37991291957E+03  0.00000000000E+00 0. -1.
         24    2    1    2    0    0 -0.70868219298E+02  0.79181469215E+00  0.11412180554E+03  0.15594860112E+03  0.79203839644E+02 0.  0.
         23    2    1    2    0    0 -0.46925761707E+02 -0.10480312177E+03 -0.12456664767E+03  0.19272206663E+03  0.91865248116E+02 0.  0.
        -13    1    3    3    0    0 -0.24269878683E+01  0.26256099730E+02  0.88205984320E+01  0.27804244278E+02  0.00000000000E+00 0.  1.
         14    1    3    3    0    0 -0.68441231430E+02 -0.25464285038E+02  0.10530120710E+03  0.12814435684E+03  0.00000000000E+00 0. -1.
        -11    1    4    4    0    0  0.24506468918E+02 -0.50742787077E+02 -0.36748560542E+02  0.67274468865E+02  0.00000000000E+00 0.  1.
         11    1    4    4    0    0 -0.71432230625E+02 -0.54060334692E+02 -0.87818087125E+02  0.12544759777E+03  0.00000000000E+00 0. -1.
         21    1    1    2  503  501  0.16412189781E+03  0.14675653362E+03 -0.13293197598E+03  0.25718551230E+03  0.00000000000E+00 0. -1.
          1    1    1    2  501    0 -0.46327916809E+02 -0.42745226541E+02  0.18225620458E+03  0.19284904556E+03  0.00000000000E+00 0. -1.
<scales pt_clust_5="13000.00000" pt_clust_6="13000.00000" pt_clust_7="13000.00000" pt_clust_8="13000.00000" pt_clust_9="208.97863" pt_clust_10="13000.00000"></scales>
<clustering>
<clus scale="   79.204">  5  6 -1 -1</clus>
<clus scale="   91.865">  7  8 -1 -1</clus>
<clus scale="   63.035">  7 10 -1 -1</clus>
<clus scale="  106.283">  1  5  2 -1</clus>
<clus scale="  208.979">  2  9  1 -1</clus>
<clus scale="  208.979">  2  5  1 -1</clus>
</clustering>
</event>
<event>
10    4  0.7508634E-005  0.1435719E+03  0.7546771E-02  0.1232322E+00
         21   -1    0    0  501  502  0.00000000000E+00  0.00000000000E+00  0.11679059189E+03  0.11679059189E+03  0.00000000000E+00 0.  1.
         -1   -1    0    0    0  501 -0.00000000000E+00 -0.00000000000E+00 -0.19805858876E+03  0.19805858876E+03  0.00000000000E+00 0.  1.
         24    2    1    2    0    0 -0.26711219331E+02  0.56579801773E+01 -0.47766618294E+02  0.97223451767E+02  0.80157643256E+02 0.  0.
         23    2    1    2    0    0 -0.25133420372E+01 -0.19212733429E+01 -0.34041068759E+02  0.96984374536E+02  0.90758836277E+02 0.  0.
        -11    1    3    3    0    0  0.18518474103E+02  0.10811157009E+02  0.10012705624E+02  0.23665782744E+02  0.00000000000E+00 0.  1.
         12    1    3    3    0    0 -0.45229693434E+02 -0.51531768318E+01 -0.57779323918E+02  0.73557669023E+02  0.00000000000E+00 0. -1.
        -13    1    4    4    0    0  0.18589048787E+02 -0.28670921826E+02  0.14960873858E+02  0.37301504524E+02  0.00000000000E+00 0. -1.
         13    1    4    4    0    0 -0.21102390825E+02  0.26749648483E+02 -0.49001942618E+02  0.59682870011E+02  0.00000000000E+00 0.  1.
         21    1    1    2  503  502 -0.73185912302E+00  0.50397936782E+02  0.22218140295E+02  0.55082968401E+02  0.00000000000E+00 0. -1.
         -2    1    1    2    0  503  0.29956420491E+02 -0.54134643617E+02 -0.21678450114E+02  0.65558385943E+02  0.00000000000E+00 0.  1.
<scales pt_clust_5="13000.00000" pt_clust_6="13000.00000" pt_clust_7="13000.00000" pt_clust_8="13000.00000" pt_clust_9="50.40325" pt_clust_10="13000.00000"></scales>
<clustering>
<clus scale="   50.403">  1  9  2 -1</clus>
<clus scale="   80.158">  5  6 -1 -1</clus>
<clus scale="   87.281">  2  5  1 -1</clus>
<clus scale="   90.759">  7  8 -1 -1</clus>
<clus scale="   40.078">  7 10 -1 -1</clus>
<clus scale="   50.403">  1  5  2 -1</clus>
</clustering>
</event>
<event>
10    4  0.7508634E-005  0.2963906E+03  0.7546771E-02  0.1135022E+00
         21   -1    0    0  503  502  0.00000000000E+00  0.00000000000E+00  0.43109416034E+02  0.43109416034E+02  0.00000000000E+00 0.  1.
          2   -1    0    0  502    0 -0.00000000000E+00 -0.00000000000E+00 -0.12567702139E+04  0.12567702139E+04  0.00000000000E+00 0. -1.
         24    2    1    2    0    0  0.71194436176E+00 -0.39886634379E+02 -0.35545974501E+03  0.36634443723E+03  0.79152800946E+02 0.  0.
         23    2    1    2    0    0 -0.80682857699E+02  0.19144765767E+02 -0.15833328557E+03  0.19999187843E+03  0.89727791329E+02 0.  0.
        -13    1    3    3    0    0 -0.36282238195E+02 -0.26430158072E+02 -0.13147430972E+03  0.13892605292E+03  0.00000000000E+00 0.  1.
         14    1    3    3    0    0  0.36994182557E+02 -0.13456476307E+02 -0.22398543529E+03  0.22741838431E+03  0.00000000000E+00 0. -1.
        -13    1    4    4    0    0 -0.90436775008E+02 -0.45055606255E+01 -0.92869237019E+02  0.12970661330E+03  0.00000000000E+00 0.  1.
         13    1    4    4    0    0  0.97539173097E+01  0.23650326393E+02 -0.65464048551E+02  0.70285265128E+02  0.00000000000E+00 0. -1.
         21    1    1    2  503  501 -0.29342255003E+02  0.15974467355E+02 -0.97458583198E+01  0.34801340352E+02  0.00000000000E+00 0.  1.
          1    1    1    2  501    0  0.10931316834E+03  0.47674012570E+01 -0.69012190893E+03  0.69874197388E+03  0.00000000000E+00 0. -1.
<scales pt_clust_5="13000.00000" pt_clust_6="13000.00000" pt_clust_7="13000.00000" pt_clust_8="13000.00000" pt_clust_9="33.40885" pt_clust_10="13000.00000"></scales>
<clustering>
<clus scale="   33.409">  1  9  2 -1</clus>
<clus scale="   79.153">  5  6 -1 -1</clus>
<clus scale="   87.509">  2  5  1 -1</clus>
<clus scale="   89.728">  7  8 -1 -1</clus>
<clus scale="  103.812">  7 10 -1 -1</clus>
<clus scale="   33.409">  1  5  2 -1</clus>
</clustering>
</event>
<event>
10    4  0.7508634E-005  0.4151403E+03  0.7546771E-02  0.1068167E+00
          2   -1    0    0  502    0 -0.00000000000E+00  0.00000000000E+00  0.20373916166E+04  0.20373916166E+04  0.00000000000E+00 0. -1.
         21   -1    0    0  503  502  0.00000000000E+00 -0.00000000000E+00 -0.54423831079E+02  0.54423831079E+02  0.00000000000E+00 0.  1.
         24    2    1    2    0    0 -0.14749501636E+03  0.58225243136E+02  0.31567330149E+03  0.36178859133E+03  0.78079400316E+02 0.  0.
         23    2    1    2    0    0 -0.22561520771E+02 -0.96278166527E+02  0.16173244717E+03  0.21114247913E+03  0.92979860488E+02 0.  0.
        -11    1    3    3    0    0 -0.42618578978E+02  0.52401215427E+02  0.86973106498E+02  0.11012062435E+03  0.00000000000E+00 0.  1.
         12    1    3    3    0    0 -0.10487643738E+03  0.58240277088E+01  0.22870019499E+03  0.25166796699E+03  0.00000000000E+00 0. -1.
        -11    1    4    4    0    0  0.23188103251E+02 -0.73773368380E+02  0.61938846974E+02  0.99078851320E+02  0.00000000000E+00 0.  1.
         11    1    4    4    0    0 -0.45749624021E+02 -0.22504798147E+02  0.99793600199E+02  0.11206362781E+03  0.00000000000E+00 0. -1.
         21    1    1    2  503  501  0.81897641107E+01  0.37087615908E+02  0.23432838477E+03  0.23738651057E+03  0.00000000000E+00 0. -1.
          1    1    1    2  501    0  0.16186677302E+03  0.96530748328E+00  0.12712336521E+04  0.12814978667E+04  0.00000000000E+00 0. -1.
<scales pt_clust_5="13000.00000" pt_clust_6="13000.00000" pt_clust_7="13000.00000" pt_clust_8="13000.00000" pt_clust_9="37.98111" pt_clust_10="13000.00000"></scales>
<clustering>
<clus scale="   37.981">  2  9  1 -1</clus>
<clus scale="   78.079">  5  6 -1 -1</clus>
<clus scale="   92.980">  7  8 -1 -1</clus>
<clus scale="  162.725">  7 10 -1 -1</clus>
<clus scale="  179.847">  1  5  2 -1</clus>
<clus scale="   37.981">  2  5  1 -1</clus>
</clustering>
</event>
<event>
10    4  0.7508634E-005  0.1648554E+03  0.7546771E-02  0.1196242E+00
         21   -1    0    0  501  502  0.00000000000E+00  0.00000000000E+00  0.11832956629E+03  0.11832956629E+03  0.00000000000E+00 0. -1.
          2   -1    0    0  503    0 -0.00000000000E+00 -0.00000000000E+00 -0.92957954027E+03  0.92957954027E+03  0.00000000000E+00 0. -1.
         24    2    1    2    0    0 -0.84583620683E+02 -0.26493399853E+02 -0.32911122027E+03  0.35005183601E+03  0.79785985388E+02 0.  0.
         23    2    1    2    0    0  0.30010960233E+02  0.37280193327E+02 -0.44082834791E+03  0.45296040410E+03  0.92482564903E+02 0.  0.
        -11    1    3    3    0    0 -0.60542625512E+02 -0.16966764668E+02 -0.91399085495E+02  0.11093724999E+03  0.00000000000E+00 0.  1.
         12    1    3    3    0    0 -0.24040995171E+02 -0.95266351848E+01 -0.23771213478E+03  0.23911458602E+03  0.00000000000E+00 0. -1.
        -11    1    4    4    0    0  0.53931744132E+02 -0.18260330221E+01 -0.17247463185E+03  0.18071930183E+03  0.00000000000E+00 0. -1.
         11    1    4    4    0    0 -0.23920783899E+02  0.39106226349E+02 -0.26835371606E+03  0.27224110227E+03  0.00000000000E+00 0.  1.
         21    1    1    2  503  502  0.48091827187E+01 -0.45006461857E+02  0.89790724749E+02  0.10055388654E+03  0.00000000000E+00 0. -1.
          1    1    1    2  501    0  0.49763477731E+02  0.34219668383E+02 -0.13110113053E+03  0.14434297990E+03  0.00000000000E+00 0. -1.
<scales pt_clust_5="13000.00000" pt_clust_6="13000.00000" pt_clust_7="13000.00000" pt_clust_8="13000.00000" pt_clust_9="45.26268" pt_clust_10="13000.00000"></scales>
<clustering>
<clus scale="   45.263">  1  9  2 -1</clus>
<clus scale="   79.786">  5  6 -1 -1</clus>
<clus scale="   92.483">  7  8 -1 -1</clus>
<clus scale="   55.417">  7 10 -1 -1</clus>
<clus scale="  123.900">  2  5  1 -1</clus>
<clus scale="   45.263">  1  5  2 -1</clus>
</clustering>
</event>
<event>
10    4  0.7508634E-005  0.3361226E+03  0.7546771E-02  0.1098309E+00
          2   -1    0    0  503    0 -0.00000000000E+00  0.00000000000E+00  0.15224882706E+04  0.15224882706E+04  0.00000000000E+00 0. -1.
         21   -1    0    0  501  502  0.00000000000E+00 -0.00000000000E+00 -0.15511226044E+03  0.15511226044E+03  0.00000000000E+00 0. -1.
         24    2    1    2    0    0  0.48815896551E+02 -0.11877962705E+03  0.12721045484E+04  0.12810945277E+04  0.80384173125E+02 0.  0.
         23    2    1    2    0    0  0.79357912090E+02 -0.21644674906E+02 -0.60092047176E+02  0.13520635999E+03  0.88901830598E+02 0.  0.
        -13    1    3    3    0    0  0.51963041841E+02 -0.61102859976E+02  0.46020063124E+03  0.46713845722E+03  0.00000000000E+00 0.  1.
         14    1    3    3    0    0 -0.31471452898E+01 -0.57676767070E+02  0.81190391720E+03  0.81395607053E+03  0.00000000000E+00 0. -1.
        -13    1    4    4    0    0  0.48125458918E+02 -0.54243235500E+02 -0.21017571641E+02  0.75499183514E+02  0.00000000000E+00 0.  1.
         13    1    4    4    0    0  0.31232453172E+02  0.32598560594E+02 -0.39074475535E+02  0.59707176472E+02  0.00000000000E+00 0. -1.
         21    1    1    2  503  502 -0.41971680056E+02 -0.29770558324E+01  0.40091477660E+02  0.58118941569E+02  0.00000000000E+00 0. -1.
          1    1    1    2  501    0 -0.86202128585E+02  0.14340135778E+03  0.11527203128E+03  0.20318070180E+03  0.00000000000E+00 0. -1.
<scales pt_clust_5="13000.00000" pt_clust_6="13000.00000" pt_clust_7="13000.00000" pt_clust_8="13000.00000" pt_clust_9="42.07713" pt_clust_10="13000.00000"></scales>
<clustering>
<clus scale="   42.077">  2  9  1 -1</clus>
<clus scale="   80.384">  5  6 -1 -1</clus>
<clus scale="   88.902">  7  8 -1 -1</clus>
<clus scale="  151.164">  1  5  2 -1</clus>
<clus scale="   86.320">  7 10 -1 -1</clus>
<clus scale="   42.077">  2  5  1 -1</clus>
</clustering>
</event>
<event>
10    4  0.7508634E-005  0.7344438E+03  0.7546771E-02  0.9990155E-01
          2   -1    0    0  502    0 -0.00000000000E+00  0.00000000000E+00  0.42310155848E+03  0.42310155848E+03  0.00000000000E+00 0. -1.
         21   -1    0    0  503  502  0.00000000000E+00 -0.00000000000E+00 -0.69032013607E+03  0.69032013607E+03  0.00000000000E+00 0.  1.
         24    2    1    2    0    0  0.22415622675E+03 -0.31827889802E+02  0.49975258592E+00  0.23957281875E+03  0.78331712438E+02 0.  0.
         23    2    1    2    0    0 -0.32658890546E+03  0.14054559918E+03 -0.39337704696E+03  0.53771253543E+03  0.89307844419E+02 0.  0.
        -11    1    3    3    0    0  0.33214512676E+02 -0.97811440627E+01  0.29121647404E+02  0.45243176049E+02  0.00000000000E+00 0.  1.
         12    1    3    3    0    0  0.19094171407E+03 -0.22046745740E+02 -0.28621894818E+02  0.19432964270E+03  0.00000000000E+00 0. -1.
        -11    1    4    4    0    0 -0.18808528197E+03  0.74221284152E+02 -0.15772856315E+03  0.25644331138E+03  0.00000000000E+00 0. -1.
         11    1    4    4    0    0 -0.13850362348E+03  0.66324315031E+02 -0.23564848381E+03  0.28126922406E+03  0.00000000000E+00 0.  1.
         21    1    1    2  503  501  0.50406261004E+02 -0.24660834132E+02 -0.85909278295E+02  0.10261263073E+03  0.00000000000E+00 0.  1.
          1    1    1    2  501    0  0.52026417702E+02 -0.84056875249E+02  0.21156799507E+03  0.23352370962E+03  0.00000000000E+00 0. -1.
<scales pt_clust_5="13000.00000" pt_clust_6="13000.00000" pt_clust_7="13000.00000" pt_clust_8="13000.00000" pt_clust_9="56.11549" pt_clust_10="13000.00000"></scales>
<clustering>
<clus scale="   56.115">  2  9  1 -1</clus>
<clus scale="   78.332">  5  6 -1 -1</clus>
<clus scale="   89.308">  7  8 -1 -1</clus>
<clus scale="   99.731">  7 10 -1 -1</clus>
<clus scale="  249.736">  1  5  2 -1</clus>
<clus scale="   56.115">  2  5  1 -1</clus>
</clustering>
</event>
<event>
10    4  0.7508634E-005  0.1583025E+03  0.7546771E-02  0.1208279E+00
         21   -1    0    0  501  502  0.00000000000E+00  0.00000000000E+00  0.38824983130E+03  0.38824983130E+03  0.00000000000E+00 0. -1.
          4   -1    0    0  503    0 -0.00000000000E+00 -0.00000000000E+00 -0.15485726631E+03  0.15485726631E+03  0.00000000000E+00 0. -1.
         24    2    1    2    0    0  0.59347493327E+02  0.54455960070E+02 -0.64882300990E+02  0.13045568226E+03  0.79507204086E+02 0.  0.
         23    2    1    2    0    0 -0.22089558282E+02  0.71512713517E+01  0.17683568832E+02  0.95764360515E+02  0.91208633754E+02 0.  0.
        -11    1    3    3    0    0 -0.14756729154E+02  0.20714735090E+02 -0.35964317960E+02  0.44048762429E+02  0.00000000000E+00 0.  1.
         12    1    3    3    0    0  0.74104222481E+02  0.33741224980E+02 -0.28917983030E+02  0.86406919834E+02  0.00000000000E+00 0. -1.
        -13    1    4    4    0    0  0.31424686346E+02 -0.75679806130E+01  0.23494029360E+02  0.39959412634E+02  0.00000000000E+00 0. -1.
         13    1    4    4    0    0 -0.53514244628E+02  0.14719251965E+02 -0.58104605282E+01  0.55804947881E+02  0.00000000000E+00 0.  1.
         21    1    1    2  503  502 -0.36626217846E+02 -0.72565138304E+01  0.25335310657E+03  0.25608969802E+03  0.00000000000E+00 0. -1.
          3    1    1    2  501    0 -0.63171719964E+00 -0.54350717591E+02  0.27238190578E+02  0.60797356811E+02  0.00000000000E+00 0. -1.
<scales pt_clust_5="13000.00000" pt_clust_6="13000.00000" pt_clust_7="13000.00000" pt_clust_8="13000.00000" pt_clust_9="37.33814" pt_clust_10="13000.00000"></scales>
<clustering>
<clus scale="   37.338">  1  9  2 -1</clus>
<clus scale="   79.507">  5  6 -1 -1</clus>
<clus scale="   91.209">  7  8 -1 -1</clus>
<clus scale="   58.148">  7 10 -1 -1</clus>
<clus scale="  107.850">  2  5  1 -1</clus>
<clus scale="   37.338">  1  5  2 -1</clus>
</clustering>
</event>
<event>
10    4  0.7508634E-005  0.2171450E+03  0.7546771E-02  0.1143889E+00
          2   -1    0    0  503    0 -0.00000000000E+00  0.00000000000E+00  0.89928214905E+03  0.89928214905E+03  0.00000000000E+00 0. -1.
         21   -1    0    0  501  502  0.00000000000E+00 -0.00000000000E+00 -0.82030753315E+02  0.82030753315E+02  0.00000000000E+00 0.  1.
         24    2    1    2    0    0 -0.16243157615E+03 -0.74650688888E+02  0.21537820327E+03  0.29019880587E+03  0.76621369120E+02 0.  0.
         23    2    1    2    0    0  0.13402932236E+03  0.33686243074E+02  0.61066481607E+03  0.63280487725E+03  0.91825229977E+02 0.  0.
        -13    1    3    3    0    0 -0.93397869241E+02 -0.64263842147E+02  0.82882622528E+02  0.14043693426E+03  0.00000000000E+00 0.  1.
         14    1    3    3    0    0 -0.69033706909E+02 -0.10386846742E+02  0.13249558074E+03  0.14976187162E+03  0.00000000000E+00 0. -1.
        -11    1    4    4    0    0  0.10318197323E+02  0.36276697498E+02  0.88923620840E+02  0.96591274557E+02  0.00000000000E+00 0. -1.
         11    1    4    4    0    0  0.12371112503E+03 -0.25904544240E+01  0.52174119523E+03  0.53621360269E+03  0.00000000000E+00 0.  1.
         21    1    1    2  503  502  0.15753254235E+02  0.24183139566E+02 -0.19393247438E+02  0.34771932712E+02  0.00000000000E+00 0. -1.
          1    1    1    2  501    0  0.12648999559E+02  0.16781306248E+02  0.10601623833E+02  0.23537286529E+02  0.00000000000E+00 0. -1.
<scales pt_clust_5="13000.00000" pt_clust_6="13000.00000" pt_clust_7="13000.00000" pt_clust_8="13000.00000" pt_clust_9="28.86155" pt_clust_10="13000.00000"></scales>
<clustering>
<clus scale="   28.862">  2  9  1 -1</clus>
<clus scale="   76.621">  5  6 -1 -1</clus>
<clus scale="   91.825">  7  8 -1 -1</clus>
<clus scale="   24.405">  7 10 -1 -1</clus>
<clus scale="  179.642">  1  5  2 -1</clus>
<clus scale="   28.862">  2  5  1 -1</clus>
</clustering>
</event>
<event>
10    4  0.7508634E-005  0.3524973E+03  0.7546771E-02  0.1090841E+00
          2   -1    0    0  502    0 -0.00000000000E+00  0.00000000000E+00  0.14472393998E+04  0.14472393998E+04  0.00000000000E+00 0. -1.
         21   -1    0    0  503  502  0.00000000000E+00 -0.00000000000E+00 -0.72206863413E+02  0.72206863413E+02  0.00000000000E+00 0. -1.
         24    2    1    2    0    0  0.13217862834E+03 -0.50029244686E+02  0.79165086806E+03  0.80813962225E+03  0.80027726675E+02 0.  0.
         23    2    1    2    0    0  0.51093689228E+02  0.63943344603E+02  0.46055135149E+03  0.47665985343E+03  0.91639249842E+02 0.  0.
        -11    1    3    3    0    0  0.54850299917E+01 -0.34284810882E+02  0.16342961157E+03  0.16707714310E+03  0.00000000000E+00 0.  1.
         12    1    3    3    0    0  0.12669359834E+03 -0.15744433805E+02  0.62822125649E+03  0.64106247915E+03  0.00000000000E+00 0. -1.
        -11    1    4    4    0    0  0.35647106064E+02 -0.14683822827E+02  0.96961566003E+02  0.10434498601E+03  0.00000000000E+00 0. -1.
         11    1    4    4    0    0  0.15446583164E+02  0.78627167430E+02  0.36358978549E+03  0.37231486742E+03  0.00000000000E+00 0.  1.
         21    1    1    2  503  501 -0.22205035408E+02  0.66620944528E+01 -0.96220562497E+01  0.25100419646E+02  0.00000000000E+00 0.  1.
          1    1    1    2  501    0 -0.16106728216E+03 -0.20576194369E+02  0.13245237306E+03  0.20954636787E+03  0.00000000000E+00 0. -1.
<scales pt_clust_5="13000.00000" pt_clust_6="13000.00000" pt_clust_7="13000.00000" pt_clust_8="13000.00000" pt_clust_9="23.18291" pt_clust_10="13000.00000"></scales>
<clustering>
<clus scale="   23.183">  2  9  1 -1</clus>
<clus scale="   80.028">  5  6 -1 -1</clus>
<clus scale="   91.639">  7  8 -1 -1</clus>
<clus scale="  159.399">  1  5  2 -1</clus>
<clus scale="  140.276">  7 10 -1 -1</clus>
<clus scale="   23.183">  2  5  1 -1</clus>
</clustering>
</event>
<event>
10    4  0.7508634E-005  0.2170191E+03  0.7546771E-02  0.1173191E+00
         21   -1    0    0  501  502  0.00000000000E+00  0.00000000000E+00  0.70713367173E+02  0.70713367173E+02  0.00000000000E+00 0.  1.
          2   -1    0    0  503    0 -0.00000000000E+00 -0.00000000000E+00 -0.62589880962E+03  0.62589880962E+03  0.00000000000E+00 0. -1.
         24    2    1    2    0    0 -0.48298871445E+02  0.86690729148E+01 -0.14191824319E+03  0.17059860434E+03  0.80963956456E+02 0.  0.
         23    2    1    2    0    0 -0.50589924450E+02  0.11271800551E+02 -0.11854637090E+03  0.15857829392E+03  0.91692089658E+02 0.  0.
        -11    1    3    3    0    0 -0.50156785899E+01 -0.33597564683E+02 -0.56526583729E+02  0.65948525779E+02  0.00000000000E+00 0.  1.
         12    1    3    3    0    0 -0.43283192855E+02  0.42266637598E+02 -0.85391659458E+02  0.10465007856E+03  0.00000000000E+00 0. -1.
        -13    1    4    4    0    0 -0.69308564464E+02  0.30203375249E+02 -0.69119956057E+02  0.10243773382E+03  0.00000000000E+00 0.  1.
         13    1    4    4    0    0  0.18718640015E+02 -0.18931574697E+02 -0.49426414838E+02  0.56140560099E+02  0.00000000000E+00 0. -1.
         21    1    1    2  503  502  0.20463098586E+02 -0.96969928462E+01  0.27515036708E+02  0.35634917133E+02  0.00000000000E+00 0.  1.
          1    1    1    2  501    0  0.78425697308E+02 -0.10243880620E+02 -0.32223586507E+03  0.33180036141E+03  0.00000000000E+00 0. -1.
<scales pt_clust_5="13000.00000" pt_clust_6="13000.00000" pt_clust_7="13000.00000" pt_clust_8="13000.00000" pt_clust_9="22.64443" pt_clust_10="13000.00000"></scales>
<clustering>
<clus scale="   22.644">  1  9  2 -1</clus>
<clus scale="   80.964">  5  6 -1 -1</clus>
<clus scale="   90.808">  2  5  1 -1</clus>
<clus scale="   91.692">  7  8 -1 -1</clus>
<clus scale="   51.745">  7 10 -1 -1</clus>
<clus scale="   22.644">  1  5  2 -1</clus>
</clustering>
</event>
<event>
10    4  0.7508634E-005  0.3410128E+03  0.7546771E-02  0.1120378E+00
          2   -1    0    0  503    0 -0.00000000000E+00  0.00000000000E+00  0.20929019907E+03  0.20929019907E+03  0.00000000000E+00 0. -1.
         21   -1    0    0  501  502  0.00000000000E+00 -0.00000000000E+00 -0.32416057385E+03  0.32416057385E+03  0.00000000000E+00 0. -1.
         24    2    1    2    0    0 -0.17612648689E+02 -0.76310512575E+01 -0.29553206596E+02  0.88257199245E+02  0.80916641436E+02 0.  0.
         23    2    1    2    0    0  0.15625753985E+03  0.60565110668E+01  0.56758670161E+02  0.18875656019E+03  0.89187399828E+02 0.  0.
        -11    1    3    3    0    0  0.21961853250E+02 -0.13069162209E+02  0.14015802753E+02  0.29147362245E+02  0.00000000000E+00 0.  1.
         12    1    3    3    0    0 -0.39574501939E+02  0.54381109518E+01 -0.43569009349E+02  0.59109837000E+02  0.00000000000E+00 0. -1.
        -11    1    4    4    0    0  0.96185746048E+02  0.13249001922E+02 -0.11236245727E+02  0.97741940910E+02  0.00000000000E+00 0. -1.
         11    1    4    4    0    0  0.60071793803E+02 -0.71924908549E+01  0.67994915887E+02  0.91014619276E+02  0.00000000000E+00 0.  1.
         21    1    1    2  503  502  0.73993788230E+01  0.19869688568E+02 -0.10159789756E+03  0.10378674347E+03  0.00000000000E+00 0.  1.
          1    1    1    2  501    0 -0.14604426999E+03 -0.18295148378E+02 -0.40477940780E+02  0.15265027003E+03  0.00000000000E+00 0. -1.
<scales pt_clust_5="13000.00000" pt_clust_6="13000.00000" pt_clust_7="13000.00000" pt_clust_8="13000.00000" pt_clust_9="21.20272" pt_clust_10="13000.00000"></scales>
<clustering>
<clus scale="   21.203">  2  9  1 -1</clus>
<clus scale="   80.917">  5  6 -1 -1</clus>
<clus scale="   82.449">  1  5  2 -1</clus>
<clus scale="   89.187">  7  8 -1 -1</clus>
<clus scale="  147.855">  7 10 -1 -1</clus>
<clus scale="   21.203">  2  5  1 -1</clus>
</clustering>
</event>
<event>
10    4  0.7508634E-005  0.2861490E+03  0.7546771E-02  0.1126683E+00
          2   -1    0    0  503    0 -0.00000000000E+00  0.00000000000E+00  0.20351674775E+03  0.20351674775E+03  0.00000000000E+00 0. -1.
         21   -1    0    0  501  502  0.00000000000E+00 -0.00000000000E+00 -0.29810270535E+03  0.29810270535E+03  0.00000000000E+00 0.  1.
         24    2    1    2    0    0  0.78759065029E+02  0.76601770476E+01 -0.10442893749E+03  0.15379033136E+03  0.80525737493E+02 0.  0.
         23    2    1    2    0    0  0.71209465463E+02  0.12673116785E+02  0.60299597349E+02  0.12436340825E+03  0.81233121381E+02 0.  0.
        -13    1    3    3    0    0  0.91796487750E+02  0.13173733566E+02 -0.68856126950E+02  0.11550458276E+03  0.00000000000E+00 0.  1.
         14    1    3    3    0    0 -0.13037422721E+02 -0.55135565185E+01 -0.35572810537E+02  0.38285748604E+02  0.00000000000E+00 0. -1.
        -13    1    4    4    0    0  0.34883156081E+02 -0.28672993255E+02  0.35272799838E+01  0.45292569197E+02  0.00000000000E+00 0. -1.
         13    1    4    4    0    0  0.36326309382E+02  0.41346110040E+02  0.56772317365E+02  0.79070839048E+02  0.00000000000E+00 0.  1.
         21    1    1    2  503  502  0.11752529169E+02  0.30761059325E+02 -0.42384541002E+02  0.53673215188E+02  0.00000000000E+00 0.  1.
          1    1    1    2  501    0 -0.16172105966E+03 -0.51094353158E+02 -0.80720764513E+01  0.16979249831E+03  0.00000000000E+00 0. -1.
<scales pt_clust_5="13000.00000" pt_clust_6="13000.00000" pt_clust_7="13000.00000" pt_clust_8="13000.00000" pt_clust_9="32.92969" pt_clust_10="13000.00000"></scales>
<clustering>
<clus scale="   32.930">  2  9  1 -1</clus>
<clus scale="   80.526">  5  6 -1 -1</clus>
<clus scale="   81.233">  7  8 -1 -1</clus>
<clus scale="  119.307">  1  5  2 -1</clus>
<clus scale="  123.880">  7 10 -1 -1</clus>
<clus scale="   32.930">  2  5  1 -1</clus>
</clustering>
</event>
<event>
10    4  0.7508634E-005  0.3538577E+03  0.7546771E-02  0.1101086E+00
         21   -1    0    0  501  502  0.00000000000E+00  0.00000000000E+00  0.24522817597E+03  0.24522817597E+03  0.00000000000E+00 0. -1.
          2   -1    0    0  503    0 -0.00000000000E+00 -0.00000000000E+00 -0.32743293091E+03  0.32743293091E+03  0.00000000000E+00 0. -1.
         24    2    1    2    0    0  0.40601804907E+02  0.74721075921E+02 -0.62740923604E+02  0.13242034313E+03  0.79793345779E+02 0.  0.
         23    2    1    2    0    0  0.10167533229E+03  0.29051151785E+02 -0.10825975677E+03  0.17667693555E+03  0.91174130128E+02 0.  0.
        -11    1    3    3    0    0 -0.15516531447E+02  0.35122882942E+02  0.14305149484E+01  0.38424289549E+02  0.00000000000E+00 0.  1.
         12    1    3    3    0    0  0.56118336354E+02  0.39598192979E+02 -0.64171438553E+02  0.93996053578E+02  0.00000000000E+00 0. -1.
        -11    1    4    4    0    0  0.30149544814E+02  0.38511431166E+02 -0.89718604219E+02  0.10218391912E+03  0.00000000000E+00 0.  1.
         11    1    4    4    0    0  0.71525787476E+02 -0.94602793806E+01 -0.18541152549E+02  0.74493016437E+02  0.00000000000E+00 0. -1.
         21    1    1    2  503  502 -0.19515790918E+02  0.40638182435E+02  0.54868256694E+02  0.71013052035E+02  0.00000000000E+00 0. -1.
          1    1    1    2  501    0 -0.12276134628E+03 -0.14441041014E+03  0.33927668740E+02  0.19255077617E+03  0.00000000000E+00 0. -1.
<scales pt_clust_5="13000.00000" pt_clust_6="13000.00000" pt_clust_7="13000.00000" pt_clust_8="13000.00000" pt_clust_9="45.08135" pt_clust_10="13000.00000"></scales>
<clustering>
<clus scale="   45.081">  1  9  2 -1</clus>
<clus scale="   79.793">  5  6 -1 -1</clus>
<clus scale="   91.174">  7  8 -1 -1</clus>
<clus scale="  120.544">  2  5  1 -1</clus>
<clus scale="  152.025">  7 10 -1 -1</clus>
<clus scale="   45.081">  1  5  2 -1</clus>
</clustering>
</event>
<event>
10    4  0.7508634E-005  0.1715077E+03  0.7546771E-02  0.1202918E+00
         21   -1    0    0  501  502  0.00000000000E+00  0.00000000000E+00  0.22605651627E+03  0.22605651627E+03  0.00000000000E+00 0. -1.
          2   -1    0    0  503    0 -0.00000000000E+00 -0.00000000000E+00 -0.53041642738E+03  0.53041642738E+03  0.00000000000E+00 0. -1.
         24    2    1    2    0    0  0.43235312691E+02  0.25635354244E+02 -0.44976423431E+03  0.45954010729E+03  0.79767036352E+02 0.  0.
         23    2    1    2    0    0 -0.10613961301E+02 -0.22619458532E+02  0.18249812289E+02  0.96964722807E+02  0.91895624170E+02 0.  0.
        -13    1    3    3    0    0  0.20429738270E+02  0.25792701599E+02 -0.54809384155E+02  0.63927351369E+02  0.00000000000E+00 0.  1.
         14    1    3    3    0    0  0.22805574421E+02 -0.15734735515E+00 -0.39495485016E+03  0.39561275592E+03  0.00000000000E+00 0. -1.
        -11    1    4    4    0    0  0.28775123356E+02  0.82035057445E+01  0.33266669207E+02  0.44743452155E+02  0.00000000000E+00 0. -1.
         11    1    4    4    0    0 -0.39389084656E+02 -0.30822964276E+02 -0.15016856917E+02  0.52221270652E+02  0.00000000000E+00 0.  1.
         21    1    1    2  503  502  0.60686053760E+02  0.34228482509E+01  0.51745578945E+02  0.79825546985E+02  0.00000000000E+00 0. -1.
          1    1    1    2  501    0 -0.93307405151E+02 -0.64387439630E+01  0.75408931975E+02  0.12014256657E+03  0.00000000000E+00 0. -1.
<scales pt_clust_5="13000.00000" pt_clust_6="13000.00000" pt_clust_7="13000.00000" pt_clust_8="13000.00000" pt_clust_9="60.78251" pt_clust_10="13000.00000"></scales>
<clustering>
<clus scale="   60.783">  1  9  2 -1</clus>
<clus scale="   79.767">  5  6 -1 -1</clus>
<clus scale="   91.896">  7  8 -1 -1</clus>
<clus scale="   56.453">  7 10 -1 -1</clus>
<clus scale="   95.174">  2  5  1 -1</clus>
<clus scale="   60.783">  1  5  2 -1</clus>
</clustering>
</event>
<event>
10    4  0.7508634E-005  0.2646988E+03  0.7546771E-02  0.1120609E+00
          2   -1    0    0  503    0 -0.00000000000E+00  0.00000000000E+00  0.27721592761E+04  0.27721592761E+04  0.00000000000E+00 0. -1.
         21   -1    0    0  501  502  0.00000000000E+00 -0.00000000000E+00 -0.48035383789E+02  0.48035383789E+02  0.00000000000E+00 0. -1.
         24    2    1    2    0    0  0.22651335257E+02  0.15099595939E+03  0.17479076524E+04  0.17560907685E+04  0.73217232971E+02 0.  0.
         23    2    1    2    0    0 -0.37636531976E+02 -0.21881572680E+02  0.95396299850E+02  0.13485237983E+03  0.84790321140E+02 0.  0.
        -11    1    3    3    0    0  0.14854605230E+02  0.58347861768E+02  0.35383117389E+03  0.35891730508E+03  0.00000000000E+00 0.  1.
         12    1    3    3    0    0  0.77967300264E+01  0.92648097622E+02  0.13940764785E+04  0.13971734635E+04  0.00000000000E+00 0. -1.
        -13    1    4    4    0    0 -0.45902542543E+02  0.21443599597E+02  0.43792584805E+02  0.66967617992E+02  0.00000000000E+00 0. -1.
         13    1    4    4    0    0  0.82660105674E+01 -0.43325172277E+02  0.51603715045E+02  0.67884761840E+02  0.00000000000E+00 0.  1.
         21    1    1    2  503  502  0.83796461626E+02  0.52719038486E+02  0.35861887941E+03  0.37203312308E+03  0.00000000000E+00 0. -1.
          1    1    1    2  501    0 -0.68811264907E+02 -0.18183342519E+03  0.52220106067E+03  0.55721838848E+03  0.00000000000E+00 0. -1.
<scales pt_clust_5="13000.00000" pt_clust_6="13000.00000" pt_clust_7="13000.00000" pt_clust_8="13000.00000" pt_clust_9="99.00073" pt_clust_10="13000.00000"></scales>
<clustering>
<clus scale="   73.217">  5  6 -1 -1</clus>
<clus scale="   84.790">  7  8 -1 -1</clus>
<clus scale="   99.001">  2  9  1 -1</clus>
<clus scale="  162.940">  7 10 -1 -1</clus>
<clus scale="  175.276">  1  5  2 -1</clus>
<clus scale="   99.001">  2  5  1 -1</clus>
</clustering>
</event>
<event>
10    4  0.7508634E-005  0.2985537E+03  0.7546771E-02  0.1118226E+00
          2   -1    0    0  502    0 -0.00000000000E+00  0.00000000000E+00  0.28908074963E+03  0.28908074963E+03  0.00000000000E+00 0. -1.
         21   -1    0    0  503  502  0.00000000000E+00 -0.00000000000E+00 -0.25457431812E+03  0.25457431812E+03  0.00000000000E+00 0.  1.
         24    2    1    2    0    0  0.24621118242E+02 -0.11230430296E+03 -0.22259664362E+02  0.14184009768E+03  0.80029149221E+02 0.  0.
         23    2    1    2    0    0 -0.39415624419E+02  0.42586828737E+02 -0.60256930106E+02  0.12450805234E+03  0.92217829303E+02 0.  0.
        -11    1    3    3    0    0 -0.16789981746E+01 -0.62556321670E+02  0.25944855061E+02  0.67743988072E+02  0.00000000000E+00 0.  1.
         12    1    3    3    0    0  0.26300116416E+02 -0.49747981287E+02 -0.48204519423E+02  0.74096109604E+02  0.00000000000E+00 0. -1.
        -13    1    4    4    0    0 -0.65921145671E+02  0.41830034376E+02 -0.59184288888E+02  0.97970042736E+02  0.00000000000E+00 0.  1.
         13    1    4    4    0    0  0.26505521252E+02  0.75679436014E+00 -0.10726412187E+01  0.26538009604E+02  0.00000000000E+00 0. -1.
         21    1    1    2  503  501 -0.46172369834E+01  0.27620509632E+02 -0.74848054309E+02  0.79915221726E+02  0.00000000000E+00 0.  1.
          1    1    1    2  501    0  0.19411743161E+02  0.42096964589E+02  0.19187108029E+03  0.19739169600E+03  0.00000000000E+00 0. -1.
<scales pt_clust_5="13000.00000" pt_clust_6="13000.00000" pt_clust_7="13000.00000" pt_clust_8="13000.00000" pt_clust_9="28.00378" pt_clust_10="13000.00000"></scales>
<clustering>
<clus scale="   28.004">  2  9  1 -1</clus>
<clus scale="   80.029">  5  6 -1 -1</clus>
<clus scale="   92.218">  7  8 -1 -1</clus>
<clus scale="   46.718">  7 10 -1 -1</clus>
<clus scale="  129.666">  1  5  2 -1</clus>
<clus scale="   28.004">  2  5  1 -1</clus>
</clustering>
</event>
<event>
10    4  0.7508634E-005  0.1627931E+03  0.7546771E-02  0.1213075E+00
         21   -1    0    0  503  502  0.00000000000E+00  0.00000000000E+00  0.10998175643E+03  0.10998175643E+03  0.00000000000E+00 0.  1.
          2   -1    0    0  502    0 -0.00000000000E+00 -0.00000000000E+00 -0.79855787647E+03  0.79855787647E+03  0.00000000000E+00 0. -1.
         24    2    1    2    0    0 -0.73983516905E+02 -0.51029880636E+02 -0.22220948806E+03  0.25166667871E+03  0.76690619329E+02 0.  0.
         23    2    1    2    0    0  0.43625482369E+01  0.28062365036E+02 -0.30907262684E+03  0.32458961718E+03  0.95005277515E+02 0.  0.
        -11    1    3    3    0    0 -0.95638234495E+01 -0.50240995570E+02 -0.72896882243E+02  0.89048188054E+02  0.00000000000E+00 0.  1.
         12    1    3    3    0    0 -0.64419693455E+02 -0.78888506608E+00 -0.14931260582E+03  0.16261849065E+03  0.00000000000E+00 0. -1.
        -13    1    4    4    0    0 -0.21510841241E+02 -0.28000050391E+02 -0.14627335809E+03  0.15047463042E+03  0.00000000000E+00 0.  1.
         13    1    4    4    0    0  0.25873389478E+02  0.56062415427E+02 -0.16279926876E+03  0.17411498676E+03  0.00000000000E+00 0. -1.
         21    1    1    2  503  501  0.51389223060E+02  0.81477913634E+02  0.55270838407E+02  0.11106020095E+03  0.00000000000E+00 0.  1.
          1    1    1    2  501    0  0.18231745608E+02 -0.58510398033E+02 -0.21256484353E+03  0.22122313607E+03  0.00000000000E+00 0. -1.
<scales pt_clust_5="13000.00000" pt_clust_6="13000.00000" pt_clust_7="13000.00000" pt_clust_8="13000.00000" pt_clust_9="96.33018" pt_clust_10="13000.00000"></scales>
<clustering>
<clus scale="   76.691">  5  6 -1 -1</clus>
<clus scale="   95.005">  7  8 -1 -1</clus>
<clus scale="   61.285">  7 10 -1 -1</clus>
<clus scale="   96.330">  1  9  2 -1</clus>
<clus scale="   89.525">  2  5  1 -1</clus>
<clus scale="   96.330">  1  5  2 -1</clus>
</clustering>
</event>
<event>
10    4  0.7508634E-005  0.2789287E+03  0.7546771E-02  0.1110083E+00
         21   -1    0    0  501  502  0.00000000000E+00  0.00000000000E+00  0.38597828194E+03  0.38597828194E+03  0.00000000000E+00 0.  1.
          2   -1    0    0  503    0 -0.00000000000E+00 -0.00000000000E+00 -0.48836189513E+03  0.48836189513E+03  0.00000000000E+00 0. -1.
         24    2    1    2    0    0  0.13861407986E+03 -0.30249485793E+02 -0.56488310733E+02  0.17246195692E+03  0.80145510218E+02 0.  0.
         23    2    1    2    0    0 -0.11310855233E+03  0.18780542616E+03 -0.23431734323E+03  0.33363474502E+03  0.91340588130E+02 0.  0.
        -11    1    3    3    0    0  0.60605873786E+02  0.14716912522E+02 -0.53825466518E+02  0.82382281453E+02  0.00000000000E+00 0.  1.
         12    1    3    3    0    0  0.78008206078E+02 -0.44966398315E+02 -0.26628442147E+01  0.90079675467E+02  0.00000000000E+00 0. -1.
        -13    1    4    4    0    0 -0.83994159774E+01  0.32133597085E+02 -0.93007564006E+02  0.98759937286E+02  0.00000000000E+00 0. -1.
         13    1    4    4    0    0 -0.10470913635E+03  0.15567182907E+03 -0.14130977923E+03  0.23487480773E+03  0.00000000000E+00 0.  1.
         21    1    1    2  503  502  0.41239703996E+02 -0.11761967632E+03  0.24308447251E+03  0.27317606451E+03  0.00000000000E+00 0.  1.
          1    1    1    2  501    0 -0.66745231530E+02 -0.39936264046E+02 -0.54662431746E+02  0.95067410622E+02  0.00000000000E+00 0. -1.
<scales pt_clust_5="13000.00000" pt_clust_6="13000.00000" pt_clust_7="13000.00000" pt_clust_8="13000.00000" pt_clust_9="124.63989" pt_clust_10="13000.00000"></scales>
<clustering>
<clus scale="   80.146">  5  6 -1 -1</clus>
<clus scale="   91.341">  7  8 -1 -1</clus>
<clus scale="   77.781">  7 10 -1 -1</clus>
<clus scale="  124.640">  1  9  2 -1</clus>
<clus scale="  195.348">  2  5  1 -1</clus>
<clus scale="  124.640">  1  5  2 -1</clus>
</clustering>
</event>
<event>
10    4  0.7508634E-005  0.2151080E+03  0.7546771E-02  0.1168066E+00
          2   -1    0    0  502    0 -0.00000000000E+00  0.00000000000E+00  0.14669919247E+03  0.14669919247E+03  0.00000000000E+00 0. -1.
         21   -1    0    0  503  502  0.00000000000E+00 -0.00000000000E+00 -0.32036982142E+03  0.32036982142E+03  0.00000000000E+00 0. -1.
         24    2    1    2    0    0 -0.15677153083E+02  0.75918765446E+02  0.30782111454E+02  0.11710898133E+03  0.82204276333E+02 0.  0.
         23    2    1    2    0    0 -0.56686604614E+02  0.45685226873E+02 -0.33974969542E+02  0.12052431172E+03  0.89840414414E+02 0.  0.
        -13    1    3    3    0    0  0.29140244153E+01  0.46847753999E+02 -0.23727768094E+02  0.52594777039E+02  0.00000000000E+00 0.  1.
         14    1    3    3    0    0 -0.18591177498E+02  0.29071011447E+02  0.54509879547E+02  0.64514204293E+02  0.00000000000E+00 0. -1.
        -13    1    4    4    0    0 -0.35446185129E+02  0.37767175367E+02  0.24875238798E+02  0.57459281936E+02  0.00000000000E+00 0.  1.
         13    1    4    4    0    0 -0.21240419485E+02  0.79180515061E+01 -0.58850208339E+02  0.63065029780E+02  0.00000000000E+00 0. -1.
         21    1    1    2  503  501  0.14212569730E+02 -0.57851829260E+02 -0.10645202762E+03  0.12198715289E+03  0.00000000000E+00 0. -1.
          1    1    1    2  501    0  0.58151187966E+02 -0.63752163059E+02 -0.64025743240E+02  0.10744856795E+03  0.00000000000E+00 0. -1.
<scales pt_clust_5="13000.00000" pt_clust_6="13000.00000" pt_clust_7="13000.00000" pt_clust_8="13000.00000" pt_clust_9="59.57207" pt_clust_10="13000.00000"></scales>
<clustering>
<clus scale="   59.572">  2  9  1 -1</clus>
<clus scale="   82.204">  5  6 -1 -1</clus>
<clus scale="   89.840">  7  8 -1 -1</clus>
<clus scale="  104.833">  1  5  2 -1</clus>
<clus scale="   81.964">  7 10 -1 -1</clus>
<clus scale="   59.572">  2  5  1 -1</clus>
</clustering>
</event>
<event>
10    4  0.7508634E-005  0.1848842E+03  0.7546771E-02  0.1197102E+00
          2   -1    0    0  502    0 -0.00000000000E+00  0.00000000000E+00  0.58843407647E+03  0.58843407647E+03  0.00000000000E+00 0. -1.
         21   -1    0    0  503  502  0.00000000000E+00 -0.00000000000E+00 -0.97607827466E+02  0.97607827466E+02  0.00000000000E+00 0. -1.
         24    2    1    2    0    0  0.22937270949E+01  0.30923033370E+02  0.27211532616E+03  0.28544330049E+03  0.80434021922E+02 0.  0.
         23    2    1    2    0    0  0.62407180244E+02 -0.18334313726E+02  0.71298097807E+02  0.13185901872E+03  0.89847531195E+02 0.  0.
        -13    1    3    3    0    0 -0.25659603439E+02  0.92577132451E+01  0.29171115910E+02  0.39938383876E+02  0.00000000000E+00 0.  1.
         14    1    3    3    0    0  0.27953330534E+02  0.21665320124E+02  0.24294421025E+03  0.24550491661E+03  0.00000000000E+00 0. -1.
        -13    1    4    4    0    0  0.42957347161E+02 -0.52704195068E+02  0.28789748338E+02  0.73837087309E+02  0.00000000000E+00 0. -1.
         13    1    4    4    0    0  0.19449833083E+02  0.34369881342E+02  0.42508349469E+02  0.58021931414E+02  0.00000000000E+00 0.  1.
         21    1    1    2  503  501 -0.88267631210E+02 -0.42108263660E+01 -0.27110483712E+02  0.92433133157E+02  0.00000000000E+00 0. -1.
          1    1    1    2  501    0  0.23566723871E+02 -0.83778932775E+01  0.17452330875E+03  0.17630645157E+03  0.00000000000E+00 0. -1.
<scales pt_clust_5="13000.00000" pt_clust_6="13000.00000" pt_clust_7="13000.00000" pt_clust_8="13000.00000" pt_clust_9="88.03081" pt_clust_10="13000.00000"></scales>
<clustering>
<clus scale="   80.434">  5  6 -1 -1</clus>
<clus scale="   86.204">  1  5  2 -1</clus>
<clus scale="   88.031">  2  9  1 -1</clus>
<clus scale="   89.848">  7  8 -1 -1</clus>
<clus scale="   16.287">  7 10 -1 -1</clus>
<clus scale="   88.031">  2  5  1 -1</clus>
</clustering>
</event>
<event>
10    4  0.7508634E-005  0.3333878E+03  0.7546771E-02  0.1088134E+00
          2   -1    0    0  503    0 -0.00000000000E+00  0.00000000000E+00  0.38333849659E+03  0.38333849659E+03  0.00000000000E+00 0. -1.
         21   -1    0    0  501  502  0.00000000000E+00 -0.00000000000E+00 -0.61638099942E+03  0.61638099942E+03  0.00000000000E+00 0. -1.
         24    2    1    2    0    0 -0.13130934726E+03 -0.12482358307E+03  0.24245042877E+03  0.31324337388E+03  0.80722545205E+02 0.  0.
         23    2    1    2    0    0 -0.48489762086E+02  0.50322459634E+02 -0.86300069716E+02  0.14361297104E+03  0.91067977060E+02 0.  0.
        -13    1    3    3    0    0 -0.35717305049E+02 -0.75075526229E+02  0.64573834769E+02  0.10527032182E+03  0.00000000000E+00 0.  1.
         14    1    3    3    0    0 -0.95592042211E+02 -0.49748056836E+02  0.17787659400E+03  0.20797305206E+03  0.00000000000E+00 0. -1.
        -11    1    4    4    0    0 -0.34245360061E+02 -0.15651004991E+02 -0.60695433090E+02  0.71425725344E+02  0.00000000000E+00 0.  1.
         11    1    4    4    0    0 -0.14244402025E+02  0.65973464625E+02 -0.25604636626E+02  0.72187245691E+02  0.00000000000E+00 0. -1.
         21    1    1    2  503  502 -0.40827424337E+02 -0.19170527823E+02 -0.27262813279E+03  0.27633401257E+03  0.00000000000E+00 0. -1.
          1    1    1    2  501    0  0.22062653368E+03  0.93671651254E+02 -0.11656472910E+03  0.26652913853E+03  0.00000000000E+00 0. -1.
<scales pt_clust_5="13000.00000" pt_clust_6="13000.00000" pt_clust_7="13000.00000" pt_clust_8="13000.00000" pt_clust_9="45.10419" pt_clust_10="13000.00000"></scales>
<clustering>
<clus scale="   45.104">  2  9  1 -1</clus>
<clus scale="   80.723">  5  6 -1 -1</clus>
<clus scale="   91.068">  7  8 -1 -1</clus>
<clus scale="  202.402">  1  5  2 -1</clus>
<clus scale="  109.319">  7 10 -1 -1</clus>
<clus scale="   45.104">  2  5  1 -1</clus>
</clustering>
</event>
<event>
10    4  0.7508634E-005  0.5838600E+03  0.7546771E-02  0.1044866E+00
          2   -1    0    0  502    0 -0.00000000000E+00  0.00000000000E+00  0.65761671998E+03  0.65761671998E+03  0.00000000000E+00 0. -1.
         21   -1    0    0  503  502  0.00000000000E+00 -0.00000000000E+00 -0.35854652512E+03  0.35854652512E+03  0.00000000000E+00 0. -1.
         24    2    1    2    0    0  0.88665996145E+02  0.50901372240E+01  0.10634473032E+03  0.16345938487E+03  0.86730620119E+02 0.  0.
         23    2    1    2    0    0 -0.51425739422E+02 -0.13488421027E+03 -0.99294182947E+02  0.19923731394E+03  0.94856816541E+02 0.  0.
        -13    1    3    3    0    0  0.97017953776E+02  0.24475947389E+02  0.99894026826E+02  0.14138731185E+03  0.00000000000E+00 0.  1.
         14    1    3    3    0    0 -0.83519576310E+01 -0.19385810165E+02  0.64507034925E+01  0.22072073024E+02  0.00000000000E+00 0. -1.
        -11    1    4    4    0    0  0.59391939966E+01 -0.10375218556E+03 -0.80088740419E+02  0.13120212032E+03  0.00000000000E+00 0.  1.
         11    1    4    4    0    0 -0.57364933419E+02 -0.31132024705E+02 -0.19205442528E+02  0.68035193621E+02  0.00000000000E+00 0. -1.
         21    1    1    2  503  501  0.58615362531E+01 -0.33577792199E+02 -0.16381587373E+03  0.16732443403E+03  0.00000000000E+00 0. -1.
          1    1    1    2  501    0 -0.43101792976E+02  0.16337186524E+03  0.45583552122E+03  0.48614211227E+03  0.00000000000E+00 0. -1.
<scales pt_clust_5="13000.00000" pt_clust_6="13000.00000" pt_clust_7="13000.00000" pt_clust_8="13000.00000" pt_clust_9="34.08556" pt_clust_10="13000.00000"></scales>
<clustering>
<clus scale="   34.086">  2  9  1 -1</clus>
<clus scale="   86.731">  5  6 -1 -1</clus>
<clus scale="   94.857">  7  8 -1 -1</clus>
<clus scale="  124.653">  1  5  2 -1</clus>
<clus scale="  164.777">  7 10 -1 -1</clus>
<clus scale="   34.086">  2  5  1 -1</clus>
</clustering>
</event>
<event>
10    4  0.7508634E-005  0.2462288E+03  0.7546771E-02  0.1159458E+00
          2   -1    0    0  502    0 -0.00000000000E+00  0.00000000000E+00  0.23745683817E+03  0.23745683817E+03  0.00000000000E+00 0. -1.
         21   -1    0    0  503  502  0.00000000000E+00 -0.00000000000E+00 -0.17367014014E+03  0.17367014014E+03  0.00000000000E+00 0. -1.
         24    2    1    2    0    0  0.31838544842E+02  0.22488891833E+01  0.66326202753E+02  0.10904984937E+03  0.80460885133E+02 0.  0.
         23    2    1    2    0    0  0.47583126097E+02 -0.83806803901E+02 -0.70525624759E+02  0.15006529103E+03  0.90873503044E+02 0.  0.
        -11    1    3    3    0    0  0.28546449605E+02 -0.35578841461E+02  0.50106476887E+02  0.67759964365E+02  0.00000000000E+00 0.  1.
         12    1    3    3    0    0  0.32920952374E+01  0.37827730645E+02  0.16219725866E+02  0.41289885008E+02  0.00000000000E+00 0. -1.
        -11    1    4    4    0    0  0.36461611508E+02 -0.45813989936E+01 -0.58613959941E+02  0.69181172515E+02  0.00000000000E+00 0.  1.
         11    1    4    4    0    0  0.11121514589E+02 -0.79225404908E+02 -0.11911664818E+02  0.80884118517E+02  0.00000000000E+00 0. -1.
         21    1    1    2  503  501 -0.32344182910E+02  0.41674925178E+02 -0.88266845091E+01  0.53486969592E+02  0.00000000000E+00 0. -1.
          1    1    1    2  501    0 -0.47077488029E+02  0.39882989540E+02  0.76812804547E+02  0.98524868313E+02  0.00000000000E+00 0. -1.
<scales pt_clust_5="13000.00000" pt_clust_6="13000.00000" pt_clust_7="13000.00000" pt_clust_8="13000.00000" pt_clust_9="52.75363" pt_clust_10="13000.00000"></scales>
<clustering>
<clus scale="   52.754">  2  9  1 -1</clus>
<clus scale="   80.461">  5  6 -1 -1</clus>
<clus scale="   85.291">  1  5  2 -1</clus>
<clus scale="   90.874">  7  8 -1 -1</clus>
<clus scale="   57.934">  7 10 -1 -1</clus>
<clus scale="   52.754">  2  5  1 -1</clus>
</clustering>
</event>
<event>
10    4  0.7508634E-005  0.9529719E+03  0.7546771E-02  0.1002528E+00
         -1   -1    0    0    0  501 -0.00000000000E+00  0.00000000000E+00  0.33589503550E+03  0.33589503550E+03  0.00000000000E+00 0.  1.
         21   -1    0    0  503  502  0.00000000000E+00 -0.00000000000E+00 -0.99944850950E+03  0.99944850950E+03  0.00000000000E+00 0.  1.
         24    2    1    2    0    0 -0.25770446483E+02  0.56441674526E+02 -0.45154187252E+02  0.11203581326E+03  0.81629310242E+02 0.  0.
         23    2    1    2    0    0 -0.12093070374E+03  0.12889859712E+03  0.24556288291E+03  0.31602331884E+03  0.91271710503E+02 0.  0.
        -11    1    3    3    0    0 -0.46078235521E+02  0.65329812340E+02 -0.31057869956E+02  0.85765840842E+02  0.00000000000E+00 0.  1.
         12    1    3    3    0    0  0.20307789038E+02 -0.88881378137E+01 -0.14096317296E+02  0.26269972415E+02  0.00000000000E+00 0. -1.
        -11    1    4    4    0    0 -0.57936751708E+02  0.10122024576E+03  0.20581040840E+03  0.23655893464E+03  0.00000000000E+00 0.  1.
         11    1    4    4    0    0 -0.62993952031E+02  0.27678351356E+02  0.39752474511E+02  0.79464384199E+02  0.00000000000E+00 0. -1.
         21    1    1    2  503  501 -0.25571499467E+02 -0.15856290259E+02 -0.16505744524E+03  0.16777748286E+03  0.00000000000E+00 0.  1.
         -2    1    1    2    0  502  0.17227264969E+03 -0.16948398139E+03 -0.69890472442E+03  0.73950693005E+03  0.00000000000E+00 0.  1.
<scales pt_clust_5="13000.00000" pt_clust_6="13000.00000" pt_clust_7="13000.00000" pt_clust_8="13000.00000" pt_clust_9="30.08859" pt_clust_10="13000.00000"></scales>
<clustering>
<clus scale="   30.089">  2  9  1 -1</clus>
<clus scale="   81.629">  5  6 -1 -1</clus>
<clus scale="   91.272">  7  8 -1 -1</clus>
<clus scale="  102.356">  1  5  2 -1</clus>
<clus scale="  232.715">  7 10 -1 -1</clus>
<clus scale="   30.089">  2  5  1 -1</clus>
</clustering>
</event>
<event>
10    4  0.7508634E-005  0.1642422E+03  0.7546771E-02  0.1207110E+00
          2   -1    0    0  502    0 -0.00000000000E+00  0.00000000000E+00  0.51297753080E+03  0.51297753080E+03  0.00000000000E+00 0. -1.
         21   -1    0    0  503  502  0.00000000000E+00 -0.00000000000E+00 -0.54558899859E+02  0.54558899859E+02  0.00000000000E+00 0. -1.
         24    2    1    2    0    0 -0.45434596187E+02 -0.26294080184E+02  0.20953896356E+03  0.23059861518E+03  0.80706027595E+02 0.  0.
         23    2    1    2    0    0  0.13307675761E+02 -0.30494526863E+02  0.15915007041E+03  0.18646789894E+03  0.91293603399E+02 0.  0.
        -11    1    3    3    0    0  0.20897726617E+02  0.42727381802E+01  0.30341107015E+02  0.37088462414E+02  0.00000000000E+00 0.  1.
         12    1    3    3    0    0 -0.66332322804E+02 -0.30566818364E+02  0.17919785654E+03  0.19351015277E+03  0.00000000000E+00 0. -1.
        -13    1    4    4    0    0 -0.30122254489E+02  0.55521686069E+01  0.10053263009E+03  0.10509513074E+03  0.00000000000E+00 0.  1.
         13    1    4    4    0    0  0.43429930250E+02 -0.36046695470E+02  0.58617440324E+02  0.81372768209E+02  0.00000000000E+00 0. -1.
         21    1    1    2  503  501 -0.25088409831E+02  0.12880098748E+02 -0.77159106185E+01  0.29237998021E+02  0.00000000000E+00 0. -1.
          1    1    1    2  501    0  0.57215330257E+02  0.43908508299E+02  0.97445507586E+02  0.12123191851E+03  0.00000000000E+00 0. -1.
<scales pt_clust_5="13000.00000" pt_clust_6="13000.00000" pt_clust_7="13000.00000" pt_clust_8="13000.00000" pt_clust_9="28.20151" pt_clust_10="13000.00000"></scales>
<clustering>
<clus scale="   28.202">  2  9  1 -1</clus>
<clus scale="   80.706">  5  6 -1 -1</clus>
<clus scale="   91.294">  7  8 -1 -1</clus>
<clus scale="   68.662">  7 10 -1 -1</clus>
<clus scale="   99.018">  1  5  2 -1</clus>
<clus scale="   28.202">  2  5  1 -1</clus>
</clustering>
</event>
<event>
10    4  0.7508634E-005  0.4046812E+03  0.7546771E-02  0.1089431E+00
         21   -1    0    0  501  502  0.00000000000E+00  0.00000000000E+00  0.18954415870E+04  0.18954415870E+04  0.00000000000E+00 0. -1.
          2   -1    0    0  503    0 -0.00000000000E+00 -0.00000000000E+00 -0.28326949888E+03  0.28326949888E+03  0.00000000000E+00 0. -1.
         24    2    1    2    0    0 -0.18975348064E+02  0.29409120007E+02 -0.13338569202E+03  0.17247565868E+03  0.10359126327E+03 0.  0.
         23    2    1    2    0    0  0.25757349619E+02 -0.63763083241E+02  0.91019906613E+01  0.11298541785E+03  0.89183443362E+02 0.  0.
        -13    1    3    3    0    0 -0.59425955066E+02  0.26786780941E+02 -0.59776294766E+02  0.88443095743E+02  0.00000000000E+00 0.  1.
         14    1    3    3    0    0  0.40450607003E+02  0.26223390666E+01 -0.73609397254E+02  0.84032562933E+02  0.00000000000E+00 0. -1.
        -13    1    4    4    0    0 -0.32467260070E+02 -0.12018906401E+02  0.50356017690E+01  0.34984773441E+02  0.00000000000E+00 0.  1.
         13    1    4    4    0    0  0.58224609689E+02 -0.51744176841E+02  0.40663888924E+01  0.78000644414E+02  0.00000000000E+00 0. -1.
         21    1    1    2  503  502 -0.12934687129E+03 -0.20717761409E+03  0.15385122382E+04  0.15577782525E+04  0.00000000000E+00 0. -1.
          1    1    1    2  501    0  0.12256486974E+03  0.24153157732E+03  0.19794355125E+03  0.33547175681E+03  0.00000000000E+00 0. -1.
<scales pt_clust_5="13000.00000" pt_clust_6="13000.00000" pt_clust_7="13000.00000" pt_clust_8="13000.00000" pt_clust_9="243.15025" pt_clust_10="13000.00000"></scales>
<clustering>
<clus scale="   89.183">  7  8 -1 -1</clus>
<clus scale="  103.591">  5  6 -1 -1</clus>
<clus scale="  109.344">  2  5  1 -1</clus>
<clus scale="  243.150">  1  9  2 -1</clus>
<clus scale="   89.995">  7 10 -1 -1</clus>
<clus scale="  243.150">  1  5  2 -1</clus>
</clustering>
</event>
<event>
10    4  0.7508634E-005  0.2375288E+03  0.7546771E-02  0.1151450E+00
          2   -1    0    0  503    0 -0.00000000000E+00  0.00000000000E+00  0.79293180799E+03  0.79293180799E+03  0.00000000000E+00 0. -1.
         21   -1    0    0  501  502  0.00000000000E+00 -0.00000000000E+00 -0.57157145861E+02  0.57157145861E+02  0.00000000000E+00 0. -1.
         24    2    1    2    0    0  0.49557027851E+02 -0.46637311790E+02  0.18303885629E+03  0.21046041148E+03  0.78481998109E+02 0.  0.
         23    2    1    2    0    0  0.38517642732E+02  0.11465025142E+02  0.17663918015E+03  0.20271827378E+03  0.90984850157E+02 0.  0.
        -13    1    3    3    0    0  0.47690457206E+02  0.55503230419E+01  0.11554383644E+03  0.12512219601E+03  0.00000000000E+00 0.  1.
         14    1    3    3    0    0  0.18665706455E+01 -0.52187634832E+02  0.67495019856E+02  0.85338215476E+02  0.00000000000E+00 0. -1.
        -11    1    4    4    0    0  0.33256965864E+01  0.47422636122E+02  0.10406745592E+03  0.11441154687E+03  0.00000000000E+00 0. -1.
         11    1    4    4    0    0  0.35191946146E+02 -0.35957610980E+02  0.72571724224E+02  0.88306726912E+02  0.00000000000E+00 0.  1.
         21    1    1    2  503  502  0.55170811261E+02 -0.25511093606E+02  0.15565814644E+03  0.16710503543E+03  0.00000000000E+00 0.  1.
          1    1    1    2  501    0 -0.14324548184E+03  0.60683380254E+02  0.22043847925E+03  0.26980523316E+03  0.00000000000E+00 0. -1.
<scales pt_clust_5="13000.00000" pt_clust_6="13000.00000" pt_clust_7="13000.00000" pt_clust_8="13000.00000" pt_clust_9="60.78353" pt_clust_10="13000.00000"></scales>
<clustering>
<clus scale="   60.784">  2  9  1 -1</clus>
<clus scale="   78.482">  5  6 -1 -1</clus>
<clus scale="   90.985">  7  8 -1 -1</clus>
<clus scale="  114.651">  1  5  2 -1</clus>
<clus scale="   91.822">  7 10 -1 -1</clus>
<clus scale="   60.784">  2  5  1 -1</clus>
</clustering>
</event>
<event>
10    4  0.7508634E-005  0.1128083E+04  0.7546771E-02  0.9578682E-01
          2   -1    0    0  503    0 -0.00000000000E+00  0.00000000000E+00  0.44691114945E+03  0.44691114945E+03  0.00000000000E+00 0. -1.
         21   -1    0    0  501  502  0.00000000000E+00 -0.00000000000E+00 -0.11597111587E+04  0.11597111587E+04  0.00000000000E+00 0. -1.
         24    2    1    2    0    0 -0.19394471805E+03 -0.17226626569E+03 -0.14885357750E+03  0.30995021933E+03  0.81372790111E+02 0.  0.
         23    2    1    2    0    0 -0.26735369826E+03 -0.20730125436E+03 -0.59598565115E+03  0.69105505667E+03  0.88917855036E+02 0.  0.
        -13    1    3    3    0    0 -0.65854119851E+02 -0.11113690293E+03 -0.82474922217E+02  0.15326542039E+03  0.00000000000E+00 0.  1.
         14    1    3    3    0    0 -0.12809059820E+03 -0.61129362763E+02 -0.66378655283E+02  0.15668479893E+03  0.00000000000E+00 0. -1.
        -11    1    4    4    0    0 -0.60797833981E+02 -0.14893869252E+02 -0.15838173000E+03  0.17030260232E+03  0.00000000000E+00 0.  1.
         11    1    4    4    0    0 -0.20655586428E+03 -0.19240738511E+03 -0.43760392115E+03  0.52075245436E+03  0.00000000000E+00 0. -1.
         21    1    1    2  503  502  0.11847119804E+02  0.21059429565E+02  0.18677983258E+02  0.30540479365E+02  0.00000000000E+00 0.  1.
          1    1    1    2  501    0  0.44945129651E+03  0.35850809048E+03  0.13361236186E+02  0.57507655274E+03  0.00000000000E+00 0. -1.
<scales pt_clust_5="13000.00000" pt_clust_6="13000.00000" pt_clust_7="13000.00000" pt_clust_8="13000.00000" pt_clust_9="24.16308" pt_clust_10="13000.00000"></scales>
<clustering>
<clus scale="   24.163">  2  9  1 -1</clus>
<clus scale="   81.373">  5  6 -1 -1</clus>
<clus scale="   88.918">  7  8 -1 -1</clus>
<clus scale="  267.542">  1  5  2 -1</clus>
<clus scale="  368.465">  7 10 -1 -1</clus>
<clus scale="   24.163">  2  5  1 -1</clus>
</clustering>
</event>
<event>
10    4  0.7508634E-005  0.1249844E+03  0.7546771E-02  0.1254718E+00
          2   -1    0    0  503    0 -0.00000000000E+00  0.00000000000E+00  0.32954150616E+03  0.32954150616E+03  0.00000000000E+00 0. -1.
         21   -1    0    0  501  502  0.00000000000E+00 -0.00000000000E+00 -0.18594465194E+03  0.18594465194E+03  0.00000000000E+00 0.  1.
         24    2    1    2    0    0  0.14399808093E+01  0.84707967653E+01  0.13916644853E+03  0.16086892461E+03  0.80235170378E+02 0.  0.
         23    2    1    2    0    0 -0.32248884603E+02 -0.56910570867E+02  0.10564641796E+03  0.15521661942E+03  0.93017362263E+02 0.  0.
        -11    1    3    3    0    0  0.30502248952E+02  0.31147237531E+02  0.69241325890E+02  0.81822361296E+02  0.00000000000E+00 0.  1.
         12    1    3    3    0    0 -0.29062268142E+02 -0.22676440766E+02  0.69925122637E+02  0.79046563311E+02  0.00000000000E+00 0. -1.
        -13    1    4    4    0    0  0.29957044166E+02 -0.31333092288E+01  0.18250530781E+02  0.35218233852E+02  0.00000000000E+00 0. -1.
         13    1    4    4    0    0 -0.62205928769E+02 -0.53777261638E+02  0.87395887181E+02  0.11999838557E+03  0.00000000000E+00 0.  1.
         21    1    1    2  503  502  0.81349886308E+01  0.60841246915E+02 -0.13995960619E+03  0.15282842252E+03  0.00000000000E+00 0.  1.
          1    1    1    2  501    0  0.22673915163E+02 -0.12401472813E+02  0.38743593911E+02  0.46572191551E+02  0.00000000000E+00 0. -1.
<scales pt_clust_5="13000.00000" pt_clust_6="13000.00000" pt_clust_7="13000.00000" pt_clust_8="13000.00000" pt_clust_9="61.38270" pt_clust_10="13000.00000"></scales>
<clustering>
<clus scale="   61.383">  2  9  1 -1</clus>
<clus scale="   80.235">  5  6 -1 -1</clus>
<clus scale="   84.169">  1  5  2 -1</clus>
<clus scale="   93.017">  7  8 -1 -1</clus>
<clus scale="   24.433">  7 10 -1 -1</clus>
<clus scale="   61.383">  2  5  1 -1</clus>
</clustering>
</event>
<event>
10    4  0.7508634E-005  0.2163939E+03  0.7546771E-02  0.1167624E+00
          2   -1    0    0  502    0 -0.00000000000E+00  0.00000000000E+00  0.35474173950E+03  0.35474173950E+03  0.00000000000E+00 0. -1.
         21   -1    0    0  503  502  0.00000000000E+00 -0.00000000000E+00 -0.89282436227E+02  0.89282436227E+02  0.00000000000E+00 0. -1.
         24    2    1    2    0    0 -0.22758338477E+02 -0.63790239735E+02  0.12946001961E+03  0.16699675857E+03  0.80875732075E+02 0.  0.
         23    2    1    2    0    0 -0.80679655795E+01  0.24233200991E+02 -0.12040993482E+02  0.96898122521E+02  0.92692613110E+02 0.  0.
        -11    1    3    3    0    0 -0.16330841624E+02  0.17366700348E+02  0.34193611798E+02  0.41683351076E+02  0.00000000000E+00 0.  1.
         12    1    3    3    0    0 -0.64274968532E+01 -0.81156940084E+02  0.95266407816E+02  0.12531340749E+03  0.00000000000E+00 0. -1.
        -13    1    4    4    0    0 -0.15364585146E+02  0.43432386706E+02 -0.40812623423E+02  0.61547647578E+02  0.00000000000E+00 0. -1.
         13    1    4    4    0    0  0.72966195665E+01 -0.19199185715E+02  0.28771629941E+02  0.35350474943E+02  0.00000000000E+00 0.  1.
         21    1    1    2  503  501 -0.14236284044E+02  0.15853609212E+02 -0.22712389671E+01  0.21428187858E+02  0.00000000000E+00 0. -1.
          1    1    1    2  501    0  0.45062588100E+02  0.23703429532E+02  0.15031151611E+03  0.15870110678E+03  0.00000000000E+00 0. -1.
<scales pt_clust_5="13000.00000" pt_clust_6="13000.00000" pt_clust_7="13000.00000" pt_clust_8="13000.00000" pt_clust_9="21.30748" pt_clust_10="13000.00000"></scales>
<clustering>
<clus scale="   21.307">  2  9  1 -1</clus>
<clus scale="   80.876">  5  6 -1 -1</clus>
<clus scale="   92.693">  7  8 -1 -1</clus>
<clus scale="   50.646">  7 10 -1 -1</clus>
<clus scale="  104.026">  1  5  2 -1</clus>
<clus scale="   21.307">  2  5  1 -1</clus>
</clustering>
</event>
<event>
10    4  0.7508634E-005  0.1512970E+03  0.7546771E-02  0.1223222E+00
         21   -1    0    0  501  502  0.00000000000E+00  0.00000000000E+00  0.12925498714E+03  0.12925498714E+03  0.00000000000E+00 0. -1.
          2   -1    0    0  503    0 -0.00000000000E+00 -0.00000000000E+00 -0.20882353403E+03  0.20882353403E+03  0.00000000000E+00 0. -1.
         24    2    1    2    0    0  0.89527865497E+01 -0.48315854434E+02 -0.93340397467E+02  0.13228765270E+03  0.79831191158E+02 0.  0.
         23    2    1    2    0    0  0.38038891023E+02  0.17536550669E+02 -0.49501566831E+02  0.11033648964E+03  0.89270644608E+02 0.  0.
        -13    1    3    3    0    0  0.41070244245E+02 -0.42036130767E+02 -0.73155337661E+02  0.93837650655E+02  0.00000000000E+00 0.  1.
         14    1    3    3    0    0 -0.32117457695E+02 -0.62797236674E+01 -0.20185059806E+02  0.38450002048E+02  0.00000000000E+00 0. -1.
        -13    1    4    4    0    0  0.33099228535E+02  0.48824351598E+02 -0.10203741491E+02  0.59862280102E+02  0.00000000000E+00 0.  1.
         13    1    4    4    0    0  0.49396624880E+01 -0.31287800929E+02 -0.39297825340E+02  0.50474209542E+02  0.00000000000E+00 0. -1.
         21    1    1    2  503  502 -0.10845896705E+02  0.28560406787E+02  0.46273800002E+02  0.55449029548E+02  0.00000000000E+00 0. -1.
          1    1    1    2  501    0 -0.36145780868E+02  0.22188969777E+01  0.16999617414E+02  0.40005349274E+02  0.00000000000E+00 0. -1.
<scales pt_clust_5="13000.00000" pt_clust_6="13000.00000" pt_clust_7="13000.00000" pt_clust_8="13000.00000" pt_clust_9="30.55046" pt_clust_10="13000.00000"></scales>
<clustering>
<clus scale="   30.550">  1  9  2 -1</clus>
<clus scale="   79.831">  5  6 -1 -1</clus>
<clus scale="   89.271">  7  8 -1 -1</clus>
<clus scale="   42.024">  7 10 -1 -1</clus>
<clus scale="   90.063">  2  5  1 -1</clus>
<clus scale="   30.550">  1  5  2 -1</clus>
</clustering>
</event>
<event>
10    4  0.7752703E-005  0.4370789E+03  0.7546771E-02  0.1091202E+00
          2   -1    0    0  503    0 -0.00000000000E+00  0.00000000000E+00  0.93861562563E+03  0.93861562563E+03  0.00000000000E+00 0. -1.
         21   -1    0    0  501  502  0.00000000000E+00 -0.00000000000E+00 -0.19001686204E+03  0.19001686204E+03  0.00000000000E+00 0. -1.
         24    2    1    2    0    0 -0.11611189985E+02 -0.18326602120E+01  0.16969935576E+02  0.84539965219E+02  0.81980782074E+02 0.  0.
         23    2    1    2    0    0  0.77274349547E+02  0.11202856619E+03  0.80186811575E+03  0.81844151760E+03  0.91281531177E+02 0.  0.
        -11    1    3    3    0    0  0.29684998282E+02 -0.21130345227E+02  0.13379116231E+02  0.38816122469E+02  0.00000000000E+00 0.  1.
         12    1    3    3    0    0 -0.41296188267E+02  0.19297685015E+02  0.35908193455E+01  0.45723842750E+02  0.00000000000E+00 0. -1.
        -11    1    4    4    0    0 -0.16269708220E+02  0.30786406353E+02  0.10439154551E+03  0.11004590404E+03  0.00000000000E+00 0.  1.
         11    1    4    4    0    0  0.93544057768E+02  0.81242159832E+02  0.69747657024E+03  0.70839561356E+03  0.00000000000E+00 0. -1.
         21    1    1    2  503  502 -0.10025881485E+03 -0.16743947168E+02 -0.74317196013E+02  0.12591757362E+03  0.00000000000E+00 0. -1.
          1    1    1    2  501    0  0.34595655292E+02 -0.93451958806E+02  0.40779082680E+01  0.99733431233E+02  0.00000000000E+00 0. -1.
<scales pt_clust_5="13000.00000" pt_clust_6="13000.00000" pt_clust_7="13000.00000" pt_clust_8="13000.00000" pt_clust_9="101.98895" pt_clust_10="13000.00000"></scales>
<clustering>
<clus scale="   81.981">  5  6 -1 -1</clus>
<clus scale="   82.819">  1  5  2 -1</clus>
<clus scale="   91.282">  7  8 -1 -1</clus>
<clus scale="   99.517">  7 10 -1 -1</clus>
<clus scale="  101.989">  2  9  1 -1</clus>
<clus scale="  101.989">  2  5  1 -1</clus>
</clustering>
</event>
<event>
10    4  0.7508634E-005  0.5413888E+03  0.7546771E-02  0.1070653E+00
          2   -1    0    0  502    0 -0.00000000000E+00  0.00000000000E+00  0.14008128829E+04  0.14008128829E+04  0.00000000000E+00 0. -1.
         21   -1    0    0  503  502  0.00000000000E+00 -0.00000000000E+00 -0.13540995738E+03  0.13540995738E+03  0.00000000000E+00 0.  1.
         24    2    1    2    0    0  0.20722685958E+02 -0.19209354043E+02  0.10310272192E+03  0.12792905387E+03  0.70265514735E+02 0.  0.
         23    2    1    2    0    0  0.79793395943E+02 -0.15575858575E+03  0.24893930910E+03  0.31788519842E+03  0.91937460744E+02 0.  0.
        -11    1    3    3    0    0  0.36943788225E+02 -0.31500676415E+02  0.44373506882E+02  0.65773430928E+02  0.00000000000E+00 0.  1.
         12    1    3    3    0    0 -0.16221102268E+02  0.12291322372E+02  0.58729215040E+02  0.62155622944E+02  0.00000000000E+00 0. -1.
        -13    1    4    4    0    0  0.32799232711E+02 -0.14598406679E+03  0.18496696167E+03  0.23790736503E+03  0.00000000000E+00 0. -1.
         13    1    4    4    0    0  0.46994163232E+02 -0.97745189560E+01  0.63972347431E+02  0.79977833395E+02  0.00000000000E+00 0.  1.
         21    1    1    2  503  501 -0.16215009144E+03 -0.14666479413E+03  0.16622563908E+03  0.27465283009E+03  0.00000000000E+00 0.  1.
          1    1    1    2  501    0  0.61634009540E+02  0.32163273392E+03  0.74713525538E+03  0.81575575786E+03  0.00000000000E+00 0. -1.
<scales pt_clust_5="13000.00000" pt_clust_6="13000.00000" pt_clust_7="13000.00000" pt_clust_8="13000.00000" pt_clust_9="218.26702" pt_clust_10="13000.00000"></scales>
<clustering>
<clus scale="   70.266">  5  6 -1 -1</clus>
<clus scale="   75.734">  1  5  2 -1</clus>
<clus scale="   91.937">  7  8 -1 -1</clus>
<clus scale="  218.267">  2  9  1 -1</clus>
<clus scale="  238.204">  7 10 -1 -1</clus>
<clus scale="  218.267">  2  5  1 -1</clus>
</clustering>
</event>
<event>
10    4  0.7508634E-005  0.4142206E+03  0.7546771E-02  0.1079076E+00
          2   -1    0    0  503    0 -0.00000000000E+00  0.00000000000E+00  0.85514783923E+03  0.85514783923E+03  0.00000000000E+00 0. -1.
         21   -1    0    0  501  502  0.00000000000E+00 -0.00000000000E+00 -0.13739798646E+03  0.13739798646E+03  0.00000000000E+00 0.  1.
         24    2    1    2    0    0  0.39733765756E+02 -0.96551200347E+02  0.23163723090E+03  0.26673631232E+03  0.81188343646E+02 0.  0.
         23    2    1    2    0    0  0.13316983522E+03  0.13452432185E+03  0.22360520620E+03  0.30693628531E+03  0.91540137732E+02 0.  0.
        -13    1    3    3    0    0 -0.10003112091E+02 -0.25621221657E+02  0.10860216130E+02  0.29571160700E+02  0.00000000000E+00 0.  1.
         14    1    3    3    0    0  0.49736877847E+02 -0.70929978690E+02  0.22077701477E+03  0.23716515162E+03  0.00000000000E+00 0. -1.
        -11    1    4    4    0    0  0.79849558023E+02  0.37094663571E+02  0.14923165402E+03  0.17326872927E+03  0.00000000000E+00 0.  1.
         11    1    4    4    0    0  0.53320277199E+02  0.97429658279E+02  0.74373552187E+02  0.13366755604E+03  0.00000000000E+00 0. -1.
         21    1    1    2  503  502  0.28048986917E+02 -0.33082176329E+01 -0.43068872039E+02  0.51503569873E+02  0.00000000000E+00 0.  1.
          1    1    1    2  501    0 -0.20095258789E+03 -0.34664903870E+02  0.30557628771E+03  0.36736965818E+03  0.00000000000E+00 0. -1.
<scales pt_clust_5="13000.00000" pt_clust_6="13000.00000" pt_clust_7="13000.00000" pt_clust_8="13000.00000" pt_clust_9="28.24341" pt_clust_10="13000.00000"></scales>
<clustering>
<clus scale="   28.243">  2  9  1 -1</clus>
<clus scale="   81.188">  5  6 -1 -1</clus>
<clus scale="   91.540">  7  8 -1 -1</clus>
<clus scale="  134.466">  1  5  2 -1</clus>
<clus scale="  188.731">  7 10 -1 -1</clus>
<clus scale="   28.243">  2  5  1 -1</clus>
</clustering>
</event>
<event>
10    4  0.7508634E-005  0.3091646E+03  0.7546771E-02  0.1088790E+00
          2   -1    0    0  503    0 -0.00000000000E+00  0.00000000000E+00  0.13229105513E+04  0.13229105513E+04  0.00000000000E+00 0. -1.
         21   -1    0    0  501  502  0.00000000000E+00 -0.00000000000E+00 -0.15842033489E+03  0.15842033489E+03  0.00000000000E+00 0. -1.
         24    2    1    2    0    0 -0.93053968364E+02 -0.22315958651E+03  0.99821521652E+03  0.10297826494E+04  0.74561681341E+02 0.  0.
         23    2    1    2    0    0  0.81701678971E+02  0.17320456422E+03  0.25931549824E+03  0.33511884943E+03  0.91570356578E+02 0.  0.
        -11    1    3    3    0    0 -0.50026514006E+02 -0.70403482371E+02  0.23818361961E+03  0.25335891356E+03  0.00000000000E+00 0.  1.
         12    1    3    3    0    0 -0.43027454358E+02 -0.15275610414E+03  0.76003159692E+03  0.77642373579E+03  0.00000000000E+00 0. -1.
        -11    1    4    4    0    0  0.63984549439E+01  0.32288456205E+02  0.29599180646E+01  0.33049141361E+02  0.00000000000E+00 0. -1.
         11    1    4    4    0    0  0.75303224027E+02  0.14091610801E+03  0.25635558017E+03  0.30206970807E+03  0.00000000000E+00 0.  1.
         21    1    1    2  503  502 -0.14268199489E+02  0.28953607773E+02 -0.66721325331E+02  0.74119013577E+02  0.00000000000E+00 0. -1.
          1    1    1    2  501    0  0.25620488882E+02  0.21001414524E+02 -0.26319173046E+02  0.42310373815E+02  0.00000000000E+00 0. -1.
<scales pt_clust_5="13000.00000" pt_clust_6="13000.00000" pt_clust_7="13000.00000" pt_clust_8="13000.00000" pt_clust_9="32.27837" pt_clust_10="13000.00000"></scales>
<clustering>
<clus scale="   32.278">  2  9  1 -1</clus>
<clus scale="   74.562">  5  6 -1 -1</clus>
<clus scale="   91.570">  7  8 -1 -1</clus>
<clus scale="   38.013">  7 10 -1 -1</clus>
<clus scale="  249.421">  1  5  2 -1</clus>
<clus scale="   32.278">  2  5  1 -1</clus>
</clustering>
</event>
<event>
10    4  0.7508634E-005  0.5022979E+03  0.7546771E-02  0.1054978E+00
         21   -1    0    0  501  502  0.00000000000E+00  0.00000000000E+00  0.20871549621E+03  0.20871549621E+03  0.00000000000E+00 0.  1.
          2   -1    0    0  503    0 -0.00000000000E+00 -0.00000000000E+00 -0.17639827361E+04  0.17639827361E+04  0.00000000000E+00 0. -1.
         24    2    1    2    0    0  0.44110167473E+02  0.10614370925E+03 -0.28515646588E+03  0.31732364256E+03  0.78535916695E+02 0.  0.
         23    2    1    2    0    0 -0.14347355700E+03  0.82848835230E+02 -0.23274591845E+03  0.30011458097E+03  0.91921205934E+02 0.  0.
        -13    1    3    3    0    0  0.50490731938E+02  0.33786256190E+02 -0.85675591291E+02  0.10502919624E+03  0.00000000000E+00 0.  1.
         14    1    3    3    0    0 -0.63805644648E+01  0.72357453059E+02 -0.19948087459E+03  0.21229444633E+03  0.00000000000E+00 0. -1.
        -11    1    4    4    0    0 -0.52724587876E+02  0.27600725430E+02 -0.20820569927E+02  0.63049015401E+02  0.00000000000E+00 0. -1.
         11    1    4    4    0    0 -0.90748969123E+02  0.55248109800E+02 -0.21192534852E+03  0.23706556557E+03  0.00000000000E+00 0.  1.
         21    1    1    2  503  502  0.26960741722E+02  0.24995813119E+02  0.14598335188E+03  0.15054172609E+03  0.00000000000E+00 0.  1.
          1    1    1    2  501    0  0.72402647803E+02 -0.21398835760E+03 -0.11833482074E+04  0.12047182826E+04  0.00000000000E+00 0. -1.
<scales pt_clust_5="13000.00000" pt_clust_6="13000.00000" pt_clust_7="13000.00000" pt_clust_8="13000.00000" pt_clust_9="36.76510" pt_clust_10="13000.00000"></scales>
<clustering>
<clus scale="   36.765">  1  9  2 -1</clus>
<clus scale="   78.536">  5  6 -1 -1</clus>
<clus scale="   91.921">  7  8 -1 -1</clus>
<clus scale="  146.698">  2  5  1 -1</clus>
<clus scale="  167.169">  7 10 -1 -1</clus>
<clus scale="   36.765">  1  5  2 -1</clus>
</clustering>
</event>
<event>
10    4  0.7508634E-005  0.1355718E+03  0.7546771E-02  0.1242592E+00
          2   -1    0    0  502    0 -0.00000000000E+00  0.00000000000E+00  0.36546819420E+03  0.36546819420E+03  0.00000000000E+00 0. -1.
         21   -1    0    0  503  502  0.00000000000E+00 -0.00000000000E+00 -0.95830045417E+02  0.95830045417E+02  0.00000000000E+00 0.  1.
         24    2    1    2    0    0  0.13748303144E+02  0.33552211653E+01  0.35889101345E+02  0.88458474845E+02  0.79602768973E+02 0.  0.
         23    2    1    2    0    0 -0.50352490356E+02 -0.36287564358E+02  0.22810257826E+03  0.25339942679E+03  0.91259644298E+02 0.  0.
        -11    1    3    3    0    0  0.15461830903E+02 -0.34375501388E+02  0.33805290409E+02  0.50631422755E+02  0.00000000000E+00 0.  1.
         12    1    3    3    0    0 -0.17135277589E+01  0.37730722554E+02  0.20838109353E+01  0.37827052090E+02  0.00000000000E+00 0. -1.
        -13    1    4    4    0    0 -0.59907104114E+01 -0.57557771596E+02  0.15339610860E+03  0.16394862553E+03  0.00000000000E+00 0. -1.
         13    1    4    4    0    0 -0.44361779945E+02  0.21270207239E+02  0.74706469663E+02  0.89450801256E+02  0.00000000000E+00 0.  1.
         21    1    1    2  503  501  0.15727410861E+02  0.15745769404E+02 -0.51563744646E+02  0.56161378797E+02  0.00000000000E+00 0.  1.
          1    1    1    2  501    0  0.20876776352E+02  0.17186573789E+02  0.57210213825E+02  0.63278959183E+02  0.00000000000E+00 0. -1.
<scales pt_clust_5="13000.00000" pt_clust_6="13000.00000" pt_clust_7="13000.00000" pt_clust_8="13000.00000" pt_clust_9="22.25490" pt_clust_10="13000.00000"></scales>
<clustering>
<clus scale="   22.255">  2  9  1 -1</clus>
<clus scale="   79.603">  5  6 -1 -1</clus>
<clus scale="   84.073">  1  5  2 -1</clus>
<clus scale="   91.260">  7  8 -1 -1</clus>
<clus scale="   34.808">  7 10 -1 -1</clus>
<clus scale="   22.255">  2  5  1 -1</clus>
</clustering>
</event>
<event>
10    4  0.7508634E-005  0.2948338E+03  0.7546771E-02  0.1137631E+00
         21   -1    0    0  501  502  0.00000000000E+00  0.00000000000E+00  0.17200483238E+03  0.17200483238E+03  0.00000000000E+00 0. -1.
          2   -1    0    0  503    0 -0.00000000000E+00 -0.00000000000E+00 -0.33825447188E+03  0.33825447188E+03  0.00000000000E+00 0. -1.
         24    2    1    2    0    0  0.11143433237E+02  0.21101513922E+02 -0.10986904226E+03  0.13752949147E+03  0.79206720554E+02 0.  0.
         23    2    1    2    0    0 -0.76261627588E+02 -0.11574462427E+03 -0.79937920269E+02  0.18341054664E+03  0.89647663836E+02 0.  0.
        -13    1    3    3    0    0 -0.48182922471E+01 -0.22624172512E+02 -0.77383064043E+02  0.80766377427E+02  0.00000000000E+00 0.  1.
         14    1    3    3    0    0  0.15961725484E+02  0.43725686433E+02 -0.32485978220E+02  0.56763114039E+02  0.00000000000E+00 0. -1.
        -11    1    4    4    0    0 -0.48964864128E+02 -0.64762978262E+02 -0.93684126534E+02  0.12396982228E+03  0.00000000000E+00 0.  1.
         11    1    4    4    0    0 -0.27296763460E+02 -0.50981646009E+02  0.13746206265E+02  0.59440724355E+02  0.00000000000E+00 0. -1.
         21    1    1    2  503  502 -0.47100390831E+02  0.43611709422E+02  0.23660157649E+01  0.64234150152E+02  0.00000000000E+00 0. -1.
          1    1    1    2  501    0  0.11221858518E+03  0.51031400928E+02  0.21191307273E+02  0.12508511600E+03  0.00000000000E+00 0. -1.
<scales pt_clust_5="13000.00000" pt_clust_6="13000.00000" pt_clust_7="13000.00000" pt_clust_8="13000.00000" pt_clust_9="64.19056" pt_clust_10="13000.00000"></scales>
<clustering>
<clus scale="   64.191">  1  9  2 -1</clus>
<clus scale="   79.207">  5  6 -1 -1</clus>
<clus scale="   83.444">  2  5  1 -1</clus>
<clus scale="   89.648">  7  8 -1 -1</clus>
<clus scale="  121.470">  7 10 -1 -1</clus>
<clus scale="   64.191">  1  5  2 -1</clus>
</clustering>
</event>
<event>
10    4  0.7508634E-005  0.2644883E+03  0.7546771E-02  0.1139036E+00
         21   -1    0    0  503  502  0.00000000000E+00  0.00000000000E+00  0.96996619599E+02  0.96996619599E+02  0.00000000000E+00 0.  1.
          2   -1    0    0  502    0 -0.00000000000E+00 -0.00000000000E+00 -0.50290123247E+03  0.50290123247E+03  0.00000000000E+00 0. -1.
         24    2    1    2    0    0  0.24424545818E+01  0.72859763877E+02 -0.17885944140E+03  0.20883135815E+03  0.79406080310E+02 0.  0.
         23    2    1    2    0    0  0.35888769367E+02 -0.10081545701E+03 -0.61396554131E+01  0.14129155757E+03  0.92053510158E+02 0.  0.
        -11    1    3    3    0    0 -0.29130058781E+02  0.31095321628E+02 -0.33100684635E+02  0.53954931888E+02  0.00000000000E+00 0.  1.
         12    1    3    3    0    0  0.31572513362E+02  0.41764442248E+02 -0.14575875677E+03  0.15487642626E+03  0.00000000000E+00 0. -1.
        -11    1    4    4    0    0  0.44415424617E+02 -0.15234438284E+02  0.20528884282E+02  0.51246981799E+02  0.00000000000E+00 0.  1.
         11    1    4    4    0    0 -0.85266552491E+01 -0.85581018723E+02 -0.26668539695E+02  0.90044575766E+02  0.00000000000E+00 0. -1.
         21    1    1    2  503  501  0.27287185190E+02  0.31953683648E+02 -0.43045151262E+02  0.60154080671E+02  0.00000000000E+00 0.  1.
          1    1    1    2  501    0 -0.65618409139E+02 -0.39979905173E+01 -0.17786036479E+03  0.18962085568E+03  0.00000000000E+00 0. -1.
<scales pt_clust_5="13000.00000" pt_clust_6="13000.00000" pt_clust_7="13000.00000" pt_clust_8="13000.00000" pt_clust_9="42.01940" pt_clust_10="13000.00000"></scales>
<clustering>
<clus scale="   42.019">  1  9  2 -1</clus>
<clus scale="   79.406">  5  6 -1 -1</clus>
<clus scale="   92.054">  7  8 -1 -1</clus>
<clus scale="   63.832">  7 10 -1 -1</clus>
<clus scale="  111.723">  2  5  1 -1</clus>
<clus scale="   42.019">  1  5  2 -1</clus>
</clustering>
</event>
<event>
10    4  0.7508634E-005  0.3567724E+03  0.7546771E-02  0.1090530E+00
         -1   -1    0    0    0  501 -0.00000000000E+00  0.00000000000E+00  0.49643989484E+03  0.49643989484E+03  0.00000000000E+00 0.  1.
         21   -1    0    0  503  502  0.00000000000E+00 -0.00000000000E+00 -0.16430705749E+03  0.16430705749E+03  0.00000000000E+00 0.  1.
         24    2    1    2    0    0  0.23726442485E+01  0.12599244752E+03  0.14957243799E+03  0.21151095949E+03  0.80531021996E+02 0.  0.
         23    2    1    2    0    0 -0.60066896560E+02  0.16790299004E+02  0.20556595666E+03  0.23329973190E+03  0.91002506371E+02 0.  0.
        -11    1    3    3    0    0 -0.36330484706E+02  0.86622146339E+02  0.86553148259E+02  0.12772919725E+03  0.00000000000E+00 0.  1.
         12    1    3    3    0    0  0.38703128954E+02  0.39370301179E+02  0.63019289734E+02  0.83781762242E+02  0.00000000000E+00 0. -1.
        -13    1    4    4    0    0 -0.74982434129E+01  0.48369177960E+02  0.94839428899E+02  0.10672543420E+03  0.00000000000E+00 0.  1.
         13    1    4    4    0    0 -0.52568653147E+02 -0.31578878956E+02  0.11072652776E+03  0.12657429771E+03  0.00000000000E+00 0. -1.
         21    1    1    2  503  501  0.27324672430E+02  0.28989125930E+02  0.10400384389E+01  0.39850832181E+02  0.00000000000E+00 0.  1.
         -2    1    1    2    0  502  0.30369579882E+02 -0.17177187245E+03 -0.24045595746E+02  0.17608542876E+03  0.00000000000E+00 0.  1.
<scales pt_clust_5="13000.00000" pt_clust_6="13000.00000" pt_clust_7="13000.00000" pt_clust_8="13000.00000" pt_clust_9="39.83726" pt_clust_10="13000.00000"></scales>
<clustering>
<clus scale="   39.837">  2  9  1 -1</clus>
<clus scale="   80.531">  5  6 -1 -1</clus>
<clus scale="   91.003">  7  8 -1 -1</clus>
<clus scale="  155.005">  1  5  2 -1</clus>
<clus scale="  128.878">  7 10 -1 -1</clus>
<clus scale="   39.837">  2  5  1 -1</clus>
</clustering>
</event>
<event>
10    4  0.7508634E-005  0.8500594E+03  0.7546771E-02  0.1013523E+00
         -3   -1    0    0    0  501 -0.00000000000E+00  0.00000000000E+00  0.53252522138E+03  0.53252522138E+03  0.00000000000E+00 0.  1.
         21   -1    0    0  503  502  0.00000000000E+00 -0.00000000000E+00 -0.83669723372E+03  0.83669723372E+03  0.00000000000E+00 0.  1.
         24    2    1    2    0    0  0.22142050830E+02  0.62384310065E+02 -0.13359599945E+03  0.16841798578E+03  0.78324034050E+02 0.  0.
         23    2    1    2    0    0 -0.23091874017E+03 -0.10340053345E+03  0.42035612776E+03  0.50050238385E+03  0.98935469974E+02 0.  0.
        -11    1    3    3    0    0  0.16840060857E+02  0.74141337832E+02 -0.13550779624E+03  0.15537982002E+03  0.00000000000E+00 0.  1.
         12    1    3    3    0    0  0.53019899729E+01 -0.11757027767E+02  0.19117967969E+01  0.13038165768E+02  0.00000000000E+00 0. -1.
        -11    1    4    4    0    0 -0.20665653818E+03 -0.12298450392E+03  0.37304850655E+03  0.44384378019E+03  0.00000000000E+00 0.  1.
         11    1    4    4    0    0 -0.24262201985E+02  0.19583970462E+02  0.47307621209E+02  0.56658603660E+02  0.00000000000E+00 0. -1.
         21    1    1    2  503  501  0.12348422035E+02  0.14688351519E+03 -0.29389123419E+03  0.32878459224E+03  0.00000000000E+00 0.  1.
         -4    1    1    2    0  502  0.19642826730E+03 -0.10586729180E+03 -0.29704090646E+03  0.37151749324E+03  0.00000000000E+00 0.  1.
<scales pt_clust_5="13000.00000" pt_clust_6="13000.00000" pt_clust_7="13000.00000" pt_clust_8="13000.00000" pt_clust_9="149.57108" pt_clust_10="13000.00000"></scales>
<clustering>
<clus scale="   78.324">  5  6 -1 -1</clus>
<clus scale="   98.935">  7  8 -1 -1</clus>
<clus scale="  102.551">  1  5  2 -1</clus>
<clus scale="  149.571">  2  9  1 -1</clus>
<clus scale="  206.852">  7 10 -1 -1</clus>
<clus scale="  149.571">  2  5  1 -1</clus>
</clustering>
</event>
<event>
10    4  0.7508634E-005  0.1960792E+03  0.7546771E-02  0.1166657E+00
         21   -1    0    0  501  502  0.00000000000E+00  0.00000000000E+00  0.53999876001E+02  0.53999876001E+02  0.00000000000E+00 0. -1.
          2   -1    0    0  503    0 -0.00000000000E+00 -0.00000000000E+00 -0.19997202147E+04  0.19997202147E+04  0.00000000000E+00 0. -1.
         24    2    1    2    0    0 -0.71289883026E+02  0.89737364457E+02 -0.16620303113E+04  0.16679919522E+04  0.81959472962E+02 0.  0.
         23    2    1    2    0    0  0.18470257778E+02 -0.85689989415E+02 -0.17088372979E+03  0.21166954217E+03  0.88987759088E+02 0.  0.
        -11    1    3    3    0    0 -0.21322301097E+02  0.48836073699E+02 -0.31979857894E+03  0.32420785572E+03  0.00000000000E+00 0.  1.
         12    1    3    3    0    0 -0.49967581929E+02  0.40901290758E+02 -0.13422317323E+04  0.13437840965E+04  0.00000000000E+00 0. -1.
        -13    1    4    4    0    0 -0.26821322595E+01 -0.33710442299E+02 -0.14672520762E+03  0.15057182441E+03  0.00000000000E+00 0.  1.
         13    1    4    4    0    0  0.21152390037E+02 -0.51979547116E+02 -0.24158522169E+02  0.61097717765E+02  0.00000000000E+00 0. -1.
         21    1    1    2  503  502 -0.32643091846E+02  0.24537806981E+02 -0.48212486864E+02  0.63183220132E+02  0.00000000000E+00 0. -1.
          1    1    1    2  501    0  0.85462717094E+02 -0.28585182023E+02 -0.64593810775E+02  0.11087537614E+03  0.00000000000E+00 0. -1.
<scales pt_clust_5="13000.00000" pt_clust_6="13000.00000" pt_clust_7="13000.00000" pt_clust_8="13000.00000" pt_clust_9="40.83718" pt_clust_10="13000.00000"></scales>
<clustering>
<clus scale="   40.837">  1  9  2 -1</clus>
<clus scale="   81.959">  5  6 -1 -1</clus>
<clus scale="   88.988">  7  8 -1 -1</clus>
<clus scale="   71.134">  7 10 -1 -1</clus>
<clus scale="  142.968">  2  5  1 -1</clus>
<clus scale="   40.837">  1  5  2 -1</clus>
</clustering>
</event>
<event>
10    4  0.7508634E-005  0.3718138E+03  0.7546771E-02  0.1068184E+00
         21   -1    0    0  501  502  0.00000000000E+00  0.00000000000E+00  0.13749278684E+04  0.13749278684E+04  0.00000000000E+00 0.  1.
         -1   -1    0    0    0  501 -0.00000000000E+00 -0.00000000000E+00 -0.34262994944E+03  0.34262994944E+03  0.00000000000E+00 0.  1.
         24    2    1    2    0    0  0.13602957122E+03 -0.27115623637E+03  0.22664363351E+02  0.31764164054E+03  0.91393597529E+02 0.  0.
         23    2    1    2    0    0  0.47262778016E+02 -0.22606029157E+02 -0.49063874383E+02  0.11685612781E+03  0.92213275064E+02 0.  0.
        -13    1    3    3    0    0  0.14025767241E+03 -0.19734524152E+03  0.26830516061E+02  0.24359235540E+03  0.00000000000E+00 0.  1.
         14    1    3    3    0    0 -0.42281011840E+01 -0.73810994858E+02 -0.41661527096E+01  0.74049285141E+02  0.00000000000E+00 0. -1.
        -11    1    4    4    0    0  0.27322675297E+02 -0.15362498304E+02  0.24822938570E+02  0.39983912000E+02  0.00000000000E+00 0. -1.
         11    1    4    4    0    0  0.19940102718E+02 -0.72435308525E+01 -0.73886812953E+02  0.76872215813E+02  0.00000000000E+00 0.  1.
         21    1    1    2  503  502 -0.20255402423E+02  0.14082775449E+03  0.10497431728E+04  0.10593410530E+04  0.00000000000E+00 0.  1.
         -2    1    1    2    0  503 -0.16303694682E+03  0.15293451104E+03  0.89542572760E+01  0.22371899655E+03  0.00000000000E+00 0.  1.
<scales pt_clust_5="13000.00000" pt_clust_6="13000.00000" pt_clust_7="13000.00000" pt_clust_8="13000.00000" pt_clust_9="142.27698" pt_clust_10="13000.00000"></scales>
<clustering>
<clus scale="   91.394">  5  6 -1 -1</clus>
<clus scale="   92.213">  7  8 -1 -1</clus>
<clus scale="  142.277">  1  9  2 -1</clus>
<clus scale="  250.210">  2  5  1 -1</clus>
<clus scale="  117.301">  7 10 -1 -1</clus>
<clus scale="  142.277">  1  5  2 -1</clus>
</clustering>
</event>
<event>
10    4  0.7508634E-005  0.3341007E+03  0.7546771E-02  0.1108058E+00
          2   -1    0    0  503    0 -0.00000000000E+00  0.00000000000E+00  0.20978725657E+04  0.20978725657E+04  0.00000000000E+00 0. -1.
         21   -1    0    0  501  502  0.00000000000E+00 -0.00000000000E+00 -0.66195106357E+02  0.66195106357E+02  0.00000000000E+00 0. -1.
         24    2    1    2    0    0  0.86572955461E+02  0.14259842862E+02  0.32344297718E+03  0.34488241686E+03  0.81426667836E+02 0.  0.
         23    2    1    2    0    0 -0.13081596636E+03  0.13126845568E+02  0.56267564367E+03  0.58536895935E+03  0.93636571173E+02 0.  0.
        -13    1    3    3    0    0  0.91440831832E+02  0.22939682299E+02  0.32110725572E+03  0.33466031200E+03  0.00000000000E+00 0.  1.
         14    1    3    3    0    0 -0.48678763706E+01 -0.86798394372E+01  0.23357214582E+01  0.10222104859E+02  0.00000000000E+00 0. -1.
        -11    1    4    4    0    0 -0.27545515885E+02 -0.37376685896E+02  0.16615351979E+03  0.17251888080E+03  0.00000000000E+00 0.  1.
         11    1    4    4    0    0 -0.10327045047E+03  0.50503531465E+02  0.39652212389E+03  0.41285007855E+03  0.00000000000E+00 0. -1.
         21    1    1    2  503  502 -0.70159506835E+02 -0.10666204763E+03  0.63035826721E+02  0.14238210651E+03  0.00000000000E+00 0. -1.
          1    1    1    2  501    0  0.11440251773E+03  0.79275359201E+02  0.10825230118E+04  0.10914341893E+04  0.00000000000E+00 0. -1.
<scales pt_clust_5="13000.00000" pt_clust_6="13000.00000" pt_clust_7="13000.00000" pt_clust_8="13000.00000" pt_clust_9="124.26055" pt_clust_10="13000.00000"></scales>
<clustering>
<clus scale="   81.427">  5  6 -1 -1</clus>
<clus scale="   93.637">  7  8 -1 -1</clus>
<clus scale="  119.702">  1  5  2 -1</clus>
<clus scale="  124.261">  2  9  1 -1</clus>
<clus scale="  139.629">  7 10 -1 -1</clus>
<clus scale="  124.261">  2  5  1 -1</clus>
</clustering>
</event>
<event>
10    4  0.7508634E-005  0.2062723E+03  0.7546771E-02  0.1179992E+00
         -3   -1    0    0    0  501 -0.00000000000E+00  0.00000000000E+00  0.77802660523E+02  0.77802660523E+02  0.00000000000E+00 0.  1.
         21   -1    0    0  501  502  0.00000000000E+00 -0.00000000000E+00 -0.36279176065E+03  0.36279176065E+03  0.00000000000E+00 0.  1.
         24    2    1    2    0    0  0.24676897710E+02 -0.25923605138E+02 -0.79766713825E+02  0.11869973767E+03  0.80286465259E+02 0.  0.
         23    2    1    2    0    0 -0.69772689105E+02 -0.31718813291E+02 -0.27382388185E+02  0.12326855209E+03  0.92579854668E+02 0.  0.
        -11    1    3    3    0    0  0.54206434721E+02 -0.19182632478E+02 -0.55075394809E+02  0.79621668328E+02  0.00000000000E+00 0.  1.
         12    1    3    3    0    0 -0.29529537011E+02 -0.67409726603E+01 -0.24691319016E+02  0.39078069339E+02  0.00000000000E+00 0. -1.
        -13    1    4    4    0    0  0.24621188497E+01  0.20707283998E+02  0.13764352324E+02  0.24986216895E+02  0.00000000000E+00 0. -1.
         13    1    4    4    0    0 -0.72234807955E+02 -0.52426097289E+02 -0.41146740508E+02  0.98282335197E+02  0.00000000000E+00 0.  1.
         21    1    1    2  503  502  0.24037571836E+02 -0.17145149078E+01 -0.66141453115E+02  0.70394859481E+02  0.00000000000E+00 0.  1.
         -4    1    1    2    0  503  0.21058219559E+02  0.59356933338E+02 -0.11169854501E+03  0.12823127194E+03  0.00000000000E+00 0.  1.
<scales pt_clust_5="13000.00000" pt_clust_6="13000.00000" pt_clust_7="13000.00000" pt_clust_8="13000.00000" pt_clust_9="24.09864" pt_clust_10="13000.00000"></scales>
<clustering>
<clus scale="   24.099">  2  9  1 -1</clus>
<clus scale="   80.286">  5  6 -1 -1</clus>
<clus scale="   90.678">  1  5  2 -1</clus>
<clus scale="   92.580">  7  8 -1 -1</clus>
<clus scale="   65.221">  7 10 -1 -1</clus>
<clus scale="   24.099">  2  5  1 -1</clus>
</clustering>
</event>
<event>
10    4  0.7508634E-005  0.1767148E+03  0.7546771E-02  0.1197877E+00
         21   -1    0    0  501  502  0.00000000000E+00  0.00000000000E+00  0.21268414811E+03  0.21268414811E+03  0.00000000000E+00 0.  1.
          2   -1    0    0  503    0 -0.00000000000E+00 -0.00000000000E+00 -0.33218096468E+03  0.33218096468E+03  0.00000000000E+00 0. -1.
         24    2    1    2    0    0  0.88539083565E+02  0.72967735706E+02 -0.38035192143E+02  0.14610710042E+03  0.82080138757E+02 0.  0.
         23    2    1    2    0    0 -0.29945321574E+02 -0.16016571434E+02 -0.15961463513E+03  0.18620520446E+03  0.89678835718E+02 0.  0.
        -13    1    3    3    0    0  0.51455216563E+02 -0.70501530878E+01 -0.22299508122E+02  0.56520899078E+02  0.00000000000E+00 0.  1.
         14    1    3    3    0    0  0.37083867002E+02  0.80017888794E+02 -0.15735684021E+02  0.89586201339E+02  0.00000000000E+00 0. -1.
        -11    1    4    4    0    0  0.19010922954E+02  0.18772213242E+02 -0.17546048322E+02  0.31963651126E+02  0.00000000000E+00 0. -1.
         11    1    4    4    0    0 -0.48956244528E+02 -0.34788784676E+02 -0.14206858680E+03  0.15424155333E+03  0.00000000000E+00 0.  1.
         21    1    1    2  503  502 -0.11445175577E+03 -0.41796473365E+02  0.92435345180E+02  0.15293934296E+03  0.00000000000E+00 0.  1.
          1    1    1    2  501    0  0.55857993783E+02 -0.15154690907E+02 -0.14282334478E+02  0.59613464956E+02  0.00000000000E+00 0. -1.
<scales pt_clust_5="13000.00000" pt_clust_6="13000.00000" pt_clust_7="13000.00000" pt_clust_8="13000.00000" pt_clust_9="121.84478" pt_clust_10="13000.00000"></scales>
<clustering>
<clus scale="   82.080">  5  6 -1 -1</clus>
<clus scale="   89.679">  7  8 -1 -1</clus>
<clus scale="   57.877">  7 10 -1 -1</clus>
<clus scale="  121.845">  1  9  2 -1</clus>
<clus scale="   97.066">  2  5  1 -1</clus>
<clus scale="  121.845">  1  5  2 -1</clus>
</clustering>
</event>
<event>
10    4  0.7508634E-005  0.1889320E+03  0.7546771E-02  0.1193375E+00
         21   -1    0    0  501  502  0.00000000000E+00  0.00000000000E+00  0.12136117473E+03  0.12136117473E+03  0.00000000000E+00 0. -1.
          2   -1    0    0  503    0 -0.00000000000E+00 -0.00000000000E+00 -0.46433127864E+03  0.46433127864E+03  0.00000000000E+00 0. -1.
         24    2    1    2    0    0  0.45744193410E+01  0.58556454359E+01  0.36029065903E+02  0.92598929229E+02  0.84977963077E+02 0.  0.
         23    2    1    2    0    0 -0.82417776675E+01 -0.80742883175E+02 -0.21705174251E+03  0.24996143374E+03  0.93711895427E+02 0.  0.
        -11    1    3    3    0    0 -0.30534331418E+02 -0.10477800685E+01 -0.11899064391E+02  0.32787664931E+02  0.00000000000E+00 0.  1.
         12    1    3    3    0    0  0.35108750759E+02  0.69034255044E+01  0.47928130293E+02  0.59811264298E+02  0.00000000000E+00 0. -1.
        -13    1    4    4    0    0 -0.38082693420E+02 -0.39069690589E+02 -0.17609090668E+03  0.18434950414E+03  0.00000000000E+00 0.  1.
         13    1    4    4    0    0  0.29840915752E+02 -0.41673192585E+02 -0.40960835832E+02  0.65611929596E+02  0.00000000000E+00 0. -1.
         21    1    1    2  503  502 -0.15272311227E+02  0.19143128236E+02  0.32086004091E+02  0.40363529422E+02  0.00000000000E+00 0. -1.
          1    1    1    2  501    0  0.18939669554E+02  0.55744109503E+02 -0.19403343139E+03  0.20276856098E+03  0.00000000000E+00 0. -1.
<scales pt_clust_5="13000.00000" pt_clust_6="13000.00000" pt_clust_7="13000.00000" pt_clust_8="13000.00000" pt_clust_9="24.48883" pt_clust_10="13000.00000"></scales>
<clustering>
<clus scale="   24.489">  1  9  2 -1</clus>
<clus scale="   84.978">  5  6 -1 -1</clus>
<clus scale="   87.650">  2  5  1 -1</clus>
<clus scale="   93.712">  7  8 -1 -1</clus>
<clus scale="   67.984">  7 10 -1 -1</clus>
<clus scale="   24.489">  1  5  2 -1</clus>
</clustering>
</event>
<event>
10    4  0.7508634E-005  0.4328924E+03  0.7546771E-02  0.1088438E+00
         -3   -1    0    0    0  501 -0.00000000000E+00  0.00000000000E+00  0.84931856987E+03  0.84931856987E+03  0.00000000000E+00 0.  1.
         21   -1    0    0  501  502  0.00000000000E+00 -0.00000000000E+00 -0.90304795542E+02  0.90304795542E+02  0.00000000000E+00 0. -1.
         24    2    1    2    0    0 -0.32370892312E+02 -0.27578619938E+02  0.11181018196E+03  0.14460475124E+03  0.81243844966E+02 0.  0.
         23    2    1    2    0    0 -0.10539807824E+03 -0.15579551726E+03  0.31640314568E+03  0.37922909997E+03  0.91229170628E+02 0.  0.
        -13    1    3    3    0    0 -0.40796522756E+02 -0.36500035356E+02  0.11856877322E+03  0.13059541659E+03  0.00000000000E+00 0.  1.
         14    1    3    3    0    0  0.84256304441E+01  0.89214154182E+01 -0.67585912670E+01  0.14009334651E+02  0.00000000000E+00 0. -1.
        -11    1    4    4    0    0 -0.64339829801E+02 -0.28577686958E+02  0.72267316745E+02  0.10089035118E+03  0.00000000000E+00 0.  1.
         11    1    4    4    0    0 -0.41058248442E+02 -0.12721783030E+03  0.24413582894E+03  0.27833874880E+03  0.00000000000E+00 0. -1.
         21    1    1    2  503  502 -0.14364575604E+02  0.18689467164E+02  0.13164964847E+02  0.26999139145E+02  0.00000000000E+00 0.  1.
         -4    1    1    2    0  503  0.15213354616E+03  0.16468467003E+03  0.31763548184E+03  0.38879037506E+03  0.00000000000E+00 0.  1.
<scales pt_clust_5="13000.00000" pt_clust_6="13000.00000" pt_clust_7="13000.00000" pt_clust_8="13000.00000" pt_clust_9="23.57196" pt_clust_10="13000.00000"></scales>
<clustering>
<clus scale="   23.572">  2  9  1 -1</clus>
<clus scale="   81.244">  5  6 -1 -1</clus>
<clus scale="   91.229">  7  8 -1 -1</clus>
<clus scale="   91.710">  1  5  2 -1</clus>
<clus scale="  205.217">  7 10 -1 -1</clus>
<clus scale="   23.572">  2  5  1 -1</clus>
</clustering>
</event>
<event>
10    4  0.7508634E-005  0.4507764E+03  0.7546771E-02  0.1066725E+00
         -1   -1    0    0    0  501 -0.00000000000E+00  0.00000000000E+00  0.57988451011E+03  0.57988451011E+03  0.00000000000E+00 0.  1.
         21   -1    0    0  501  502  0.00000000000E+00 -0.00000000000E+00 -0.21112616610E+03  0.21112616610E+03  0.00000000000E+00 0.  1.
         24    2    1    2    0    0 -0.10296316550E+03 -0.71213961202E+02  0.11741520025E+03  0.19061823713E+03  0.82922502112E+02 0.  0.
         23    2    1    2    0    0 -0.10707138397E+03 -0.89334039448E+02  0.22408330088E+03  0.27990483268E+03  0.93212326220E+02 0.  0.
        -13    1    3    3    0    0 -0.37434840640E+02 -0.27467051489E+02 -0.32096806020E+01  0.46541468185E+02  0.00000000000E+00 0.  1.
         14    1    3    3    0    0 -0.65528324855E+02 -0.43746909713E+02  0.12062488086E+03  0.14407676894E+03  0.00000000000E+00 0. -1.
        -13    1    4    4    0    0 -0.31646809633E+02 -0.57912079627E+02  0.16882522626E+03  0.18126578979E+03  0.00000000000E+00 0.  1.
         13    1    4    4    0    0 -0.75424574333E+02 -0.31421959820E+02  0.55258074614E+02  0.98639042890E+02  0.00000000000E+00 0. -1.
         21    1    1    2  503  502  0.39018074396E+02 -0.17861713095E+02 -0.45815307962E+02  0.62773349185E+02  0.00000000000E+00 0. -1.
         -2    1    1    2    0  503  0.17101647507E+03  0.17840971374E+03  0.73075150841E+02  0.25771425722E+03  0.00000000000E+00 0.  1.
<scales pt_clust_5="13000.00000" pt_clust_6="13000.00000" pt_clust_7="13000.00000" pt_clust_8="13000.00000" pt_clust_9="42.91213" pt_clust_10="13000.00000"></scales>
<clustering>
<clus scale="   42.912">  2  9  1 -1</clus>
<clus scale="   82.923">  5  6 -1 -1</clus>
<clus scale="   93.212">  7  8 -1 -1</clus>
<clus scale="  146.177">  1  5  2 -1</clus>
<clus scale="  205.551">  7 10 -1 -1</clus>
<clus scale="   42.912">  2  5  1 -1</clus>
</clustering>
</event>
<event>
10    4  0.7508634E-005  0.7656370E+03  0.7546771E-02  0.9974218E-01
         21   -1    0    0  501  502  0.00000000000E+00  0.00000000000E+00  0.10256571817E+04  0.10256571817E+04  0.00000000000E+00 0. -1.
         -1   -1    0    0    0  501 -0.00000000000E+00 -0.00000000000E+00 -0.26773356136E+03  0.26773356136E+03  0.00000000000E+00 0.  1.
         24    2    1    2    0    0  0.19552833671E+03 -0.85535274011E+02  0.25881058272E+03  0.34448606357E+03  0.78358896815E+02 0.  0.
         23    2    1    2    0    0 -0.33931637019E+03 -0.12667144753E+03  0.52376375931E+03  0.64334963102E+03  0.91591579683E+02 0.  0.
        -13    1    3    3    0    0  0.18206793372E+03 -0.95454703452E+02  0.21439698437E+03  0.29702929116E+03  0.00000000000E+00 0.  1.
         14    1    3    3    0    0  0.13460402988E+02  0.99194294415E+01  0.44413598354E+02  0.47456772412E+02  0.00000000000E+00 0. -1.
        -13    1    4    4    0    0 -0.14618281065E+03 -0.36279097100E+02  0.14721054853E+03  0.21060990626E+03  0.00000000000E+00 0. -1.
         13    1    4    4    0    0 -0.19313355954E+03 -0.90392350434E+02  0.37655321078E+03  0.43273972476E+03  0.00000000000E+00 0.  1.
         21    1    1    2  503  502  0.22659221111E+02  0.14455854445E+02  0.54296748292E+02  0.60585055123E+02  0.00000000000E+00 0.  1.
         -2    1    1    2    0  503  0.12112881237E+03  0.19775086710E+03 -0.78947469980E+02  0.24496999335E+03  0.00000000000E+00 0.  1.
<scales pt_clust_5="13000.00000" pt_clust_6="13000.00000" pt_clust_7="13000.00000" pt_clust_8="13000.00000" pt_clust_9="26.87772" pt_clust_10="13000.00000"></scales>
<clustering>
<clus scale="   26.878">  1  9  2 -1</clus>
<clus scale="   78.359">  5  6 -1 -1</clus>
<clus scale="   91.592">  7  8 -1 -1</clus>
<clus scale="  231.836">  2  5  1 -1</clus>
<clus scale="  307.066">  7 10 -1 -1</clus>
<clus scale="   26.878">  1  5  2 -1</clus>
</clustering>
</event>
<event>
10    4  0.7508634E-005  0.5274382E+03  0.7546771E-02  0.1037419E+00
          2   -1    0    0  502    0 -0.00000000000E+00  0.00000000000E+00  0.17152349192E+04  0.17152349192E+04  0.00000000000E+00 0. -1.
         21   -1    0    0  503  502  0.00000000000E+00 -0.00000000000E+00 -0.47237249439E+03  0.47237249439E+03  0.00000000000E+00 0. -1.
         24    2    1    2    0    0 -0.17256040880E+03 -0.45533900765E+02  0.14132391977E+04  0.14287887270E+04  0.11109350017E+03 0.  0.
         23    2    1    2    0    0 -0.20266456264E+02  0.75504802898E+02 -0.17908887436E+03  0.21593111926E+03  0.91878826916E+02 0.  0.
        -13    1    3    3    0    0 -0.92176698095E+02 -0.44414145050E+02  0.41929414890E+03  0.43159789533E+03  0.00000000000E+00 0.  1.
         14    1    3    3    0    0 -0.80383710701E+02 -0.11197557149E+01  0.99394504875E+03  0.99719083165E+03  0.00000000000E+00 0. -1.
        -11    1    4    4    0    0  0.29036245205E+02  0.48209505913E+02 -0.12816542201E+03  0.13997726742E+03  0.00000000000E+00 0.  1.
         11    1    4    4    0    0 -0.49302701469E+02  0.27295296984E+02 -0.50923452344E+02  0.75953851833E+02  0.00000000000E+00 0. -1.
         21    1    1    2  503  501  0.94768325411E+00  0.44274680684E+02 -0.22627006710E+03  0.23056298211E+03  0.00000000000E+00 0. -1.
          1    1    1    2  501    0  0.19187918181E+03 -0.74245582817E+02  0.23498216862E+03  0.31232458524E+03  0.00000000000E+00 0. -1.
<scales pt_clust_5="13000.00000" pt_clust_6="13000.00000" pt_clust_7="13000.00000" pt_clust_8="13000.00000" pt_clust_9="44.28482" pt_clust_10="13000.00000"></scales>
<clustering>
<clus scale="   44.285">  2  9  1 -1</clus>
<clus scale="   91.879">  7  8 -1 -1</clus>
<clus scale="  111.094">  5  6 -1 -1</clus>
<clus scale="  203.457">  7 10 -1 -1</clus>
<clus scale="  209.893">  1  5  2 -1</clus>
<clus scale="   44.285">  2  5  1 -1</clus>
</clustering>
</event>
<event>
10    4  0.7508634E-005  0.5874601E+03  0.7546771E-02  0.1054875E+00
          2   -1    0    0  503    0 -0.00000000000E+00  0.00000000000E+00  0.56725607419E+03  0.56725607419E+03  0.00000000000E+00 0. -1.
         21   -1    0    0  501  502  0.00000000000E+00 -0.00000000000E+00 -0.57719360313E+03  0.57719360313E+03  0.00000000000E+00 0.  1.
         24    2    1    2    0    0 -0.55491156074E+02 -0.32893157686E+02 -0.74869701999E+02  0.12933337398E+03  0.83429138335E+02 0.  0.
         23    2    1    2    0    0 -0.17188500573E+03  0.59488186576E+02  0.42979584213E+03  0.47526999772E+03  0.89854355944E+02 0.  0.
        -11    1    3    3    0    0 -0.36011031071E+02 -0.17436448408E+01  0.95236543840E+01  0.37289873277E+02  0.00000000000E+00 0.  1.
         12    1    3    3    0    0 -0.19480125003E+02 -0.31149512845E+02 -0.84393356383E+02  0.92043500706E+02  0.00000000000E+00 0. -1.
        -11    1    4    4    0    0 -0.60277459948E+02  0.39627977920E+02  0.80757804749E+02  0.10828467962E+03  0.00000000000E+00 0.  1.
         11    1    4    4    0    0 -0.11160754578E+03  0.19860208656E+02  0.34903803738E+03  0.36698531810E+03  0.00000000000E+00 0. -1.
         21    1    1    2  503  502  0.43590495776E+02  0.79823067434E+02 -0.30634264796E+03  0.31955855703E+03  0.00000000000E+00 0.  1.
          1    1    1    2  501    0  0.18378566603E+03 -0.10641809632E+03 -0.58521021115E+02  0.22028774858E+03  0.00000000000E+00 0. -1.
<scales pt_clust_5="13000.00000" pt_clust_6="13000.00000" pt_clust_7="13000.00000" pt_clust_8="13000.00000" pt_clust_9="90.94973" pt_clust_10="13000.00000"></scales>
<clustering>
<clus scale="   83.429">  5  6 -1 -1</clus>
<clus scale="   89.854">  7  8 -1 -1</clus>
<clus scale="   90.950">  2  9  1 -1</clus>
<clus scale="   91.969">  1  5  2 -1</clus>
<clus scale="  210.436">  7 10 -1 -1</clus>
<clus scale="   90.950">  2  5  1 -1</clus>
</clustering>
</event>
<event>
10    4  0.7508634E-005  0.3032262E+03  0.7546771E-02  0.1111474E+00
          2   -1    0    0  502    0 -0.00000000000E+00  0.00000000000E+00  0.17165324828E+03  0.17165324828E+03  0.00000000000E+00 0. -1.
         21   -1    0    0  503  502  0.00000000000E+00 -0.00000000000E+00 -0.87003866972E+03  0.87003866972E+03  0.00000000000E+00 0. -1.
         24    2    1    2    0    0 -0.34149435688E+02  0.11771237511E+03 -0.51157890222E+01  0.14685428030E+03  0.80731785159E+02 0.  0.
         23    2    1    2    0    0 -0.72964251346E+02  0.81936234438E+01 -0.24265932253E+02  0.10951654162E+03  0.77550757447E+02 0.  0.
        -13    1    3    3    0    0 -0.24564944909E+02  0.95922539182E+01  0.22707894179E+02  0.34800809067E+02  0.00000000000E+00 0.  1.
         14    1    3    3    0    0 -0.95844907786E+01  0.10812012119E+03 -0.27823683202E+02  0.11205347124E+03  0.00000000000E+00 0. -1.
        -13    1    4    4    0    0 -0.26309963290E+02 -0.30635001658E+02 -0.27296953920E+02  0.48742601369E+02  0.00000000000E+00 0. -1.
         13    1    4    4    0    0 -0.46654288056E+02  0.38828625102E+02  0.30310216667E+01  0.60773940251E+02  0.00000000000E+00 0.  1.
         21    1    1    2  503  501 -0.36748589737E+02 -0.18660300044E+03 -0.56889217361E+03  0.59984118216E+03  0.00000000000E+00 0. -1.
          1    1    1    2  501    0  0.14386227677E+03  0.60697001886E+02 -0.10011152656E+03  0.18547991392E+03  0.00000000000E+00 0. -1.
<scales pt_clust_5="13000.00000" pt_clust_6="13000.00000" pt_clust_7="13000.00000" pt_clust_8="13000.00000" pt_clust_9="173.68202" pt_clust_10="13000.00000"></scales>
<clustering>
<clus scale="   77.551">  7  8 -1 -1</clus>
<clus scale="   80.732">  5  6 -1 -1</clus>
<clus scale="  146.765">  1  5  2 -1</clus>
<clus scale="  170.193">  7 10 -1 -1</clus>
<clus scale="  173.682">  2  9  1 -1</clus>
<clus scale="  173.682">  2  5  1 -1</clus>
</clustering>
</event>
<event>
10    4  0.7508634E-005  0.2604113E+03  0.7546771E-02  0.1117628E+00
         21   -1    0    0  503  502  0.00000000000E+00  0.00000000000E+00  0.19085020081E+03  0.19085020081E+03  0.00000000000E+00 0. -1.
          2   -1    0    0  502    0 -0.00000000000E+00 -0.00000000000E+00 -0.94571703734E+03  0.94571703734E+03  0.00000000000E+00 0. -1.
         24    2    1    2    0    0 -0.19022044808E+03 -0.53070082495E+02 -0.94626596322E+02  0.23359206983E+03  0.81306886752E+02 0.  0.
         23    2    1    2    0    0  0.61260752574E+02  0.13487369685E+03 -0.56895555855E+03  0.59482851218E+03  0.90370002728E+02 0.  0.
        -13    1    3    3    0    0 -0.60334531154E+02 -0.30831135825E+02 -0.73790208868E+02  0.10017888755E+03  0.00000000000E+00 0.  1.
         14    1    3    3    0    0 -0.12988591693E+03 -0.22238946670E+02 -0.20836387453E+02  0.13341318228E+03  0.00000000000E+00 0. -1.
        -13    1    4    4    0    0  0.51994220219E+02  0.20332178897E+02 -0.13930675384E+03  0.15007720714E+03  0.00000000000E+00 0. -1.
         13    1    4    4    0    0  0.92665323553E+01  0.11454151795E+03 -0.42964880470E+03  0.44475130504E+03  0.00000000000E+00 0.  1.
         21    1    1    2  503  501  0.50483801459E+02 -0.59581750031E+02  0.84074328774E+02  0.11474794946E+03  0.00000000000E+00 0. -1.
          1    1    1    2  501    0  0.78475894047E+02 -0.22221864323E+02 -0.17535901044E+03  0.19339870667E+03  0.00000000000E+00 0. -1.
<scales pt_clust_5="13000.00000" pt_clust_6="13000.00000" pt_clust_7="13000.00000" pt_clust_8="13000.00000" pt_clust_9="78.09353" pt_clust_10="13000.00000"></scales>
<clustering>
<clus scale="   78.094">  1  9  2 -1</clus>
<clus scale="   81.307">  5  6 -1 -1</clus>
<clus scale="   90.370">  7  8 -1 -1</clus>
<clus scale="   88.059">  7 10 -1 -1</clus>
<clus scale="  198.352">  2  5  1 -1</clus>
<clus scale="   78.094">  1  5  2 -1</clus>
</clustering>
</event>
<event>
10    4  0.7508634E-005  0.3301439E+03  0.7546771E-02  0.1088089E+00
         21   -1    0    0  501  502  0.00000000000E+00  0.00000000000E+00  0.30767419426E+03  0.30767419426E+03  0.00000000000E+00 0. -1.
          2   -1    0    0  503    0 -0.00000000000E+00 -0.00000000000E+00 -0.20043834019E+04  0.20043834019E+04  0.00000000000E+00 0. -1.
         24    2    1    2    0    0  0.67947640994E+02 -0.23680907726E+03 -0.59751102434E+03  0.65124112514E+03  0.80000986744E+02 0.  0.
         23    2    1    2    0    0  0.41104980354E+01  0.35536417696E+02 -0.13925815480E+03  0.16843687224E+03  0.87740601078E+02 0.  0.
        -11    1    3    3    0    0  0.62606420006E+02 -0.15665822782E+03 -0.48095692486E+03  0.50968708806E+03  0.00000000000E+00 0.  1.
         12    1    3    3    0    0  0.53412209876E+01 -0.80150849435E+02 -0.11655409948E+03  0.14155403707E+03  0.00000000000E+00 0. -1.
        -11    1    4    4    0    0  0.42782961508E+02  0.57043057561E+01 -0.45470457438E+02  0.62693567446E+02  0.00000000000E+00 0.  1.
         11    1    4    4    0    0 -0.38672463473E+02  0.29832111940E+02 -0.93787697357E+02  0.10574330480E+03  0.00000000000E+00 0. -1.
         21    1    1    2  503  502 -0.23490092172E+03  0.98557290929E+02  0.19543588357E+03  0.32107190349E+03  0.00000000000E+00 0. -1.
          1    1    1    2  501    0  0.16284278269E+03  0.10271536863E+03 -0.11553759121E+04  0.11713076953E+04  0.00000000000E+00 0. -1.
<scales pt_clust_5="13000.00000" pt_clust_6="13000.00000" pt_clust_7="13000.00000" pt_clust_8="13000.00000" pt_clust_9="254.73905" pt_clust_10="13000.00000"></scales>
<clustering>
<clus scale="   80.001">  5  6 -1 -1</clus>
<clus scale="   87.741">  7  8 -1 -1</clus>
<clus scale="  192.531">  7 10 -1 -1</clus>
<clus scale="  254.739">  1  9  2 -1</clus>
<clus scale="  208.672">  2  5  1 -1</clus>
<clus scale="  254.739">  1  5  2 -1</clus>
</clustering>
</event>
<event>
10    4  0.7508634E-005  0.7066423E+03  0.7546771E-02  0.1005433E+00
          2   -1    0    0  503    0 -0.00000000000E+00  0.00000000000E+00  0.16415527350E+04  0.16415527350E+04  0.00000000000E+00 0. -1.
         21   -1    0    0  501  502  0.00000000000E+00 -0.00000000000E+00 -0.16283001798E+03  0.16283001798E+03  0.00000000000E+00 0.  1.
         24    2    1    2    0    0 -0.20706120926E+03 -0.43055351451E+02  0.31649377108E+03  0.38935933603E+03  0.81879654069E+02 0.  0.
         23    2    1    2    0    0 -0.28320638819E+02 -0.29103787245E+03  0.48274503913E+03  0.57148276049E+03  0.89692089679E+02 0.  0.
        -13    1    3    3    0    0 -0.13206038932E+03  0.56352731414E+01  0.22805711089E+03  0.26359390842E+03  0.00000000000E+00 0.  1.
         14    1    3    3    0    0 -0.75000819943E+02 -0.48690624592E+02  0.88436660196E+02  0.12576542761E+03  0.00000000000E+00 0. -1.
        -11    1    4    4    0    0 -0.50543000159E+02 -0.21862630802E+03  0.30840821190E+03  0.38140225824E+03  0.00000000000E+00 0.  1.
         11    1    4    4    0    0  0.22222361340E+02 -0.72411564424E+02  0.17433682724E+03  0.19008050226E+03  0.00000000000E+00 0. -1.
         21    1    1    2  503  502 -0.13352526186E+02  0.17648537314E+02 -0.24251524712E+02  0.32831345932E+02  0.00000000000E+00 0.  1.
          1    1    1    2  501    0  0.24873437427E+03  0.31644468658E+03  0.70373543150E+03  0.81070931052E+03  0.00000000000E+00 0. -1.
<scales pt_clust_5="13000.00000" pt_clust_6="13000.00000" pt_clust_7="13000.00000" pt_clust_8="13000.00000" pt_clust_9="22.13054" pt_clust_10="13000.00000"></scales>
<clustering>
<clus scale="   22.131">  2  9  1 -1</clus>
<clus scale="   81.880">  5  6 -1 -1</clus>
<clus scale="   89.692">  7  8 -1 -1</clus>
<clus scale="  229.252">  1  5  2 -1</clus>
<clus scale="  322.503">  7 10 -1 -1</clus>
<clus scale="   22.131">  2  5  1 -1</clus>
</clustering>
</event>
<event>
10    4  0.7508634E-005  0.4745712E+03  0.7546771E-02  0.1039793E+00
         21   -1    0    0  501  502  0.00000000000E+00  0.00000000000E+00  0.33175182125E+03  0.33175182125E+03  0.00000000000E+00 0. -1.
          2   -1    0    0  503    0 -0.00000000000E+00 -0.00000000000E+00 -0.13243133451E+04  0.13243133451E+04  0.00000000000E+00 0. -1.
         24    2    1    2    0    0  0.24142498517E+03  0.57400995332E+02 -0.80417896437E+03  0.84543487663E+03  0.80470032638E+02 0.  0.
         23    2    1    2    0    0 -0.13650244413E+03  0.12917845134E+03 -0.22176826989E+02  0.21017458116E+03  0.91441529768E+02 0.  0.
        -13    1    3    3    0    0  0.53052706940E+02 -0.20709031955E+02 -0.17541531496E+03  0.18442881131E+03  0.00000000000E+00 0.  1.
         14    1    3    3    0    0  0.18837227823E+03  0.78110027288E+02 -0.62876364941E+03  0.66100606532E+03  0.00000000000E+00 0. -1.
        -13    1    4    4    0    0 -0.20165202076E+02  0.78740346605E+02 -0.18293655194E+02  0.83314676850E+02  0.00000000000E+00 0.  1.
         13    1    4    4    0    0 -0.11633724206E+03  0.50438104731E+02 -0.38831717953E+01  0.12685990431E+03  0.00000000000E+00 0. -1.
         21    1    1    2  503  502  0.69740633779E+02 -0.29698997955E+02  0.17245340454E+03  0.18837718338E+03  0.00000000000E+00 0. -1.
          1    1    1    2  501    0 -0.17466317482E+03 -0.15688044871E+03 -0.33865913704E+03  0.41207852520E+03  0.00000000000E+00 0. -1.
<scales pt_clust_5="13000.00000" pt_clust_6="13000.00000" pt_clust_7="13000.00000" pt_clust_8="13000.00000" pt_clust_9="75.80097" pt_clust_10="13000.00000"></scales>
<clustering>
<clus scale="   75.801">  1  9  2 -1</clus>
<clus scale="   80.470">  5  6 -1 -1</clus>
<clus scale="   91.442">  7  8 -1 -1</clus>
<clus scale="  227.613">  7 10 -1 -1</clus>
<clus scale="  268.865">  2  5  1 -1</clus>
<clus scale="   75.801">  1  5  2 -1</clus>
</clustering>
</event>
<event>
10    4  0.7508634E-005  0.1324746E+03  0.7546771E-02  0.1247585E+00
         21   -1    0    0  501  502  0.00000000000E+00  0.00000000000E+00  0.10815047401E+03  0.10815047401E+03  0.00000000000E+00 0.  1.
         -1   -1    0    0    0  501 -0.00000000000E+00 -0.00000000000E+00 -0.23199388341E+03  0.23199388341E+03  0.00000000000E+00 0.  1.
         24    2    1    2    0    0 -0.33116816659E+01  0.48998515411E+01  0.15230477828E+01  0.80057396065E+02  0.79824126738E+02 0.  0.
         23    2    1    2    0    0  0.11960883862E+01 -0.11933325866E+02 -0.13493846417E+03  0.16278589898E+03  0.90260871365E+02 0.  0.
        -13    1    3    3    0    0  0.65768089110E+01 -0.31055621155E+02  0.20925976208E+02  0.38021079693E+02  0.00000000000E+00 0.  1.
         14    1    3    3    0    0 -0.98884905769E+01  0.35955472696E+02 -0.19402928425E+02  0.42036316372E+02  0.00000000000E+00 0. -1.
        -11    1    4    4    0    0 -0.19878782648E+02 -0.46160989442E+02 -0.84142695882E+02  0.98010184246E+02  0.00000000000E+00 0.  1.
         11    1    4    4    0    0  0.21074871034E+02  0.34227663575E+02 -0.50795768291E+02  0.64775714733E+02  0.00000000000E+00 0. -1.
         21    1    1    2  503  502  0.25469882082E+02 -0.24572097791E+02  0.35573787099E+02  0.50179649378E+02  0.00000000000E+00 0.  1.
         -2    1    1    2    0  503 -0.23354288802E+02  0.31605572116E+02 -0.26001780111E+02  0.47121413001E+02  0.00000000000E+00 0.  1.
<scales pt_clust_5="13000.00000" pt_clust_6="13000.00000" pt_clust_7="13000.00000" pt_clust_8="13000.00000" pt_clust_9="35.39072" pt_clust_10="13000.00000"></scales>
<clustering>
<clus scale="   35.391">  1  9  2 -1</clus>
<clus scale="   79.824">  5  6 -1 -1</clus>
<clus scale="   81.487">  2  5  1 -1</clus>
<clus scale="   90.261">  7  8 -1 -1</clus>
<clus scale="   31.221">  7 10 -1 -1</clus>
<clus scale="   35.391">  1  5  2 -1</clus>
</clustering>
</event>
<event>
10    4  0.7508634E-005  0.1905636E+03  0.7546771E-02  0.1193130E+00
         21   -1    0    0  501  502  0.00000000000E+00  0.00000000000E+00  0.74530040317E+02  0.74530040317E+02  0.00000000000E+00 0. -1.
          2   -1    0    0  503    0 -0.00000000000E+00 -0.00000000000E+00 -0.37009307613E+03  0.37009307613E+03  0.00000000000E+00 0. -1.
         24    2    1    2    0    0  0.33374877371E+02  0.30111108092E+02 -0.37206200632E+02  0.98904887966E+02  0.79858088057E+02 0.  0.
         23    2    1    2    0    0 -0.46867151138E+02 -0.21810228512E+01 -0.64231695813E+02  0.12205398810E+03  0.92575258825E+02 0.  0.
        -13    1    3    3    0    0  0.32268975367E+02 -0.95495418754E+01 -0.47220081725E+02  0.57984624164E+02  0.00000000000E+00 0.  1.
         14    1    3    3    0    0  0.11059020039E+01  0.39660649967E+02  0.10013881094E+02  0.40920263802E+02  0.00000000000E+00 0. -1.
        -13    1    4    4    0    0  0.23467008950E+02  0.19089449215E+02 -0.16942955277E+02  0.34672342204E+02  0.00000000000E+00 0.  1.
         13    1    4    4    0    0 -0.70334160088E+02 -0.21270472066E+02 -0.47288740537E+02  0.87381645891E+02  0.00000000000E+00 0. -1.
         21    1    1    2  503  502 -0.25965624610E+02 -0.12194167698E+02 -0.41349418356E+01  0.28982911020E+02  0.00000000000E+00 0. -1.
          1    1    1    2  501    0  0.39457898376E+02 -0.15735917543E+02 -0.18999019753E+03  0.19468132936E+03  0.00000000000E+00 0. -1.
<scales pt_clust_5="13000.00000" pt_clust_6="13000.00000" pt_clust_7="13000.00000" pt_clust_8="13000.00000" pt_clust_9="28.68643" pt_clust_10="13000.00000"></scales>
<clustering>
<clus scale="   28.686">  1  9  2 -1</clus>
<clus scale="   79.858">  5  6 -1 -1</clus>
<clus scale="   85.879">  2  5  1 -1</clus>
<clus scale="   92.575">  7  8 -1 -1</clus>
<clus scale="   51.240">  7 10 -1 -1</clus>
<clus scale="   28.686">  1  5  2 -1</clus>
</clustering>
</event>
<event>
10    4  0.7508634E-005  0.2156816E+03  0.7546771E-02  0.1173111E+00
          2   -1    0    0  502    0 -0.00000000000E+00  0.00000000000E+00  0.47263611048E+03  0.47263611048E+03  0.00000000000E+00 0. -1.
         21   -1    0    0  503  502  0.00000000000E+00 -0.00000000000E+00 -0.68903167772E+02  0.68903167772E+02  0.00000000000E+00 0. -1.
         24    2    1    2    0    0 -0.40076849971E+02  0.27582491712E+02  0.20729899573E+03  0.22797124332E+03  0.81431360030E+02 0.  0.
         23    2    1    2    0    0 -0.45715106733E+02 -0.48741127171E+02  0.52599336660E+02  0.12513533116E+03  0.91796472845E+02 0.  0.
        -13    1    3    3    0    0 -0.93290513009E+01 -0.28462868537E+02  0.82164055817E+02  0.87453405604E+02  0.00000000000E+00 0.  1.
         14    1    3    3    0    0 -0.30747798670E+02  0.56045360249E+02  0.12513493991E+03  0.14051783771E+03  0.00000000000E+00 0. -1.
        -13    1    4    4    0    0 -0.11056386859E+02  0.22549554481E+02  0.36407698390E+02  0.44229476594E+02  0.00000000000E+00 0.  1.
         13    1    4    4    0    0 -0.34658719875E+02 -0.71290681653E+02  0.16191638269E+02  0.80905854570E+02  0.00000000000E+00 0. -1.
         21    1    1    2  503  501  0.16521394317E+02 -0.19103920174E+02  0.17537075448E+01  0.25317814407E+02  0.00000000000E+00 0. -1.
          1    1    1    2  501    0  0.69270562387E+02  0.40262555633E+02  0.14208090278E+03  0.16311488937E+03  0.00000000000E+00 0. -1.
<scales pt_clust_5="13000.00000" pt_clust_6="13000.00000" pt_clust_7="13000.00000" pt_clust_8="13000.00000" pt_clust_9="25.25700" pt_clust_10="13000.00000"></scales>
<clustering>
<clus scale="   25.257">  2  9  1 -1</clus>
<clus scale="   81.431">  5  6 -1 -1</clus>
<clus scale="   91.796">  7  8 -1 -1</clus>
<clus scale="   81.113">  7 10 -1 -1</clus>
<clus scale="   92.675">  1  5  2 -1</clus>
<clus scale="   25.257">  2  5  1 -1</clus>
</clustering>
</event>
<event>
10    4  0.7508634E-005  0.3771681E+03  0.7546771E-02  0.1077973E+00
          2   -1    0    0  503    0 -0.00000000000E+00  0.00000000000E+00  0.16629846396E+04  0.16629846396E+04  0.00000000000E+00 0. -1.
         21   -1    0    0  501  502  0.00000000000E+00 -0.00000000000E+00 -0.97658754679E+02  0.97658754679E+02  0.00000000000E+00 0.  1.
         24    2    1    2    0    0 -0.18399870491E+03 -0.18135310200E+02  0.64777707712E+03  0.67838096160E+03  0.80007340509E+02 0.  0.
         23    2    1    2    0    0  0.12873386251E+03  0.72019652233E+02  0.23755679490E+03  0.29404281894E+03  0.90932452418E+02 0.  0.
        -11    1    3    3    0    0 -0.25627471648E+02 -0.33228183119E+02  0.15349764467E+03  0.15913015546E+03  0.00000000000E+00 0.  1.
         12    1    3    3    0    0 -0.15837123326E+03  0.15092872919E+02  0.49427943245E+03  0.51925080614E+03  0.00000000000E+00 0. -1.
        -13    1    4    4    0    0  0.97402711698E+02  0.39519400292E+02  0.85714605486E+02  0.13563209369E+03  0.00000000000E+00 0.  1.
         13    1    4    4    0    0  0.31331150808E+02  0.32500251941E+02  0.15184218942E+03  0.15841072525E+03  0.00000000000E+00 0. -1.
         21    1    1    2  503  502  0.63967420657E+02  0.89869737762E+02  0.19266161392E+02  0.11198029133E+03  0.00000000000E+00 0.  1.
          1    1    1    2  501    0 -0.87025782518E+01 -0.14375407979E+03  0.66072585151E+03  0.67623932241E+03  0.00000000000E+00 0. -1.
<scales pt_clust_5="13000.00000" pt_clust_6="13000.00000" pt_clust_7="13000.00000" pt_clust_8="13000.00000" pt_clust_9="110.31047" pt_clust_10="13000.00000"></scales>
<clustering>
<clus scale="   80.007">  5  6 -1 -1</clus>
<clus scale="   90.932">  7  8 -1 -1</clus>
<clus scale="  110.310">  2  9  1 -1</clus>
<clus scale="  130.170">  7 10 -1 -1</clus>
<clus scale="  183.506">  1  5  2 -1</clus>
<clus scale="  110.310">  2  5  1 -1</clus>
</clustering>
</event>
<event>
10    4  0.7508634E-005  0.2142604E+03  0.7546771E-02  0.1173594E+00
         21   -1    0    0  503  502  0.00000000000E+00  0.00000000000E+00  0.67155526641E+02  0.67155526641E+02  0.00000000000E+00 0. -1.
         -1   -1    0    0    0  501 -0.00000000000E+00 -0.00000000000E+00 -0.41121628082E+03  0.41121628082E+03  0.00000000000E+00 0.  1.
         24    2    1    2    0    0  0.35904706118E+02 -0.18513074854E+02 -0.69543158960E+02  0.11364647785E+03  0.80295635670E+02 0.  0.
         23    2    1    2    0    0  0.30876920810E+02 -0.10298073961E+02 -0.21461136448E+03  0.23524938892E+03  0.90690697740E+02 0.  0.
        -13    1    3    3    0    0  0.18309541372E+02  0.24425505588E+02 -0.58440702920E+02  0.65932999221E+02  0.00000000000E+00 0.  1.
         14    1    3    3    0    0  0.17595164746E+02 -0.42938580442E+02 -0.11102456040E+02  0.47713478630E+02  0.00000000000E+00 0. -1.
        -13    1    4    4    0    0 -0.18140612729E+02 -0.34006803217E+02 -0.12058515029E+03  0.12659511430E+03  0.00000000000E+00 0.  1.
         13    1    4    4    0    0  0.49017533538E+02  0.23708729256E+02 -0.94026214191E+02  0.10865427462E+03  0.00000000000E+00 0. -1.
         21    1    1    2  503  501  0.18897712600E+02 -0.90342241223E+01 -0.13745710463E+02  0.25053648500E+02  0.00000000000E+00 0. -1.
         -2    1    1    2    0  502 -0.85679339528E+02  0.37845372937E+02 -0.46160520277E+02  0.10442229219E+03  0.00000000000E+00 0.  1.
<scales pt_clust_5="13000.00000" pt_clust_6="13000.00000" pt_clust_7="13000.00000" pt_clust_8="13000.00000" pt_clust_9="20.94614" pt_clust_10="13000.00000"></scales>
<clustering>
<clus scale="   20.946">  1  9  2 -1</clus>
<clus scale="   80.296">  5  6 -1 -1</clus>
<clus scale="   90.691">  7  8 -1 -1</clus>
<clus scale="   83.749">  7 10 -1 -1</clus>
<clus scale="   93.500">  2  5  1 -1</clus>
<clus scale="   20.946">  1  5  2 -1</clus>
</clustering>
</event>
<event>
10    4  0.7508634E-005  0.1623611E+03  0.7546771E-02  0.1200219E+00
          4   -1    0    0  503    0 -0.00000000000E+00  0.00000000000E+00  0.27166970801E+03  0.27166970801E+03  0.00000000000E+00 0. -1.
         21   -1    0    0  501  502  0.00000000000E+00 -0.00000000000E+00 -0.13607611578E+03  0.13607611578E+03  0.00000000000E+00 0.  1.
         24    2    1    2    0    0 -0.43839714098E+02  0.75822352963E+02  0.14850976562E+03  0.19027952422E+03  0.80499671508E+02 0.  0.
         23    2    1    2    0    0  0.56665022480E+02 -0.78461671424E+02 -0.58713710539E+02  0.14831372696E+03  0.95825378385E+02 0.  0.
        -13    1    3    3    0    0  0.19046679064E+02  0.74905876016E+01  0.82580050725E+01  0.22069878426E+02  0.00000000000E+00 0.  1.
         14    1    3    3    0    0 -0.62886393162E+02  0.68331765361E+02  0.14025176055E+03  0.16820964580E+03  0.00000000000E+00 0. -1.
        -13    1    4    4    0    0  0.72467352687E+02 -0.90759095996E+02 -0.48919272648E+02  0.12602311672E+03  0.00000000000E+00 0.  1.
         13    1    4    4    0    0 -0.15802330207E+02  0.12297424571E+02 -0.97944378908E+01  0.22290610235E+02  0.00000000000E+00 0. -1.
         21    1    1    2  503  502 -0.24199825619E+02 -0.15066664032E+02  0.36052454353E+02  0.45961020332E+02  0.00000000000E+00 0.  1.
          3    1    1    2  501    0  0.11374517237E+02  0.17705982494E+02  0.97450827938E+01  0.23191552279E+02  0.00000000000E+00 0. -1.
<scales pt_clust_5="13000.00000" pt_clust_6="13000.00000" pt_clust_7="13000.00000" pt_clust_8="13000.00000" pt_clust_9="28.50678" pt_clust_10="13000.00000"></scales>
<clustering>
<clus scale="   28.507">  2  9  1 -1</clus>
<clus scale="   80.500">  5  6 -1 -1</clus>
<clus scale="   95.825">  7  8 -1 -1</clus>
<clus scale="   19.734">  7 10 -1 -1</clus>
<clus scale="  118.936">  1  5  2 -1</clus>
<clus scale="   28.507">  2  5  1 -1</clus>
</clustering>
</event>
<event>
10    4  0.7508634E-005  0.2120267E+03  0.7546771E-02  0.1174979E+00
         21   -1    0    0  503  502  0.00000000000E+00  0.00000000000E+00  0.94939713083E+02  0.94939713083E+02  0.00000000000E+00 0. -1.
         -1   -1    0    0    0  501 -0.00000000000E+00 -0.00000000000E+00 -0.72865430041E+03  0.72865430041E+03  0.00000000000E+00 0.  1.
         24    2    1    2    0    0 -0.38504724710E+02 -0.75810607814E+01 -0.22904999553E+03  0.24739799249E+03  0.84863301426E+02 0.  0.
         23    2    1    2    0    0  0.47248062685E+00 -0.28671733716E+02 -0.10161034368E+03  0.14036425319E+03  0.92494162409E+02 0.  0.
        -13    1    3    3    0    0 -0.61071556082E+01 -0.43749513730E+02 -0.12499962996E+03  0.13257535514E+03  0.00000000000E+00 0.  1.
         14    1    3    3    0    0 -0.32397569102E+02  0.36168452948E+02 -0.10405036557E+03  0.11482263735E+03  0.00000000000E+00 0. -1.
        -13    1    4    4    0    0  0.35666771040E+02 -0.40888490983E+02 -0.81830262644E+02  0.98184413914E+02  0.00000000000E+00 0. -1.
         13    1    4    4    0    0 -0.35194290413E+02  0.12216757267E+02 -0.19780081032E+02  0.42179839277E+02  0.00000000000E+00 0.  1.
         21    1    1    2  503  501  0.90160851268E+02  0.69287208938E+02  0.12413278365E+02  0.11438437788E+03  0.00000000000E+00 0. -1.
         -2    1    1    2    0  502 -0.52128607184E+02 -0.33034414440E+02 -0.31546752649E+03  0.32144738993E+03  0.00000000000E+00 0.  1.
<scales pt_clust_5="13000.00000" pt_clust_6="13000.00000" pt_clust_7="13000.00000" pt_clust_8="13000.00000" pt_clust_9="110.06953" pt_clust_10="13000.00000"></scales>
<clustering>
<clus scale="   84.863">  5  6 -1 -1</clus>
<clus scale="   92.494">  7  8 -1 -1</clus>
<clus scale="   61.714">  7 10 -1 -1</clus>
<clus scale="   93.498">  2  5  1 -1</clus>
<clus scale="  110.070">  1  9  2 -1</clus>
<clus scale="  110.070">  1  5  2 -1</clus>
</clustering>
</event>
<event>
10    4  0.7508634E-005  0.3431614E+03  0.7546771E-02  0.1088341E+00
          2   -1    0    0  502    0 -0.00000000000E+00  0.00000000000E+00  0.15247620724E+04  0.15247620724E+04  0.00000000000E+00 0. -1.
         21   -1    0    0  503  502  0.00000000000E+00 -0.00000000000E+00 -0.64802445478E+02  0.64802445478E+02  0.00000000000E+00 0. -1.
         24    2    1    2    0    0 -0.79128160852E+02  0.16877971422E+03  0.52430523844E+03  0.56115642077E+03  0.72475428523E+02 0.  0.
         23    2    1    2    0    0  0.13623416961E+03 -0.72761761004E+01  0.28705334488E+03  0.32993341445E+03  0.88564910975E+02 0.  0.
        -13    1    3    3    0    0 -0.33869371261E+02  0.10672146294E+02  0.89289447575E+02  0.96091802275E+02  0.00000000000E+00 0.  1.
         14    1    3    3    0    0 -0.45258789591E+02  0.15810756793E+03  0.43501579086E+03  0.46506461849E+03  0.00000000000E+00 0. -1.
        -13    1    4    4    0    0  0.48165654174E+02  0.37279510610E+02  0.79882523108E+02  0.10045351986E+03  0.00000000000E+00 0.  1.
         13    1    4    4    0    0  0.88068515438E+02 -0.44555686710E+02  0.20717082177E+03  0.22947989459E+03  0.00000000000E+00 0. -1.
         21    1    1    2  503  501  0.10454645670E+02 -0.42239613821E+02  0.91087674641E+01  0.44457330516E+02  0.00000000000E+00 0. -1.
          1    1    1    2  501    0 -0.67560654430E+02 -0.11926392430E+03  0.63949227619E+03  0.65401735220E+03  0.00000000000E+00 0. -1.
<scales pt_clust_5="13000.00000" pt_clust_6="13000.00000" pt_clust_7="13000.00000" pt_clust_8="13000.00000" pt_clust_9="43.51419" pt_clust_10="13000.00000"></scales>
<clustering>
<clus scale="   43.514">  2  9  1 -1</clus>
<clus scale="   72.475">  5  6 -1 -1</clus>
<clus scale="   88.565">  7  8 -1 -1</clus>
<clus scale="  142.015">  7 10 -1 -1</clus>
<clus scale="  184.577">  1  5  2 -1</clus>
<clus scale="   43.514">  2  5  1 -1</clus>
</clustering>
</event>
<event>
10    4  0.7508634E-005  0.6389301E+03  0.7546771E-02  0.1048142E+00
         21   -1    0    0  503  502  0.00000000000E+00  0.00000000000E+00  0.51248909443E+02  0.51248909443E+02  0.00000000000E+00 0.  1.
          2   -1    0    0  502    0 -0.00000000000E+00 -0.00000000000E+00 -0.32374136019E+04  0.32374136019E+04  0.00000000000E+00 0. -1.
         24    2    1    2    0    0 -0.13589770468E+02  0.30767234450E+02 -0.42483852185E+03  0.43391375055E+03  0.81621496506E+02 0.  0.
         23    2    1    2    0    0  0.27977975093E+03 -0.12119048368E+03 -0.10744439487E+04  0.11206254472E+04  0.91693792862E+02 0.  0.
        -11    1    3    3    0    0 -0.37912702252E+02 -0.59236985730E+01 -0.12199662207E+03  0.12788916683E+03  0.00000000000E+00 0.  1.
         12    1    3    3    0    0  0.24322931784E+02  0.36690933023E+02 -0.30284189978E+03  0.30602458372E+03  0.00000000000E+00 0. -1.
        -11    1    4    4    0    0  0.19208216346E+03 -0.72349857147E+02 -0.55886443874E+03  0.59536503108E+03  0.00000000000E+00 0.  1.
         11    1    4    4    0    0  0.87697587466E+02 -0.48840626531E+02 -0.51557950995E+03  0.52526041610E+03  0.00000000000E+00 0. -1.
         21    1    1    2  503  501  0.52897493352E+01 -0.45740844966E+02 -0.44986676661E+02  0.64373965415E+02  0.00000000000E+00 0.  1.
          1    1    1    2  501    0 -0.27147972980E+03  0.13616409419E+03 -0.16418955453E+04  0.16697493482E+04  0.00000000000E+00 0. -1.
<scales pt_clust_5="13000.00000" pt_clust_6="13000.00000" pt_clust_7="13000.00000" pt_clust_8="13000.00000" pt_clust_9="46.04570" pt_clust_10="13000.00000"></scales>
<clustering>
<clus scale="   46.046">  1  9  2 -1</clus>
<clus scale="   81.621">  5  6 -1 -1</clus>
<clus scale="   86.577">  2  5  1 -1</clus>
<clus scale="   91.694">  7  8 -1 -1</clus>
<clus scale="  308.380">  7 10 -1 -1</clus>
<clus scale="   46.046">  1  5  2 -1</clus>
</clustering>
</event>
<event>
10    4  0.7508634E-005  0.4149272E+03  0.7546771E-02  0.1068969E+00
         21   -1    0    0  501  502  0.00000000000E+00  0.00000000000E+00  0.29313032651E+03  0.29313032651E+03  0.00000000000E+00 0.  1.
         -1   -1    0    0    0  501 -0.00000000000E+00 -0.00000000000E+00 -0.60947119700E+03  0.60947119700E+03  0.00000000000E+00 0.  1.
         24    2    1    2    0    0  0.16381955864E+03 -0.54740592483E+02 -0.30277371278E+03  0.35786259900E+03  0.80995915678E+02 0.  0.
         23    2    1    2    0    0  0.26604454388E+02 -0.10029503043E+03  0.85278442788E+02  0.16131086497E+03  0.89341436246E+02 0.  0.
        -13    1    3    3    0    0  0.83866071922E+02 -0.45698956389E+02 -0.23128493627E+03  0.25022916373E+03  0.00000000000E+00 0.  1.
         14    1    3    3    0    0  0.79953486722E+02 -0.90416360939E+01 -0.71488776501E+02  0.10763343527E+03  0.00000000000E+00 0. -1.
        -11    1    4    4    0    0  0.34424413096E+02 -0.45455801650E+02 -0.29924444693E+01  0.57098378651E+02  0.00000000000E+00 0. -1.
         11    1    4    4    0    0 -0.78199587081E+01 -0.54839228779E+02  0.88270887257E+02  0.10421248632E+03  0.00000000000E+00 0.  1.
         21    1    1    2  503  502 -0.97002579206E+02  0.38349281276E+02  0.93328224518E+02  0.13996544302E+03  0.00000000000E+00 0.  1.
         -2    1    1    2    0  503 -0.93421433825E+02  0.11668634164E+03 -0.19217382502E+03  0.24346261653E+03  0.00000000000E+00 0.  1.
<scales pt_clust_5="13000.00000" pt_clust_6="13000.00000" pt_clust_7="13000.00000" pt_clust_8="13000.00000" pt_clust_9="104.30804" pt_clust_10="13000.00000"></scales>
<clustering>
<clus scale="   80.996">  5  6 -1 -1</clus>
<clus scale="   89.341">  7  8 -1 -1</clus>
<clus scale="  104.308">  1  9  2 -1</clus>
<clus scale="  162.810">  7 10 -1 -1</clus>
<clus scale="  176.191">  2  5  1 -1</clus>
<clus scale="  104.308">  1  5  2 -1</clus>
</clustering>
</event>
<event>
10    4  0.7508634E-005  0.1257068E+03  0.7546771E-02  0.1253814E+00
         21   -1    0    0  503  502  0.00000000000E+00  0.00000000000E+00  0.40520110585E+03  0.40520110585E+03  0.00000000000E+00 0. -1.
          2   -1    0    0  502    0 -0.00000000000E+00 -0.00000000000E+00 -0.10957344553E+03  0.10957344553E+03  0.00000000000E+00 0. -1.
         24    2    1    2    0    0  0.16872811037E+02  0.28463988687E+02 -0.10929404862E+02  0.87272353026E+02  0.80013257075E+02 0.  0.
         23    2    1    2    0    0  0.14778184276E+02  0.41495822283E+01 -0.32103478306E+01  0.95945828994E+02  0.94655596797E+02 0.  0.
        -13    1    3    3    0    0 -0.25566149813E+02  0.46948887726E+00 -0.23686875764E+02  0.34855652620E+02  0.00000000000E+00 0.  1.
         14    1    3    3    0    0  0.42438960851E+02  0.27994499810E+02  0.12757470902E+02  0.52416700407E+02  0.00000000000E+00 0. -1.
        -13    1    4    4    0    0  0.14992341517E+02 -0.44606970256E+02 -0.34867452113E+01  0.47188022757E+02  0.00000000000E+00 0. -1.
         13    1    4    4    0    0 -0.21415724089E+00  0.48756552484E+02  0.27639738070E+00  0.48757806236E+02  0.00000000000E+00 0.  1.
         21    1    1    2  503  501 -0.44174992366E+02 -0.62072491723E+01  0.29583534177E+03  0.29917972748E+03  0.00000000000E+00 0. -1.
          1    1    1    2  501    0  0.12523997052E+02 -0.26406321743E+02  0.13932071246E+02  0.32376641879E+02  0.00000000000E+00 0. -1.
<scales pt_clust_5="13000.00000" pt_clust_6="13000.00000" pt_clust_7="13000.00000" pt_clust_8="13000.00000" pt_clust_9="44.60897" pt_clust_10="13000.00000"></scales>
<clustering>
<clus scale="   44.609">  1  9  2 -1</clus>
<clus scale="   80.013">  5  6 -1 -1</clus>
<clus scale="   84.222">  2  5  1 -1</clus>
<clus scale="   94.656">  7  8 -1 -1</clus>
<clus scale="   23.876">  7 10 -1 -1</clus>
<clus scale="   44.609">  1  5  2 -1</clus>
</clustering>
</event>
<event>
10    4  0.7508634E-005  0.2900636E+03  0.7546771E-02  0.1101958E+00
         21   -1    0    0  501  502  0.00000000000E+00  0.00000000000E+00  0.19127345985E+03  0.19127345985E+03  0.00000000000E+00 0. -1.
          2   -1    0    0  503    0 -0.00000000000E+00 -0.00000000000E+00 -0.11497516515E+04  0.11497516515E+04  0.00000000000E+00 0. -1.
         24    2    1    2    0    0 -0.17326773568E+03  0.76744313688E+02 -0.67566667847E+03  0.70649476909E+03  0.81841312544E+02 0.  0.
         23    2    1    2    0    0  0.18204235251E+02 -0.64505707103E+02 -0.17530730534E+03  0.21065371799E+03  0.95655408448E+02 0.  0.
        -11    1    3    3    0    0 -0.43903233966E+02  0.62351615439E+02 -0.24915849836E+03  0.26056702632E+03  0.00000000000E+00 0.  1.
         12    1    3    3    0    0 -0.12936450171E+03  0.14392698249E+02 -0.42650818012E+03  0.44592774277E+03  0.00000000000E+00 0. -1.
        -13    1    4    4    0    0  0.10950936743E+01 -0.87833662829E+02 -0.12977657398E+03  0.15670963822E+03  0.00000000000E+00 0. -1.
         13    1    4    4    0    0  0.17109141576E+02  0.23327955726E+02 -0.45530731363E+02  0.53944079771E+02  0.00000000000E+00 0.  1.
         21    1    1    2  503  502 -0.35556004312E+02  0.90483285519E+01  0.12047899586E+03  0.12594161400E+03  0.00000000000E+00 0. -1.
          1    1    1    2  501    0  0.19061950474E+03 -0.21286935137E+02 -0.22798320374E+03  0.29793501033E+03  0.00000000000E+00 0. -1.
<scales pt_clust_5="13000.00000" pt_clust_6="13000.00000" pt_clust_7="13000.00000" pt_clust_8="13000.00000" pt_clust_9="36.68926" pt_clust_10="13000.00000"></scales>
<clustering>
<clus scale="   36.689">  1  9  2 -1</clus>
<clus scale="   81.841">  5  6 -1 -1</clus>
<clus scale="   95.655">  7  8 -1 -1</clus>
<clus scale="  173.149">  7 10 -1 -1</clus>
<clus scale="  213.970">  2  5  1 -1</clus>
<clus scale="   36.689">  1  5  2 -1</clus>
</clustering>
</event>
<event>
10    4  0.7508634E-005  0.1534347E+03  0.7546771E-02  0.1215208E+00
         21   -1    0    0  503  502  0.00000000000E+00  0.00000000000E+00  0.11133155313E+03  0.11133155313E+03  0.00000000000E+00 0. -1.
          2   -1    0    0  502    0 -0.00000000000E+00 -0.00000000000E+00 -0.37058985099E+03  0.37058985099E+03  0.00000000000E+00 0. -1.
         24    2    1    2    0    0  0.20852578206E+02  0.82933679352E+01  0.12160688905E+02  0.98164699165E+02  0.94788268461E+02 0.  0.
         23    2    1    2    0    0  0.20515034475E+02 -0.66098990958E+01 -0.22968541684E+03  0.24842515099E+03  0.92168907596E+02 0.  0.
        -11    1    3    3    0    0 -0.25412234280E+02 -0.23270213583E+02  0.22581632176E+02  0.41197264509E+02  0.00000000000E+00 0.  1.
         12    1    3    3    0    0  0.46264812486E+02  0.31563581518E+02 -0.10420943271E+02  0.56967434656E+02  0.00000000000E+00 0. -1.
        -11    1    4    4    0    0  0.42468989171E+00  0.41963593741E+02 -0.95647889561E+02  0.10444923331E+03  0.00000000000E+00 0.  1.
         11    1    4    4    0    0  0.20090344583E+02 -0.48573492837E+02 -0.13403752728E+03  0.14397591768E+03  0.00000000000E+00 0. -1.
         21    1    1    2  503  501  0.65116816364E+01  0.26697034344E+02  0.32493082889E+02  0.42555071097E+02  0.00000000000E+00 0.  1.
          1    1    1    2  501    0 -0.47879294318E+02 -0.28380503183E+02 -0.74226652815E+02  0.92776482868E+02  0.00000000000E+00 0. -1.
<scales pt_clust_5="13000.00000" pt_clust_6="13000.00000" pt_clust_7="13000.00000" pt_clust_8="13000.00000" pt_clust_9="27.47970" pt_clust_10="13000.00000"></scales>
<clustering>
<clus scale="   27.480">  1  9  2 -1</clus>
<clus scale="   92.169">  7  8 -1 -1</clus>
<clus scale="   53.301">  7 10 -1 -1</clus>
<clus scale="   94.788">  5  6 -1 -1</clus>
<clus scale="  102.197">  2  5  1 -1</clus>
<clus scale="   27.480">  1  5  2 -1</clus>
</clustering>
</event>
<event>
10    4  0.7508634E-005  0.2017607E+03  0.7546771E-02  0.1167429E+00
         21   -1    0    0  503  502  0.00000000000E+00  0.00000000000E+00  0.44572550326E+02  0.44572550326E+02  0.00000000000E+00 0.  1.
          2   -1    0    0  502    0 -0.00000000000E+00 -0.00000000000E+00 -0.88364871218E+03  0.88364871218E+03  0.00000000000E+00 0. -1.
         24    2    1    2    0    0  0.63379733789E+02 -0.87133347637E+02 -0.23674065184E+03  0.27180557267E+03  0.78885500409E+02 0.  0.
         23    2    1    2    0    0  0.15758925749E+02  0.56629347017E+02 -0.15417321611E+03  0.18923396653E+03  0.92654664407E+02 0.  0.
        -13    1    3    3    0    0 -0.27477005096E+01 -0.45597743695E+02 -0.42250204174E+02  0.62223659816E+02  0.00000000000E+00 0.  1.
         14    1    3    3    0    0  0.66127434299E+02 -0.41535603942E+02 -0.19449044766E+03  0.20958191285E+03  0.00000000000E+00 0. -1.
        -13    1    4    4    0    0 -0.31976912136E+02 -0.43342079641E+01 -0.47352929794E+02  0.57302776796E+02  0.00000000000E+00 0. -1.
         13    1    4    4    0    0  0.47735837885E+02  0.60963554981E+02 -0.10682028632E+03  0.13193118973E+03  0.00000000000E+00 0.  1.
         21    1    1    2  503  501 -0.53648581535E+02 -0.15827122865E+02 -0.96282723463E+02  0.11135093604E+03  0.00000000000E+00 0.  1.
          1    1    1    2  501    0 -0.25490078003E+02  0.46331123486E+02 -0.35187957044E+03  0.35583078728E+03  0.00000000000E+00 0. -1.
<scales pt_clust_5="13000.00000" pt_clust_6="13000.00000" pt_clust_7="13000.00000" pt_clust_8="13000.00000" pt_clust_9="55.93450" pt_clust_10="13000.00000"></scales>
<clustering>
<clus scale="   55.934">  1  9  2 -1</clus>
<clus scale="   78.886">  5  6 -1 -1</clus>
<clus scale="   92.655">  7  8 -1 -1</clus>
<clus scale="   53.599">  7 10 -1 -1</clus>
<clus scale="  128.917">  2  5  1 -1</clus>
<clus scale="   55.934">  1  5  2 -1</clus>
</clustering>
</event>
<event>
10    4  0.7508634E-005  0.1376495E+03  0.7546771E-02  0.1229986E+00
         21   -1    0    0  503  502  0.00000000000E+00  0.00000000000E+00  0.42269229715E+03  0.42269229715E+03  0.00000000000E+00 0. -1.
          2   -1    0    0  502    0 -0.00000000000E+00 -0.00000000000E+00 -0.44148742627E+03  0.44148742627E+03  0.00000000000E+00 0. -1.
         24    2    1    2    0    0  0.37548045020E+02 -0.47180330649E+02 -0.30404994463E+03  0.31996548880E+03  0.79345484495E+02 0.  0.
         23    2    1    2    0    0 -0.40223543234E+02  0.54001163989E+02 -0.55149491319E+02  0.12733757468E+03  0.92948009066E+02 0.  0.
        -11    1    3    3    0    0 -0.24343507543E+02 -0.52797490924E+01 -0.74416047342E+02  0.78474392077E+02  0.00000000000E+00 0.  1.
         12    1    3    3    0    0  0.61891552562E+02 -0.41900581556E+02 -0.22963389729E+03  0.24149109672E+03  0.00000000000E+00 0. -1.
        -13    1    4    4    0    0 -0.17476622117E+02  0.69448392435E+02 -0.66370501903E+02  0.97639925519E+02  0.00000000000E+00 0. -1.
         13    1    4    4    0    0 -0.22746921116E+02 -0.15447228447E+02  0.11221010584E+02  0.29697649158E+02  0.00000000000E+00 0.  1.
         21    1    1    2  503  501  0.49278385082E+02 -0.28605141357E+02  0.35800121410E+03  0.36250721737E+03  0.00000000000E+00 0. -1.
          1    1    1    2  501    0 -0.46602886868E+02  0.21784308017E+02 -0.17596907274E+02  0.54369442574E+02  0.00000000000E+00 0. -1.
<scales pt_clust_5="13000.00000" pt_clust_6="13000.00000" pt_clust_7="13000.00000" pt_clust_8="13000.00000" pt_clust_9="56.97906" pt_clust_10="13000.00000"></scales>
<clustering>
<clus scale="   56.979">  1  9  2 -1</clus>
<clus scale="   79.345">  5  6 -1 -1</clus>
<clus scale="   92.948">  7  8 -1 -1</clus>
<clus scale="   34.762">  7 10 -1 -1</clus>
<clus scale="  103.923">  2  5  1 -1</clus>
<clus scale="   56.979">  1  5  2 -1</clus>
</clustering>
</event>
<event>
10    4  0.7508634E-005  0.2409716E+03  0.7546771E-02  0.1143971E+00
          2   -1    0    0  503    0 -0.00000000000E+00  0.00000000000E+00  0.87837360184E+03  0.87837360184E+03  0.00000000000E+00 0. -1.
         21   -1    0    0  501  502  0.00000000000E+00 -0.00000000000E+00 -0.48101401617E+02  0.48101401617E+02  0.00000000000E+00 0. -1.
         24    2    1    2    0    0  0.88004207571E+01  0.11722831468E+03  0.24296770586E+03  0.28114507170E+03  0.78672231976E+02 0.  0.
         23    2    1    2    0    0 -0.63635984574E+02 -0.11046603407E+03  0.27591812088E+03  0.31716845867E+03  0.90624160868E+02 0.  0.
        -13    1    3    3    0    0  0.18068318089E+02  0.98207685591E+02  0.23978820404E+03  0.25974910283E+03  0.00000000000E+00 0.  1.
         14    1    3    3    0    0 -0.92678973321E+01  0.19020629094E+02  0.31795018218E+01  0.21395968870E+02  0.00000000000E+00 0. -1.
        -11    1    4    4    0    0 -0.77035760849E+02 -0.45366593072E+02  0.14500882178E+03  0.17035314676E+03  0.00000000000E+00 0. -1.
         11    1    4    4    0    0  0.13399776276E+02 -0.65099440994E+02  0.13090929910E+03  0.14681531192E+03  0.00000000000E+00 0.  1.
         21    1    1    2  503  502 -0.94292099161E+00 -0.28252408847E+02  0.33101843995E+02  0.43529527697E+02  0.00000000000E+00 0.  1.
          1    1    1    2  501    0  0.55778484808E+02  0.21490128229E+02  0.27828452949E+03  0.28463194539E+03  0.00000000000E+00 0. -1.
<scales pt_clust_5="13000.00000" pt_clust_6="13000.00000" pt_clust_7="13000.00000" pt_clust_8="13000.00000" pt_clust_9="28.26814" pt_clust_10="13000.00000"></scales>
<clustering>
<clus scale="   28.268">  2  9  1 -1</clus>
<clus scale="   78.672">  5  6 -1 -1</clus>
<clus scale="   90.624">  7  8 -1 -1</clus>
<clus scale="   58.990">  7 10 -1 -1</clus>
<clus scale="  131.194">  1  5  2 -1</clus>
<clus scale="   28.268">  2  5  1 -1</clus>
</clustering>
</event>
<event>
10    4  0.7508634E-005  0.2386008E+03  0.7546771E-02  0.1161909E+00
          2   -1    0    0  503    0 -0.00000000000E+00  0.00000000000E+00  0.14980590539E+03  0.14980590539E+03  0.00000000000E+00 0. -1.
         21   -1    0    0  501  502  0.00000000000E+00 -0.00000000000E+00 -0.45232791876E+03  0.45232791876E+03  0.00000000000E+00 0. -1.
         24    2    1    2    0    0  0.12565032205E+02 -0.46607114324E+02  0.83826215918E+02  0.12219470667E+03  0.74663302390E+02 0.  0.
         23    2    1    2    0    0  0.29210945323E+02  0.93614246938E+02 -0.11578556571E+03  0.17732069992E+03  0.91757434773E+02 0.  0.
        -13    1    3    3    0    0  0.28568531458E+02 -0.60318266021E+01  0.17525633586E+01  0.29250904262E+02  0.00000000000E+00 0.  1.
         14    1    3    3    0    0 -0.16003499253E+02 -0.40575287722E+02  0.82073652560E+02  0.92943802411E+02  0.00000000000E+00 0. -1.
        -11    1    4    4    0    0  0.23810120480E+02 -0.12503360150E+02 -0.14631145710E+02  0.30615784770E+02  0.00000000000E+00 0. -1.
         11    1    4    4    0    0  0.54008248431E+01  0.10611760709E+03 -0.10115442000E+03  0.14670491515E+03  0.00000000000E+00 0.  1.
         21    1    1    2  503  502 -0.27993070657E+02  0.86447420046E+01 -0.35406816219E+01  0.29510675957E+02  0.00000000000E+00 0.  1.
          1    1    1    2  501    0 -0.13782906871E+02 -0.55651874618E+02 -0.26702198196E+03  0.27310774160E+03  0.00000000000E+00 0. -1.
<scales pt_clust_5="13000.00000" pt_clust_6="13000.00000" pt_clust_7="13000.00000" pt_clust_8="13000.00000" pt_clust_9="29.29752" pt_clust_10="13000.00000"></scales>
<clustering>
<clus scale="   29.298">  2  9  1 -1</clus>
<clus scale="   74.663">  5  6 -1 -1</clus>
<clus scale="   88.543">  1  5  2 -1</clus>
<clus scale="   91.757">  7  8 -1 -1</clus>
<clus scale="   68.559">  7 10 -1 -1</clus>
<clus scale="   29.298">  2  5  1 -1</clus>
</clustering>
</event>
<event>
10    4  0.7508634E-005  0.6212748E+03  0.7546771E-02  0.1015892E+00
         21   -1    0    0  503  502  0.00000000000E+00  0.00000000000E+00  0.13005629050E+03  0.13005629050E+03  0.00000000000E+00 0. -1.
          2   -1    0    0  502    0 -0.00000000000E+00 -0.00000000000E+00 -0.17088814319E+04  0.17088814319E+04  0.00000000000E+00 0. -1.
         24    2    1    2    0    0 -0.81601332948E+01 -0.22617059582E+03 -0.62502137168E+03  0.66972252952E+03  0.81589370042E+02 0.  0.
         23    2    1    2    0    0  0.26434261250E+03  0.20559689716E+03 -0.31592346883E+03  0.46948927105E+03  0.92007807081E+02 0.  0.
        -11    1    3    3    0    0  0.10889476040E+02 -0.19738707907E+03 -0.58144449487E+03  0.61413185904E+03  0.00000000000E+00 0.  1.
         12    1    3    3    0    0 -0.19049609335E+02 -0.28783516747E+02 -0.43576876811E+02  0.55590670483E+02  0.00000000000E+00 0. -1.
        -13    1    4    4    0    0  0.57201869131E+02  0.62344682933E+01 -0.74081662011E+02  0.93803065373E+02  0.00000000000E+00 0.  1.
         13    1    4    4    0    0  0.20714074337E+03  0.19936242887E+03 -0.24184180682E+03  0.37568620567E+03  0.00000000000E+00 0. -1.
         21    1    1    2  503  501 -0.36459489119E+02 -0.19359084128E+02 -0.27054381339E+02  0.49355932113E+02  0.00000000000E+00 0.  1.
          1    1    1    2  501    0 -0.21972299009E+03  0.39932782785E+02 -0.61082591952E+03  0.65036998968E+03  0.00000000000E+00 0. -1.
<scales pt_clust_5="13000.00000" pt_clust_6="13000.00000" pt_clust_7="13000.00000" pt_clust_8="13000.00000" pt_clust_9="41.28036" pt_clust_10="13000.00000"></scales>
<clustering>
<clus scale="   41.280">  1  9  2 -1</clus>
<clus scale="   81.589">  5  6 -1 -1</clus>
<clus scale="   92.008">  7  8 -1 -1</clus>
<clus scale="  228.751">  7 10 -1 -1</clus>
<clus scale="  244.325">  2  5  1 -1</clus>
<clus scale="   41.280">  1  5  2 -1</clus>
</clustering>
</event>
<event>
10    4  0.7508634E-005  0.6568742E+03  0.7546771E-02  0.9904061E-01
         21   -1    0    0  503  502  0.00000000000E+00  0.00000000000E+00  0.61254324225E+03  0.61254324225E+03  0.00000000000E+00 0.  1.
          2   -1    0    0  502    0 -0.00000000000E+00 -0.00000000000E+00 -0.66642662221E+03  0.66642662221E+03  0.00000000000E+00 0. -1.
         24    2    1    2    0    0  0.15971910570E+03 -0.39910335038E+03  0.10304278009E+03  0.44941133772E+03  0.80988017222E+02 0.  0.
         23    2    1    2    0    0  0.85056376773E+02 -0.10173158536E+02  0.34373316591E+02  0.13027893351E+03  0.91940172065E+02 0.  0.
        -11    1    3    3    0    0  0.14560185374E+03 -0.34130602885E+03  0.59783969543E+02  0.37585080572E+03  0.00000000000E+00 0.  1.
         12    1    3    3    0    0  0.14117251955E+02 -0.57797321522E+02  0.43258810546E+02  0.73560531997E+02  0.00000000000E+00 0. -1.
        -13    1    4    4    0    0  0.10498321297E+03 -0.51846368991E+01  0.29348442444E+02  0.10913151029E+03  0.00000000000E+00 0.  1.
         13    1    4    4    0    0 -0.19926836192E+02 -0.49885216370E+01  0.50248741473E+01  0.21147423223E+02  0.00000000000E+00 0. -1.
         21    1    1    2  503  501 -0.28244070995E+02 -0.53841216191E+02  0.95409061971E+02  0.11313484527E+03  0.00000000000E+00 0.  1.
          1    1    1    2  501    0 -0.21653141148E+03  0.46311772510E+03 -0.28670853860E+03  0.58614474797E+03  0.00000000000E+00 0. -1.
<scales pt_clust_5="13000.00000" pt_clust_6="13000.00000" pt_clust_7="13000.00000" pt_clust_8="13000.00000" pt_clust_9="60.79970" pt_clust_10="13000.00000"></scales>
<clustering>
<clus scale="   60.800">  1  9  2 -1</clus>
<clus scale="   80.988">  5  6 -1 -1</clus>
<clus scale="   91.940">  7  8 -1 -1</clus>
<clus scale="  459.236">  2  5  1 -1</clus>
<clus scale="  114.819">  7 10 -1 -1</clus>
<clus scale="   60.800">  1  5  2 -1</clus>
</clustering>
</event>
<event>
10    4  0.7508634E-005  0.4109220E+03  0.7546771E-02  0.1094508E+00
          2   -1    0    0  503    0 -0.00000000000E+00  0.00000000000E+00  0.14197629779E+04  0.14197629779E+04  0.00000000000E+00 0. -1.
         21   -1    0    0  501  502  0.00000000000E+00 -0.00000000000E+00 -0.50246559786E+02  0.50246559786E+02  0.00000000000E+00 0. -1.
         24    2    1    2    0    0 -0.26352504262E+02 -0.34223893174E+02  0.35187973664E+03  0.36386627897E+03  0.81936503252E+02 0.  0.
         23    2    1    2    0    0  0.72956659244E+02  0.16924050779E+03  0.76882257806E+03  0.79552670338E+03  0.88371690352E+02 0.  0.
        -13    1    3    3    0    0  0.26442713572E+02  0.49404721790E+00  0.66315271275E+02  0.71394512310E+02  0.00000000000E+00 0.  1.
         14    1    3    3    0    0 -0.52795217834E+02 -0.34717940392E+02  0.28556446537E+03  0.29247176666E+03  0.00000000000E+00 0. -1.
        -13    1    4    4    0    0  0.35409324561E+02  0.13858498188E+03  0.67425554714E+03  0.68926058955E+03  0.00000000000E+00 0.  1.
         13    1    4    4    0    0  0.37547334684E+02  0.30655525905E+02  0.94567030924E+02  0.10626611383E+03  0.00000000000E+00 0. -1.
         21    1    1    2  503  502  0.11361759186E+02  0.18561773992E+02  0.30783716481E+02  0.37699684693E+02  0.00000000000E+00 0. -1.
          1    1    1    2  501    0 -0.57965914169E+02 -0.15357838861E+03  0.21803038689E+03  0.27291687060E+03  0.00000000000E+00 0. -1.
<scales pt_clust_5="13000.00000" pt_clust_6="13000.00000" pt_clust_7="13000.00000" pt_clust_8="13000.00000" pt_clust_9="21.76302" pt_clust_10="13000.00000"></scales>
<clustering>
<clus scale="   21.763">  2  9  1 -1</clus>
<clus scale="   81.937">  5  6 -1 -1</clus>
<clus scale="   88.372">  7  8 -1 -1</clus>
<clus scale="   91.365">  1  5  2 -1</clus>
<clus scale="  160.053">  7 10 -1 -1</clus>
<clus scale="   21.763">  2  5  1 -1</clus>
</clustering>
</event>
<event>
10    4  0.7508634E-005  0.2700417E+03  0.7546771E-02  0.1118479E+00
          2   -1    0    0  502    0 -0.00000000000E+00  0.00000000000E+00  0.94277798680E+03  0.94277798680E+03  0.00000000000E+00 0. -1.
         21   -1    0    0  503  502  0.00000000000E+00 -0.00000000000E+00 -0.76503790807E+02  0.76503790807E+02  0.00000000000E+00 0. -1.
         24    2    1    2    0    0  0.17763725438E+03  0.53271118835E+02  0.19989283378E+03  0.28364458301E+03  0.78130008500E+02 0.  0.
         23    2    1    2    0    0 -0.42475201512E+02 -0.49195327873E+02  0.10674997005E+03  0.15285967725E+03  0.88012509309E+02 0.  0.
        -13    1    3    3    0    0  0.86189569919E+02  0.39054506273E+02  0.48815242124E+02  0.10647452412E+03  0.00000000000E+00 0.  1.
         14    1    3    3    0    0  0.91447684465E+02  0.14216612562E+02  0.15107759166E+03  0.17717005889E+03  0.00000000000E+00 0. -1.
        -13    1    4    4    0    0 -0.24012712980E+02 -0.60239640159E+02  0.11314836747E+03  0.13041463757E+03  0.00000000000E+00 0.  1.
         13    1    4    4    0    0 -0.18462488532E+02  0.11044312287E+02 -0.63983974197E+01  0.22445039679E+02  0.00000000000E+00 0. -1.
         21    1    1    2  503  501 -0.46728569604E+02 -0.15345858353E+02  0.72840544129E+02  0.87890838287E+02  0.00000000000E+00 0. -1.
          1    1    1    2  501    0 -0.88433483269E+02  0.11270067391E+02  0.48679084803E+03  0.49488667905E+03  0.00000000000E+00 0. -1.
<scales pt_clust_5="13000.00000" pt_clust_6="13000.00000" pt_clust_7="13000.00000" pt_clust_8="13000.00000" pt_clust_9="49.18389" pt_clust_10="13000.00000"></scales>
<clustering>
<clus scale="   49.184">  2  9  1 -1</clus>
<clus scale="   78.130">  5  6 -1 -1</clus>
<clus scale="   88.013">  7  8 -1 -1</clus>
<clus scale="   91.764">  7 10 -1 -1</clus>
<clus scale="  174.120">  1  5  2 -1</clus>
<clus scale="   49.184">  2  5  1 -1</clus>
</clustering>
</event>
<event>
10    4  0.7508634E-005  0.2117970E+03  0.7546771E-02  0.1181016E+00
         21   -1    0    0  501  502  0.00000000000E+00  0.00000000000E+00  0.65311493825E+02  0.65311493825E+02  0.00000000000E+00 0. -1.
          2   -1    0    0  503    0 -0.00000000000E+00 -0.00000000000E+00 -0.82964262117E+03  0.82964262117E+03  0.00000000000E+00 0. -1.
         24    2    1    2    0    0  0.12070529458E+02 -0.15532323311E+02 -0.24811824126E+03  0.26127350505E+03  0.79462142224E+02 0.  0.
         23    2    1    2    0    0 -0.76658438932E+02  0.34091780789E+02 -0.17203256650E+03  0.21225730227E+03  0.91756158680E+02 0.  0.
        -11    1    3    3    0    0  0.43453428386E+02 -0.47701155314E+01 -0.18350893417E+03  0.18864380022E+03  0.00000000000E+00 0.  1.
         12    1    3    3    0    0 -0.31382898927E+02 -0.10762207779E+02 -0.64609307086E+02  0.72629704829E+02  0.00000000000E+00 0. -1.
        -11    1    4    4    0    0  0.20268504613E+02 -0.24139179982E+01 -0.22770934379E+02  0.30580299734E+02  0.00000000000E+00 0.  1.
         11    1    4    4    0    0 -0.96926943545E+02  0.36505698787E+02 -0.14926163212E+03  0.18167700254E+03  0.00000000000E+00 0. -1.
         21    1    1    2  503  502  0.98849664786E+02 -0.10634537139E+03 -0.24366247447E+03  0.28364061012E+03  0.00000000000E+00 0. -1.
          1    1    1    2  501    0 -0.34261755313E+02  0.87785913909E+02 -0.10051784512E+03  0.13778269755E+03  0.00000000000E+00 0. -1.
<scales pt_clust_5="13000.00000" pt_clust_6="13000.00000" pt_clust_7="13000.00000" pt_clust_8="13000.00000" pt_clust_9="154.17910" pt_clust_10="13000.00000"></scales>
<clustering>
<clus scale="   79.462">  5  6 -1 -1</clus>
<clus scale="   81.861">  2  5  1 -1</clus>
<clus scale="   91.756">  7  8 -1 -1</clus>
<clus scale="   90.334">  7 10 -1 -1</clus>
<clus scale="  154.179">  1  9  2 -1</clus>
<clus scale="  154.179">  1  5  2 -1</clus>
</clustering>
</event>
<event>
10    4  0.7508634E-005  0.1786682E+03  0.7546771E-02  0.1198662E+00
         21   -1    0    0  503  502  0.00000000000E+00  0.00000000000E+00  0.78603549980E+03  0.78603549980E+03  0.00000000000E+00 0. -1.
          2   -1    0    0  502    0 -0.00000000000E+00 -0.00000000000E+00 -0.30704525733E+02  0.30704525733E+02  0.00000000000E+00 0. -1.
         24    2    1    2    0    0 -0.46722307317E+02  0.10484162108E+02  0.17629253550E+03  0.19983206031E+03  0.80999398758E+02 0.  0.
         23    2    1    2    0    0 -0.13138208857E+02  0.56069694149E+02  0.21623523265E+03  0.24190771018E+03  0.91897993839E+02 0.  0.
        -11    1    3    3    0    0 -0.52230832796E+02  0.10789290062E+02  0.49017312042E+02  0.72437321558E+02  0.00000000000E+00 0.  1.
         12    1    3    3    0    0  0.55085254792E+01 -0.30512795452E+00  0.12727522345E+03  0.12739473875E+03  0.00000000000E+00 0. -1.
        -13    1    4    4    0    0  0.37000910398E+02  0.37852827979E+02  0.13180150697E+03  0.14203359179E+03  0.00000000000E+00 0.  1.
         13    1    4    4    0    0 -0.50139119255E+02  0.18216866170E+02  0.84433725683E+02  0.99874118396E+02  0.00000000000E+00 0. -1.
         21    1    1    2  503  501  0.84627754200E+01 -0.27067896618E+02  0.14545394885E+03  0.14819291761E+03  0.00000000000E+00 0. -1.
          1    1    1    2  501    0  0.51397740753E+02 -0.39485959639E+02  0.21734925706E+03  0.22680733742E+03  0.00000000000E+00 0. -1.
<scales pt_clust_5="13000.00000" pt_clust_6="13000.00000" pt_clust_7="13000.00000" pt_clust_8="13000.00000" pt_clust_9="28.36000" pt_clust_10="13000.00000"></scales>
<clustering>
<clus scale="   28.360">  1  9  2 -1</clus>
<clus scale="   80.999">  5  6 -1 -1</clus>
<clus scale="   91.898">  7  8 -1 -1</clus>
<clus scale="   73.095">  7 10 -1 -1</clus>
<clus scale="   92.324">  2  5  1 -1</clus>
<clus scale="   28.360">  1  5  2 -1</clus>
</clustering>
</event>
<event>
10    4  0.7508634E-005  0.4117534E+03  0.7546771E-02  0.1095740E+00
          2   -1    0    0  503    0 -0.00000000000E+00  0.00000000000E+00  0.69816103248E+03  0.69816103248E+03  0.00000000000E+00 0. -1.
         21   -1    0    0  501  502  0.00000000000E+00 -0.00000000000E+00 -0.20428086266E+03  0.20428086266E+03  0.00000000000E+00 0. -1.
         24    2    1    2    0    0  0.36701740205E+02  0.55688106832E+00  0.15917526211E+03  0.18184758532E+03  0.79902768223E+02 0.  0.
         23    2    1    2    0    0 -0.86571757202E+02 -0.40804638349E+02  0.19979758554E+03  0.23973568173E+03  0.91621145201E+02 0.  0.
        -11    1    3    3    0    0 -0.66437845384E+01  0.23481972359E+02  0.12964890251E+02  0.27633879172E+02  0.00000000000E+00 0.  1.
         12    1    3    3    0    0  0.43345524743E+02 -0.22925091291E+02  0.14621037186E+03  0.15421370615E+03  0.00000000000E+00 0. -1.
        -11    1    4    4    0    0 -0.42871281477E+02  0.11069151132E+02  0.14774379588E+03  0.15423586516E+03  0.00000000000E+00 0. -1.
         11    1    4    4    0    0 -0.43700475725E+02 -0.51873789481E+02  0.52053789664E+02  0.85499816562E+02  0.00000000000E+00 0.  1.
         21    1    1    2  503  502  0.54866203772E+02 -0.20705033512E+03  0.63176190105E+02  0.22331899289E+03  0.00000000000E+00 0. -1.
          1    1    1    2  501    0 -0.49961867748E+01  0.24729809240E+03  0.71731132066E+02  0.25753963519E+03  0.00000000000E+00 0. -1.
<scales pt_clust_5="13000.00000" pt_clust_6="13000.00000" pt_clust_7="13000.00000" pt_clust_8="13000.00000" pt_clust_9="216.81835" pt_clust_10="13000.00000"></scales>
<clustering>
<clus scale="   79.903">  5  6 -1 -1</clus>
<clus scale="   87.931">  1  5  2 -1</clus>
<clus scale="   91.621">  7  8 -1 -1</clus>
<clus scale="  216.818">  2  9  1 -1</clus>
<clus scale="  100.213">  7 10 -1 -1</clus>
<clus scale="  216.818">  2  5  1 -1</clus>
</clustering>
</event>
<event>
10    4  0.1757650E-004  0.3185214E+03  0.7546771E-02  0.1114580E+00
          2   -1    0    0  503    0 -0.00000000000E+00  0.00000000000E+00  0.10811246296E+04  0.10811246296E+04  0.00000000000E+00 0. -1.
         21   -1    0    0  501  502  0.00000000000E+00 -0.00000000000E+00 -0.44206178987E+03  0.44206178987E+03  0.00000000000E+00 0.  1.
         24    2    1    2    0    0  0.26880984230E+01  0.90248099304E+02  0.16657099367E+03  0.20357959812E+03  0.74476919506E+02 0.  0.
         23    2    1    2    0    0 -0.62511278747E+01  0.55857354637E+02  0.25530306175E+03  0.27630640190E+03  0.89478789251E+02 0.  0.
        -13    1    3    3    0    0 -0.28243891551E+02  0.27132881006E+02  0.97334028498E+02  0.10491817643E+03  0.00000000000E+00 0.  1.
         14    1    3    3    0    0  0.30931989974E+02  0.63115218298E+02  0.69236965171E+02  0.98661421694E+02  0.00000000000E+00 0. -1.
        -13    1    4    4    0    0  0.24945180325E+02 -0.97638216483E+01  0.33428272861E+02  0.42837409598E+02  0.00000000000E+00 0.  1.
         13    1    4    4    0    0 -0.31196308200E+02  0.65621176285E+02  0.22187478889E+03  0.23346899230E+03  0.00000000000E+00 0. -1.
         21    1    1    2  503  502  0.71636715859E+02  0.95151688401E+02 -0.37861647227E+03  0.39690817066E+03  0.00000000000E+00 0.  1.
          1    1    1    2  501    0 -0.68073686407E+02 -0.24125714234E+03  0.59580525657E+03  0.64639224877E+03  0.00000000000E+00 0. -1.
<scales pt_clust_5="13000.00000" pt_clust_6="13000.00000" pt_clust_7="13000.00000" pt_clust_8="13000.00000" pt_clust_9="119.85717" pt_clust_10="13000.00000"></scales>
<clustering>
<clus scale="   74.477">  5  6 -1 -1</clus>
<clus scale="   89.479">  7  8 -1 -1</clus>
<clus scale="  117.042">  1  5  2 -1</clus>
<clus scale="  119.857">  2  9  1 -1</clus>
<clus scale="  132.142">  7 10 -1 -1</clus>
<clus scale="  119.857">  2  5  1 -1</clus>
</clustering>
</event>
<event>
10    4  0.7508634E-005  0.1706296E+03  0.7546771E-02  0.1206828E+00
         21   -1    0    0  503  502  0.00000000000E+00  0.00000000000E+00  0.49689657719E+02  0.49689657719E+02  0.00000000000E+00 0. -1.
          2   -1    0    0  502    0 -0.00000000000E+00 -0.00000000000E+00 -0.47538399005E+03  0.47538399005E+03  0.00000000000E+00 0. -1.
         24    2    1    2    0    0 -0.43181849439E+02  0.75606754828E+01 -0.10096103388E+03  0.13621352862E+03  0.80244371035E+02 0.  0.
         23    2    1    2    0    0 -0.34655615556E+02 -0.28812663094E+02 -0.14611588104E+03  0.17826758206E+03  0.91642233036E+02 0.  0.
        -13    1    3    3    0    0 -0.42287817338E+02  0.39266383655E+02 -0.78138545484E+02  0.97137740713E+02  0.00000000000E+00 0.  1.
         14    1    3    3    0    0 -0.89403210113E+00 -0.31705708172E+02 -0.22822488399E+02  0.39075787910E+02  0.00000000000E+00 0. -1.
        -11    1    4    4    0    0 -0.25473426013E+02  0.59354058839E+01  0.16363035471E+01  0.26206906821E+02  0.00000000000E+00 0. -1.
         11    1    4    4    0    0 -0.91821895430E+01 -0.34748068978E+02 -0.14775218459E+03  0.15206067523E+03  0.00000000000E+00 0.  1.
         21    1    1    2  503  501  0.18013520491E+02  0.16769754456E+02 -0.27378803279E+01  0.24763028363E+02  0.00000000000E+00 0. -1.
          1    1    1    2  501    0  0.59823944504E+02  0.44822331553E+01 -0.17587953708E+03  0.18582950873E+03  0.00000000000E+00 0. -1.
<scales pt_clust_5="13000.00000" pt_clust_6="13000.00000" pt_clust_7="13000.00000" pt_clust_8="13000.00000" pt_clust_9="24.61121" pt_clust_10="13000.00000"></scales>
<clustering>
<clus scale="   24.611">  1  9  2 -1</clus>
<clus scale="   80.244">  5  6 -1 -1</clus>
<clus scale="   88.845">  2  5  1 -1</clus>
<clus scale="   91.642">  7  8 -1 -1</clus>
<clus scale="   45.275">  7 10 -1 -1</clus>
<clus scale="   24.611">  1  5  2 -1</clus>
</clustering>
</event>
<event>
10    4  0.7508634E-005  0.3292277E+03  0.7546771E-02  0.1103261E+00
         21   -1    0    0  503  502  0.00000000000E+00  0.00000000000E+00  0.72757558199E+03  0.72757558199E+03  0.00000000000E+00 0. -1.
          2   -1    0    0  502    0 -0.00000000000E+00 -0.00000000000E+00 -0.10665076672E+03  0.10665076672E+03  0.00000000000E+00 0. -1.
         24    2    1    2    0    0  0.12284332782E+02  0.10444170614E+03  0.61694446011E+02  0.14990237415E+03  0.87209760315E+02 0.  0.
         23    2    1    2    0    0  0.42487911186E+02 -0.69889555045E+02  0.42536637754E+03  0.44263619384E+03  0.91106928699E+02 0.  0.
        -11    1    3    3    0    0 -0.20660956356E+02  0.65572066282E+01  0.38295720420E+02  0.44004934710E+02  0.00000000000E+00 0.  1.
         12    1    3    3    0    0  0.32945289138E+02  0.97884499510E+02  0.23398725591E+02  0.10589743944E+03  0.00000000000E+00 0. -1.
        -11    1    4    4    0    0  0.14902620700E+02  0.16882769065E+02  0.33741785263E+02  0.40566292260E+02  0.00000000000E+00 0.  1.
         11    1    4    4    0    0  0.27585290486E+02 -0.86772324109E+02  0.39162459227E+03  0.40206990158E+03  0.00000000000E+00 0. -1.
         21    1    1    2  503  501  0.22287949834E+02  0.32281722207E+02  0.13406094264E+03  0.13968249224E+03  0.00000000000E+00 0.  1.
          1    1    1    2  501    0 -0.77060193803E+02 -0.66833873301E+02 -0.19695092138E+00  0.10200528849E+03  0.00000000000E+00 0. -1.
<scales pt_clust_5="13000.00000" pt_clust_6="13000.00000" pt_clust_7="13000.00000" pt_clust_8="13000.00000" pt_clust_9="39.22834" pt_clust_10="13000.00000"></scales>
<clustering>
<clus scale="   39.228">  1  9  2 -1</clus>
<clus scale="   87.210">  5  6 -1 -1</clus>
<clus scale="   91.107">  7  8 -1 -1</clus>
<clus scale="   98.735">  7 10 -1 -1</clus>
<clus scale="  141.491">  2  5  1 -1</clus>
<clus scale="   39.228">  1  5  2 -1</clus>
</clustering>
</event>
<event>
10    4  0.7508634E-005  0.3927881E+03  0.7546771E-02  0.1066209E+00
         21   -1    0    0  501  502  0.00000000000E+00  0.00000000000E+00  0.18309983059E+03  0.18309983059E+03  0.00000000000E+00 0.  1.
          2   -1    0    0  503    0 -0.00000000000E+00 -0.00000000000E+00 -0.10281112684E+04  0.10281112684E+04  0.00000000000E+00 0. -1.
         24    2    1    2    0    0 -0.75094870010E+02  0.19390250328E+03 -0.50831908616E+03  0.55473172313E+03  0.78112553475E+02 0.  0.
         23    2    1    2    0    0  0.57207133842E+02 -0.16931089810E+03 -0.47473022733E+02  0.20544431323E+03  0.89525647572E+02 0.  0.
        -13    1    3    3    0    0 -0.75934620653E+02  0.10842226035E+03 -0.35968353607E+03  0.38326713827E+03  0.00000000000E+00 0.  1.
         14    1    3    3    0    0  0.83975064347E+00  0.85480242927E+02 -0.14863555009E+03  0.17146458487E+03  0.00000000000E+00 0. -1.
        -11    1    4    4    0    0  0.38597432162E+02 -0.13847874168E+02  0.25201208320E+01  0.41083772922E+02  0.00000000000E+00 0. -1.
         11    1    4    4    0    0  0.18609701680E+02 -0.15546302393E+03 -0.49993143565E+02  0.16436054031E+03  0.00000000000E+00 0.  1.
         21    1    1    2  503  502 -0.73207134651E+02 -0.20832482242E+02  0.55669182841E+02  0.94299177082E+02  0.00000000000E+00 0.  1.
          1    1    1    2  501    0  0.91094870818E+02 -0.37591229357E+01 -0.34488851177E+03  0.35673588556E+03  0.00000000000E+00 0. -1.
<scales pt_clust_5="13000.00000" pt_clust_6="13000.00000" pt_clust_7="13000.00000" pt_clust_8="13000.00000" pt_clust_9="76.11358" pt_clust_10="13000.00000"></scales>
<clustering>
<clus scale="   76.114">  1  9  2 -1</clus>
<clus scale="   78.113">  5  6 -1 -1</clus>
<clus scale="   89.526">  7  8 -1 -1</clus>
<clus scale="   87.222">  7 10 -1 -1</clus>
<clus scale="  224.125">  2  5  1 -1</clus>
<clus scale="   76.114">  1  5  2 -1</clus>
</clustering>
</event>
<event>
10    4  0.7508634E-005  0.1839538E+03  0.7546771E-02  0.1184283E+00
          2   -1    0    0  502    0 -0.00000000000E+00  0.00000000000E+00  0.14484293540E+04  0.14484293540E+04  0.00000000000E+00 0. -1.
         21   -1    0    0  503  502  0.00000000000E+00 -0.00000000000E+00 -0.43500772773E+02  0.43500772773E+02  0.00000000000E+00 0.  1.
         24    2    1    2    0    0 -0.31734927726E+02 -0.83294736829E+02  0.52835394092E+03  0.54124349969E+03  0.76429838762E+02 0.  0.
         23    2    1    2    0    0 -0.76232689033E+02  0.87471039001E+02  0.63821665183E+03  0.65486469227E+03  0.89803479667E+02 0.  0.
        -13    1    3    3    0    0 -0.26654262060E+02 -0.53386267154E+02  0.14649394263E+03  0.15818033517E+03  0.00000000000E+00 0.  1.
         14    1    3    3    0    0 -0.50806656661E+01 -0.29908469675E+02  0.38185999829E+03  0.38306316452E+03  0.00000000000E+00 0. -1.
        -11    1    4    4    0    0 -0.25959245741E+02  0.92390337824E+02  0.43561312590E+03  0.44605902347E+03  0.00000000000E+00 0. -1.
         11    1    4    4    0    0 -0.50273443293E+02 -0.49192988234E+01  0.20260352594E+03  0.20880566880E+03  0.00000000000E+00 0.  1.
         21    1    1    2  503  501  0.65709290658E+02 -0.10164617612E+02  0.14658772837E+02  0.68087516852E+02  0.00000000000E+00 0.  1.
          1    1    1    2  501    0  0.42258326102E+02  0.59883154401E+01  0.22369921562E+03  0.22773441794E+03  0.00000000000E+00 0. -1.
<scales pt_clust_5="13000.00000" pt_clust_6="13000.00000" pt_clust_7="13000.00000" pt_clust_8="13000.00000" pt_clust_9="66.49083" pt_clust_10="13000.00000"></scales>
<clustering>
<clus scale="   66.491">  2  9  1 -1</clus>
<clus scale="   76.430">  5  6 -1 -1</clus>
<clus scale="   89.803">  7  8 -1 -1</clus>
<clus scale="   50.382">  7 10 -1 -1</clus>
<clus scale="  116.134">  1  5  2 -1</clus>
<clus scale="   66.491">  2  5  1 -1</clus>
</clustering>
</event>
<event>
10    4  0.7508634E-005  0.2840941E+03  0.7546771E-02  0.1142411E+00
          2   -1    0    0  503    0 -0.00000000000E+00  0.00000000000E+00  0.12749181324E+04  0.12749181324E+04  0.00000000000E+00 0. -1.
         21   -1    0    0  501  502  0.00000000000E+00 -0.00000000000E+00 -0.34087325070E+02  0.34087325070E+02  0.00000000000E+00 0. -1.
         24    2    1    2    0    0  0.18305731801E+02 -0.12529406342E+02  0.27180455507E+03  0.28427533698E+03  0.80266214670E+02 0.  0.
         23    2    1    2    0    0 -0.96989061691E+02  0.91120789449E+02  0.67847271966E+03  0.69740183809E+03  0.91291927850E+02 0.  0.
        -13    1    3    3    0    0  0.42716759844E+02 -0.16646414209E+02  0.23800071085E+03  0.24237607770E+03  0.00000000000E+00 0.  1.
         14    1    3    3    0    0 -0.24411028043E+02  0.41170078675E+01  0.33803844227E+02  0.41899259282E+02  0.00000000000E+00 0. -1.
        -13    1    4    4    0    0 -0.64313512172E+02 -0.24237993862E+00  0.27782478121E+03  0.28517169503E+03  0.00000000000E+00 0.  1.
         13    1    4    4    0    0 -0.32675549518E+02  0.91363169388E+02  0.40064793845E+03  0.41223014305E+03  0.00000000000E+00 0. -1.
         21    1    1    2  503  502 -0.16106068837E+02 -0.14533582570E+02  0.91252775788E+01  0.23535104984E+02  0.00000000000E+00 0. -1.
          1    1    1    2  501    0  0.94789398727E+02 -0.64057800538E+02  0.28142825500E+03  0.30379317739E+03  0.00000000000E+00 0. -1.
<scales pt_clust_5="13000.00000" pt_clust_6="13000.00000" pt_clust_7="13000.00000" pt_clust_8="13000.00000" pt_clust_9="21.69402" pt_clust_10="13000.00000"></scales>
<clustering>
<clus scale="   21.694">  2  9  1 -1</clus>
<clus scale="   80.266">  5  6 -1 -1</clus>
<clus scale="   83.113">  1  5  2 -1</clus>
<clus scale="   91.292">  7  8 -1 -1</clus>
<clus scale="  118.868">  7 10 -1 -1</clus>
<clus scale="   21.694">  2  5  1 -1</clus>
</clustering>
</event>
<event>
10    4  0.7508634E-005  0.2010788E+03  0.7546771E-02  0.1177241E+00
          2   -1    0    0  502    0 -0.00000000000E+00  0.00000000000E+00  0.15056460911E+03  0.15056460911E+03  0.00000000000E+00 0. -1.
         21   -1    0    0  503  502  0.00000000000E+00 -0.00000000000E+00 -0.30211674004E+03  0.30211674004E+03  0.00000000000E+00 0. -1.
         24    2    1    2    0    0 -0.64211125762E+02  0.36144237975E+02 -0.11846243913E+03  0.16267394875E+03  0.83665939954E+02 0.  0.
         23    2    1    2    0    0 -0.37042558516E+01  0.32179281411E+02  0.70037988778E+02  0.11007698910E+03  0.78500929897E+02 0.  0.
        -11    1    3    3    0    0  0.15702437813E+02  0.18236949688E+02 -0.51652978041E+02  0.56984059418E+02  0.00000000000E+00 0.  1.
         12    1    3    3    0    0 -0.79913563575E+02  0.17907288287E+02 -0.66809461085E+02  0.10568988933E+03  0.00000000000E+00 0. -1.
        -11    1    4    4    0    0  0.29786100268E+02  0.19488346553E+02  0.51557887977E+01  0.35966506345E+02  0.00000000000E+00 0.  1.
         11    1    4    4    0    0 -0.33490356120E+02  0.12690934858E+02  0.64882199980E+02  0.74110482760E+02  0.00000000000E+00 0. -1.
         21    1    1    2  503  501  0.36761171058E+02  0.16517398786E+02 -0.75226052788E+02  0.85341473964E+02  0.00000000000E+00 0. -1.
          1    1    1    2  501    0  0.31154210555E+02 -0.84840918172E+02 -0.27901627794E+02  0.94588937329E+02  0.00000000000E+00 0. -1.
<scales pt_clust_5="13000.00000" pt_clust_6="13000.00000" pt_clust_7="13000.00000" pt_clust_8="13000.00000" pt_clust_9="40.30147" pt_clust_10="13000.00000"></scales>
<clustering>
<clus scale="   40.301">  2  9  1 -1</clus>
<clus scale="   78.501">  7  8 -1 -1</clus>
<clus scale="   83.666">  5  6 -1 -1</clus>
<clus scale="   90.283">  7 10 -1 -1</clus>
<clus scale="  104.148">  1  5  2 -1</clus>
<clus scale="   40.301">  2  5  1 -1</clus>
</clustering>
</event>
<event>
10    4  0.7508634E-005  0.3027274E+03  0.7546771E-02  0.1103130E+00
         21   -1    0    0  501  502  0.00000000000E+00  0.00000000000E+00  0.91248614817E+03  0.91248614817E+03  0.00000000000E+00 0.  1.
          4   -1    0    0  503    0 -0.00000000000E+00 -0.00000000000E+00 -0.11407479183E+03  0.11407479183E+03  0.00000000000E+00 0. -1.
         24    2    1    2    0    0 -0.16649103404E+03 -0.97505831817E+01  0.48805784305E+03  0.52208671657E+03  0.80992241375E+02 0.  0.
         23    2    1    2    0    0  0.12657695546E+02  0.12811044542E+02  0.16781013718E+03  0.19203478739E+03  0.91612102411E+02 0.  0.
        -11    1    3    3    0    0 -0.12744503232E+03 -0.27282453647E+02  0.26929541918E+03  0.29917652203E+03  0.00000000000E+00 0.  1.
         12    1    3    3    0    0 -0.39046001722E+02  0.17531870466E+02  0.21876242387E+03  0.22291019454E+03  0.00000000000E+00 0. -1.
        -13    1    4    4    0    0  0.76938121328E+01 -0.31643584960E+02  0.21457897920E+02  0.38999392269E+02  0.00000000000E+00 0. -1.
         13    1    4    4    0    0  0.49638834129E+01  0.44454629502E+02  0.14635223926E+03  0.15303539512E+03  0.00000000000E+00 0.  1.
         21    1    1    2  503  502  0.11492491431E+02  0.74455557582E+02  0.12952110460E+03  0.14983799235E+03  0.00000000000E+00 0.  1.
          3    1    1    2  501    0  0.14234084706E+03 -0.77516018942E+02  0.13022271507E+02  0.16260144369E+03  0.00000000000E+00 0. -1.
<scales pt_clust_5="13000.00000" pt_clust_6="13000.00000" pt_clust_7="13000.00000" pt_clust_8="13000.00000" pt_clust_9="75.33729" pt_clust_10="13000.00000"></scales>
<clustering>
<clus scale="   75.337">  1  9  2 -1</clus>
<clus scale="   80.992">  5  6 -1 -1</clus>
<clus scale="   91.612">  7  8 -1 -1</clus>
<clus scale="  159.384">  7 10 -1 -1</clus>
<clus scale="  182.616">  2  5  1 -1</clus>
<clus scale="   75.337">  1  5  2 -1</clus>
</clustering>
</event>
<event>
10    4  0.7508634E-005  0.1708638E+03  0.7546771E-02  0.1206240E+00
         21   -1    0    0  501  502  0.00000000000E+00  0.00000000000E+00  0.30773312479E+03  0.30773312479E+03  0.00000000000E+00 0. -1.
          2   -1    0    0  503    0 -0.00000000000E+00 -0.00000000000E+00 -0.17792801077E+03  0.17792801077E+03  0.00000000000E+00 0. -1.
         24    2    1    2    0    0 -0.35235229428E+02  0.15593668898E+02 -0.99345648803E+02  0.13295101257E+03  0.79509307026E+02 0.  0.
         23    2    1    2    0    0  0.67115809802E+02  0.27930534751E+02  0.45629367680E+01  0.11687390043E+03  0.91400445917E+02 0.  0.
        -11    1    3    3    0    0  0.24574643475E+02  0.10415241510E+02 -0.19504148238E+02  0.33057558229E+02  0.00000000000E+00 0.  1.
         12    1    3    3    0    0 -0.59809872903E+02  0.51784273881E+01 -0.79841500565E+02  0.99893454337E+02  0.00000000000E+00 0. -1.
        -11    1    4    4    0    0  0.72885949836E+02 -0.13930796700E+02 -0.12694055786E+01  0.74216171895E+02  0.00000000000E+00 0.  1.
         11    1    4    4    0    0 -0.57701400341E+01  0.41861331451E+02  0.58323423465E+01  0.42657728539E+02  0.00000000000E+00 0. -1.
         21    1    1    2  503  502 -0.30670320405E+02 -0.97031787735E+01  0.15684979441E+03  0.16011457847E+03  0.00000000000E+00 0. -1.
          1    1    1    2  501    0 -0.12102599692E+01 -0.33821024876E+02  0.67738031642E+02  0.75721644089E+02  0.00000000000E+00 0. -1.
<scales pt_clust_5="13000.00000" pt_clust_6="13000.00000" pt_clust_7="13000.00000" pt_clust_8="13000.00000" pt_clust_9="32.16862" pt_clust_10="13000.00000"></scales>
<clustering>
<clus scale="   32.169">  1  9  2 -1</clus>
<clus scale="   79.509">  5  6 -1 -1</clus>
<clus scale="   89.603">  2  5  1 -1</clus>
<clus scale="   91.400">  7  8 -1 -1</clus>
<clus scale="   42.206">  7 10 -1 -1</clus>
<clus scale="   32.169">  1  5  2 -1</clus>
</clustering>
</event>
<event>
10    4  0.7508634E-005  0.3297440E+03  0.7546771E-02  0.1073550E+00
         21   -1    0    0  503  502  0.00000000000E+00  0.00000000000E+00  0.31281591800E+03  0.31281591800E+03  0.00000000000E+00 0. -1.
          2   -1    0    0  502    0 -0.00000000000E+00 -0.00000000000E+00 -0.64841656583E+03  0.64841656583E+03  0.00000000000E+00 0. -1.
         24    2    1    2    0    0  0.63861888784E+02 -0.29381092274E+03 -0.40610905094E+03  0.51164697502E+03  0.80342184655E+02 0.  0.
         23    2    1    2    0    0  0.14869630442E+02  0.16846115389E+03 -0.16186029138E+02  0.19262715452E+03  0.90790786096E+02 0.  0.
        -13    1    3    3    0    0  0.76869849885E+02 -0.16815591461E+03 -0.24067228147E+03  0.30349387557E+03  0.00000000000E+00 0.  1.
         14    1    3    3    0    0 -0.13007961101E+02 -0.12565500813E+03 -0.16543676946E+03  0.20815309945E+03  0.00000000000E+00 0. -1.
        -13    1    4    4    0    0  0.45555861430E+02  0.51690988647E+02 -0.20278908673E+02  0.71822899934E+02  0.00000000000E+00 0. -1.
         13    1    4    4    0    0 -0.30686230988E+02  0.11677016525E+03  0.40928795360E+01  0.12080425459E+03  0.00000000000E+00 0.  1.
         21    1    1    2  503  501 -0.31332087048E+02 -0.25000690424E+00  0.11548467441E+03  0.11965981867E+03  0.00000000000E+00 0.  1.
          1    1    1    2  501    0 -0.47399432177E+02  0.12559977574E+03 -0.28790242156E+02  0.13729853561E+03  0.00000000000E+00 0. -1.
<scales pt_clust_5="13000.00000" pt_clust_6="13000.00000" pt_clust_7="13000.00000" pt_clust_8="13000.00000" pt_clust_9="31.33308" pt_clust_10="13000.00000"></scales>
<clustering>
<clus scale="   31.333">  1  9  2 -1</clus>
<clus scale="   80.342">  5  6 -1 -1</clus>
<clus scale="   90.791">  7  8 -1 -1</clus>
<clus scale="  137.498">  7 10 -1 -1</clus>
<clus scale="  309.658">  2  5  1 -1</clus>
<clus scale="   31.333">  1  5  2 -1</clus>
</clustering>
</event>
<event>
10    4  0.7508634E-005  0.3085110E+03  0.7546771E-02  0.1124191E+00
          2   -1    0    0  502    0 -0.00000000000E+00  0.00000000000E+00  0.56239871526E+03  0.56239871526E+03  0.00000000000E+00 0. -1.
         21   -1    0    0  503  502  0.00000000000E+00 -0.00000000000E+00 -0.86519203597E+02  0.86519203597E+02  0.00000000000E+00 0. -1.
         24    2    1    2    0    0  0.42616097929E+01 -0.41077520950E+02  0.16132020309E+03  0.18983604330E+03  0.91148183539E+02 0.  0.
         23    2    1    2    0    0  0.14118804981E+03  0.34152014831E+02  0.21935829334E+03  0.27656174396E+03  0.85252048892E+02 0.  0.
        -11    1    3    3    0    0  0.22736597638E+02  0.22260567695E+01  0.11327922343E+01  0.22873377957E+02  0.00000000000E+00 0.  1.
         12    1    3    3    0    0 -0.18474987845E+02 -0.43303577720E+02  0.16018741086E+03  0.16696266534E+03  0.00000000000E+00 0. -1.
        -13    1    4    4    0    0  0.34071999205E+02 -0.19364508824E+02  0.10038812941E+03  0.10776670107E+03  0.00000000000E+00 0.  1.
         13    1    4    4    0    0  0.10711605061E+03  0.53516523654E+02  0.11897016393E+03  0.16879504290E+03  0.00000000000E+00 0. -1.
         21    1    1    2  503  501 -0.13638397532E+02 -0.16686111683E+02  0.96279681349E+01  0.23603601012E+02  0.00000000000E+00 0. -1.
          1    1    1    2  501    0 -0.13181126207E+03  0.23611617802E+02  0.85573047098E+02  0.15891653059E+03  0.00000000000E+00 0. -1.
<scales pt_clust_5="13000.00000" pt_clust_6="13000.00000" pt_clust_7="13000.00000" pt_clust_8="13000.00000" pt_clust_9="21.55069" pt_clust_10="13000.00000"></scales>
<clustering>
<clus scale="   21.551">  2  9  1 -1</clus>
<clus scale="   85.252">  7  8 -1 -1</clus>
<clus scale="   91.148">  5  6 -1 -1</clus>
<clus scale="  101.259">  1  5  2 -1</clus>
<clus scale="  137.430">  7 10 -1 -1</clus>
<clus scale="   21.551">  2  5  1 -1</clus>
</clustering>
</event>
<event>
10    4  0.7508634E-005  0.3778849E+03  0.7546771E-02  0.1104557E+00
         -1   -1    0    0    0  501 -0.00000000000E+00  0.00000000000E+00  0.36656686620E+03  0.36656686620E+03  0.00000000000E+00 0.  1.
         21   -1    0    0  503  502  0.00000000000E+00 -0.00000000000E+00 -0.17433265571E+03  0.17433265571E+03  0.00000000000E+00 0.  1.
         24    2    1    2    0    0 -0.33013585190E+02  0.38636154307E+00  0.46258953153E+02  0.99657402551E+02  0.81863673592E+02 0.  0.
         23    2    1    2    0    0 -0.43960702629E+02  0.95165097352E+02  0.19737661724E+03  0.24117979859E+03  0.90670982611E+02 0.  0.
        -13    1    3    3    0    0 -0.58125446421E+02  0.64212535607E+01  0.17582423430E+02  0.61065060653E+02  0.00000000000E+00 0.  1.
         14    1    3    3    0    0  0.25111861231E+02 -0.60348920176E+01  0.28676529723E+02  0.38592341898E+02  0.00000000000E+00 0. -1.
        -11    1    4    4    0    0 -0.13634893110E+02 -0.17108326273E+02  0.38587567723E+02  0.44357699678E+02  0.00000000000E+00 0. -1.
         11    1    4    4    0    0 -0.30325809519E+02  0.11227342362E+03  0.15878904951E+03  0.19682209891E+03  0.00000000000E+00 0.  1.
         21    1    1    2  503  501 -0.33444207023E+02  0.85542214991E+01  0.10624613584E+02  0.36118860761E+02  0.00000000000E+00 0.  1.
         -2    1    1    2    0  502  0.11041849484E+03 -0.10410568039E+03 -0.62025973476E+02  0.16394346001E+03  0.00000000000E+00 0.  1.
<scales pt_clust_5="13000.00000" pt_clust_6="13000.00000" pt_clust_7="13000.00000" pt_clust_8="13000.00000" pt_clust_9="34.52086" pt_clust_10="13000.00000"></scales>
<clustering>
<clus scale="   34.521">  2  9  1 -1</clus>
<clus scale="   81.864">  5  6 -1 -1</clus>
<clus scale="   90.500">  1  5  2 -1</clus>
<clus scale="   90.671">  7  8 -1 -1</clus>
<clus scale="  126.108">  7 10 -1 -1</clus>
<clus scale="   34.521">  2  5  1 -1</clus>
</clustering>
</event>
<event>
10    4  0.7508634E-005  0.4059325E+03  0.7546771E-02  0.1054653E+00
         21   -1    0    0  501  502  0.00000000000E+00  0.00000000000E+00  0.12618987719E+03  0.12618987719E+03  0.00000000000E+00 0. -1.
          2   -1    0    0  503    0 -0.00000000000E+00 -0.00000000000E+00 -0.10961321311E+04  0.10961321311E+04  0.00000000000E+00 0. -1.
         24    2    1    2    0    0 -0.24531767492E+03  0.94420351456E+02 -0.29212317158E+03  0.40132681569E+03  0.81432801845E+02 0.  0.
         23    2    1    2    0    0  0.80189248444E+02  0.71842369525E+02 -0.13833317898E+03  0.19585500274E+03  0.87358297076E+02 0.  0.
        -11    1    3    3    0    0 -0.13014465955E+03  0.81471356134E+01 -0.12286498183E+03  0.17916420399E+03  0.00000000000E+00 0.  1.
         12    1    3    3    0    0 -0.11517301537E+03  0.86273215843E+02 -0.16925818975E+03  0.22216261171E+03  0.00000000000E+00 0. -1.
        -13    1    4    4    0    0  0.94629336750E+02  0.39208648597E+02 -0.94830585369E+02  0.13958821376E+03  0.00000000000E+00 0. -1.
         13    1    4    4    0    0 -0.14440088306E+02  0.32633720928E+02 -0.43502593611E+02  0.56266788986E+02  0.00000000000E+00 0.  1.
         21    1    1    2  503  502 -0.24207579398E+01  0.24097446751E+02  0.47877316103E+01  0.24687433704E+02  0.00000000000E+00 0.  1.
          1    1    1    2  501    0  0.16754918442E+03 -0.19036016773E+03 -0.54427363494E+03  0.60045275614E+03  0.00000000000E+00 0. -1.
<scales pt_clust_5="13000.00000" pt_clust_6="13000.00000" pt_clust_7="13000.00000" pt_clust_8="13000.00000" pt_clust_9="24.21873" pt_clust_10="13000.00000"></scales>
<clustering>
<clus scale="   24.219">  1  9  2 -1</clus>
<clus scale="   81.433">  5  6 -1 -1</clus>
<clus scale="   87.358">  7  8 -1 -1</clus>
<clus scale="  248.657">  7 10 -1 -1</clus>
<clus scale="  280.498">  2  5  1 -1</clus>
<clus scale="   24.219">  1  5  2 -1</clus>
</clustering>
</event>
<event>
10    4  0.7508634E-005  0.4142316E+03  0.7546771E-02  0.1085962E+00
          2   -1    0    0  503    0 -0.00000000000E+00  0.00000000000E+00  0.47560813739E+03  0.47560813739E+03  0.00000000000E+00 0. -1.
         21   -1    0    0  501  502  0.00000000000E+00 -0.00000000000E+00 -0.30044333270E+03  0.30044333270E+03  0.00000000000E+00 0. -1.
         24    2    1    2    0    0  0.32917547917E+02 -0.68064847299E+02  0.29250847960E+03  0.31308591256E+03  0.82129103288E+02 0.  0.
         23    2    1    2    0    0  0.14268976305E+03 -0.73184704983E+02 -0.80185727024E+02  0.20641004258E+03  0.10226918077E+03 0.  0.
        -13    1    3    3    0    0  0.23238769206E+02  0.11212347871E+02  0.35041426929E+02  0.43516189404E+02  0.00000000000E+00 0.  1.
         14    1    3    3    0    0  0.96787787111E+01 -0.79277195170E+02  0.25746705267E+03  0.26956972316E+03  0.00000000000E+00 0. -1.
        -11    1    4    4    0    0  0.92180556229E+02 -0.95611257210E+02 -0.42216033366E+02  0.13935910779E+03  0.00000000000E+00 0. -1.
         11    1    4    4    0    0  0.50509206825E+02  0.22426552227E+02 -0.37969693657E+02  0.67050934783E+02  0.00000000000E+00 0.  1.
         21    1    1    2  503  502 -0.14102210743E+02 -0.14191017742E+02  0.16654390659E+02  0.26031251615E+02  0.00000000000E+00 0.  1.
          1    1    1    2  501    0 -0.16150510023E+03  0.15544057002E+03 -0.53812338546E+02  0.23052426334E+03  0.00000000000E+00 0. -1.
<scales pt_clust_5="13000.00000" pt_clust_6="13000.00000" pt_clust_7="13000.00000" pt_clust_8="13000.00000" pt_clust_9="20.00644" pt_clust_10="13000.00000"></scales>
<clustering>
<clus scale="   20.006">  2  9  1 -1</clus>
<clus scale="   82.129">  5  6 -1 -1</clus>
<clus scale="  102.269">  7  8 -1 -1</clus>
<clus scale="  111.790">  1  5  2 -1</clus>
<clus scale="  186.041">  7 10 -1 -1</clus>
<clus scale="   20.006">  2  5  1 -1</clus>
</clustering>
</event>
<event>
10    4  0.7508634E-005  0.2221528E+03  0.7546771E-02  0.1140741E+00
         21   -1    0    0  503  502  0.00000000000E+00  0.00000000000E+00  0.33150199194E+03  0.33150199194E+03  0.00000000000E+00 0.  1.
          2   -1    0    0  502    0 -0.00000000000E+00 -0.00000000000E+00 -0.46074854539E+03  0.46074854539E+03  0.00000000000E+00 0. -1.
         24    2    1    2    0    0  0.20313643162E+03  0.22728412585E+02 -0.89039098492E+02  0.23700682098E+03  0.80394536768E+02 0.  0.
         23    2    1    2    0    0 -0.58259284898E+02 -0.33055465727E+02 -0.77000874482E+02  0.13706818079E+03  0.91497231780E+02 0.  0.
        -11    1    3    3    0    0  0.83147427511E+02 -0.13228038242E+02 -0.71632145276E+02  0.11054248022E+03  0.00000000000E+00 0.  1.
         12    1    3    3    0    0  0.11998900411E+03  0.35956450827E+02 -0.17406953216E+02  0.12646434076E+03  0.00000000000E+00 0. -1.
        -13    1    4    4    0    0  0.16124406419E+02 -0.35372825704E+02 -0.23694036605E+02  0.45526263314E+02  0.00000000000E+00 0.  1.
         13    1    4    4    0    0 -0.74383691316E+02  0.23173599776E+01 -0.53306837877E+02  0.91541917478E+02  0.00000000000E+00 0. -1.
         21    1    1    2  503  501 -0.81887910885E+02  0.60769922901E+02  0.20647412992E+03  0.23028282569E+03  0.00000000000E+00 0.  1.
          1    1    1    2  501    0 -0.62989235835E+02 -0.50442869759E+02 -0.16968071040E+03  0.18789270987E+03  0.00000000000E+00 0. -1.
<scales pt_clust_5="13000.00000" pt_clust_6="13000.00000" pt_clust_7="13000.00000" pt_clust_8="13000.00000" pt_clust_9="101.97359" pt_clust_10="13000.00000"></scales>
<clustering>
<clus scale="   80.395">  5  6 -1 -1</clus>
<clus scale="   91.497">  7  8 -1 -1</clus>
<clus scale="   80.698">  7 10 -1 -1</clus>
<clus scale="  101.974">  1  9  2 -1</clus>
<clus scale="  180.944">  2  5  1 -1</clus>
<clus scale="  101.974">  1  5  2 -1</clus>
</clustering>
</event>
<event>
10    4  0.7508634E-005  0.1776205E+03  0.7546771E-02  0.1180634E+00
         21   -1    0    0  503  502  0.00000000000E+00  0.00000000000E+00  0.25265143664E+03  0.25265143664E+03  0.00000000000E+00 0.  1.
          2   -1    0    0  502    0 -0.00000000000E+00 -0.00000000000E+00 -0.10526373609E+04  0.10526373609E+04  0.00000000000E+00 0. -1.
         24    2    1    2    0    0  0.35727429811E+02  0.96101100980E+02 -0.64371224694E+03  0.65706766241E+03  0.82828650088E+02 0.  0.
         23    2    1    2    0    0 -0.10571283677E+02 -0.10845291474E+03 -0.29107869813E+03  0.32538748510E+03  0.96314174442E+02 0.  0.
        -11    1    3    3    0    0  0.35535245467E+02  0.66583553660E+00 -0.14377285609E+03  0.14810074664E+03  0.00000000000E+00 0.  1.
         12    1    3    3    0    0  0.19218434387E+00  0.95435265444E+02 -0.49993939085E+03  0.50896691577E+03  0.00000000000E+00 0. -1.
        -11    1    4    4    0    0 -0.39405798547E+02 -0.88735222393E+02 -0.14032449767E+03  0.17063915523E+03  0.00000000000E+00 0.  1.
         11    1    4    4    0    0  0.28834514870E+02 -0.19717692348E+02 -0.15075420046E+03  0.15474832987E+03  0.00000000000E+00 0. -1.
         21    1    1    2  503  501 -0.49759900227E+02  0.76106231093E+02  0.20537160374E+03  0.22460120593E+03  0.00000000000E+00 0.  1.
          1    1    1    2  501    0  0.24603754094E+02 -0.63754417332E+02 -0.70566582912E+02  0.98232444074E+02  0.00000000000E+00 0. -1.
<scales pt_clust_5="13000.00000" pt_clust_6="13000.00000" pt_clust_7="13000.00000" pt_clust_8="13000.00000" pt_clust_9="90.92968" pt_clust_10="13000.00000"></scales>
<clustering>
<clus scale="   82.829">  5  6 -1 -1</clus>
<clus scale="   90.930">  1  9  2 -1</clus>
<clus scale="   96.314">  7  8 -1 -1</clus>
<clus scale="   36.359">  7 10 -1 -1</clus>
<clus scale="  139.983">  2  5  1 -1</clus>
<clus scale="   90.930">  1  5  2 -1</clus>
</clustering>
</event>
<event>
10    4  0.7508634E-005  0.8821443E+03  0.7546771E-02  0.9797026E-01
         21   -1    0    0  503  502  0.00000000000E+00  0.00000000000E+00  0.43402080653E+03  0.43402080653E+03  0.00000000000E+00 0. -1.
          2   -1    0    0  502    0 -0.00000000000E+00 -0.00000000000E+00 -0.28647563571E+04  0.28647563571E+04  0.00000000000E+00 0. -1.
         24    2    1    2    0    0  0.18437584754E+03  0.17783238747E+03 -0.44975588415E+03  0.52380433733E+03  0.80447605889E+02 0.  0.
         23    2    1    2    0    0  0.17688113860E+03 -0.16890506921E+03 -0.83234553553E+03  0.87144976702E+03  0.82521187030E+02 0.  0.
        -11    1    3    3    0    0  0.15131902297E+02  0.13378838585E+02 -0.57797904854E+01  0.21008897331E+02  0.00000000000E+00 0.  1.
         12    1    3    3    0    0  0.16924394524E+03  0.16445354889E+03 -0.44397609366E+03  0.50279544000E+03  0.00000000000E+00 0. -1.
        -11    1    4    4    0    0  0.56097842828E+02 -0.19021949629E+02 -0.12411067683E+03  0.13752186241E+03  0.00000000000E+00 0.  1.
         11    1    4    4    0    0  0.12078329577E+03 -0.14988311958E+03 -0.70823485871E+03  0.73392790461E+03  0.00000000000E+00 0. -1.
         21    1    1    2  503  501 -0.17996232810E+03 -0.49999904009E+03  0.10796060101E+03  0.54225544810E+03  0.00000000000E+00 0. -1.
          1    1    1    2  501    0 -0.18129465804E+03  0.49107172183E+03 -0.12565947320E+04  0.13612676112E+04  0.00000000000E+00 0. -1.
<scales pt_clust_5="13000.00000" pt_clust_6="13000.00000" pt_clust_7="13000.00000" pt_clust_8="13000.00000" pt_clust_9="510.52313" pt_clust_10="13000.00000"></scales>
<clustering>
<clus scale="   80.448">  5  6 -1 -1</clus>
<clus scale="   82.521">  7  8 -1 -1</clus>
<clus scale="  268.497">  2  5  1 -1</clus>
<clus scale="  510.523">  1  9  2 -1</clus>
<clus scale="  333.519">  7 10 -1 -1</clus>
<clus scale="  510.523">  1  5  2 -1</clus>
</clustering>
</event>
<event>
10    4  0.7508634E-005  0.1792191E+03  0.7546771E-02  0.1198670E+00
         -1   -1    0    0    0  501 -0.00000000000E+00  0.00000000000E+00  0.20031573510E+03  0.20031573510E+03  0.00000000000E+00 0.  1.
         21   -1    0    0  501  502  0.00000000000E+00 -0.00000000000E+00 -0.28635340726E+03  0.28635340726E+03  0.00000000000E+00 0.  1.
         24    2    1    2    0    0  0.17506623938E+02  0.58437675110E+02  0.66577624870E+02  0.12009162734E+03  0.79170544209E+02 0.  0.
         23    2    1    2    0    0 -0.65855963202E+01  0.66058209304E+02 -0.86137357692E+01  0.12437529058E+03  0.10482346764E+03 0.  0.
        -11    1    3    3    0    0  0.47347929569E+02  0.21128552091E+02  0.29817233567E+02  0.59810614154E+02  0.00000000000E+00 0.  1.
         12    1    3    3    0    0 -0.29841305631E+02  0.37309123019E+02  0.36760391303E+02  0.60281013188E+02  0.00000000000E+00 0. -1.
        -13    1    4    4    0    0  0.33166659672E+02  0.43511171723E+02  0.31874661587E+02  0.63318586764E+02  0.00000000000E+00 0. -1.
         13    1    4    4    0    0 -0.39752255992E+02  0.22547037582E+02 -0.40488397356E+02  0.61056703814E+02  0.00000000000E+00 0.  1.
         21    1    1    2  503  502  0.34661033908E+02 -0.88844021664E+02 -0.15624782386E+03  0.18305198693E+03  0.00000000000E+00 0.  1.
         -2    1    1    2    0  503 -0.45582061526E+02 -0.35651862750E+02  0.12246262595E+02  0.59150237514E+02  0.00000000000E+00 0.  1.
<scales pt_clust_5="13000.00000" pt_clust_6="13000.00000" pt_clust_7="13000.00000" pt_clust_8="13000.00000" pt_clust_9="95.36586" pt_clust_10="13000.00000"></scales>
<clustering>
<clus scale="   79.171">  5  6 -1 -1</clus>
<clus scale="   95.366">  2  9  1 -1</clus>
<clus scale="   91.461">  1  5  2 -1</clus>
<clus scale="  104.823">  7  8 -1 -1</clus>
<clus scale="   45.862">  7 10 -1 -1</clus>
<clus scale="   95.366">  2  5  1 -1</clus>
</clustering>
</event>
<event>
10    4  0.7508634E-005  0.2304690E+03  0.7546771E-02  0.1150894E+00
          2   -1    0    0  503    0 -0.00000000000E+00  0.00000000000E+00  0.25723509190E+03  0.25723509190E+03  0.00000000000E+00 0. -1.
         21   -1    0    0  501  502  0.00000000000E+00 -0.00000000000E+00 -0.49337547199E+03  0.49337547199E+03  0.00000000000E+00 0. -1.
         24    2    1    2    0    0 -0.55117325729E+02  0.10500208955E+03  0.42686669293E+02  0.14965407819E+03  0.80689732789E+02 0.  0.
         23    2    1    2    0    0  0.50919324848E+02  0.15791533011E+02  0.68574588437E+02  0.12895498857E+03  0.95314032236E+02 0.  0.
        -11    1    3    3    0    0 -0.51550396878E+02  0.18266172321E+02  0.28572889989E+02  0.61704995842E+02  0.00000000000E+00 0.  1.
         12    1    3    3    0    0 -0.35669288507E+01  0.86735917233E+02  0.14113779304E+02  0.87949082348E+02  0.00000000000E+00 0. -1.
        -11    1    4    4    0    0  0.22840610084E+02  0.19128515155E+02  0.89142633143E+02  0.93989374957E+02  0.00000000000E+00 0.  1.
         11    1    4    4    0    0  0.28078714764E+02 -0.33369821440E+01 -0.20568044706E+02  0.34965613618E+02  0.00000000000E+00 0. -1.
         21    1    1    2  503  502  0.58117829650E+02 -0.29127360082E+02 -0.35916808123E+03  0.36500382985E+03  0.00000000000E+00 0. -1.
          1    1    1    2  501    0 -0.53919828769E+02 -0.91666262484E+02  0.11766443412E+02  0.10699766728E+03  0.00000000000E+00 0. -1.
<scales pt_clust_5="13000.00000" pt_clust_6="13000.00000" pt_clust_7="13000.00000" pt_clust_8="13000.00000" pt_clust_9="65.00835" pt_clust_10="13000.00000"></scales>
<clustering>
<clus scale="   65.008">  2  9  1 -1</clus>
<clus scale="   80.690">  5  6 -1 -1</clus>
<clus scale="   95.314">  7  8 -1 -1</clus>
<clus scale="  107.376">  7 10 -1 -1</clus>
<clus scale="  127.176">  1  5  2 -1</clus>
<clus scale="   65.008">  2  5  1 -1</clus>
</clustering>
</event>
<event>
10    4  0.7508634E-005  0.8159555E+03  0.7546771E-02  0.9731339E-01
          4   -1    0    0  502    0 -0.00000000000E+00  0.00000000000E+00  0.64324762720E+03  0.64324762720E+03  0.00000000000E+00 0. -1.
         21   -1    0    0  503  502  0.00000000000E+00 -0.00000000000E+00 -0.71675019886E+03  0.71675019886E+03  0.00000000000E+00 0. -1.
         24    2    1    2    0    0 -0.25642460495E+03 -0.34614387762E+03  0.60087297484E+02  0.44237278849E+03  0.80709594466E+02 0.  0.
         23    2    1    2    0    0 -0.13586673596E+03 -0.13619762415E+03  0.66807951574E+02  0.22334252470E+03  0.91700698916E+02 0.  0.
        -11    1    3    3    0    0 -0.36480687037E+02 -0.54644798873E+02 -0.19695617016E+02  0.68591631415E+02  0.00000000000E+00 0.  1.
         12    1    3    3    0    0 -0.21994391792E+03 -0.29149907874E+03  0.79782914500E+02  0.37378115707E+03  0.00000000000E+00 0. -1.
        -13    1    4    4    0    0  0.16098956173E+01 -0.25477443034E+02 -0.14101906898E+02  0.29164287161E+02  0.00000000000E+00 0.  1.
         13    1    4    4    0    0 -0.13747663157E+03 -0.11072018111E+03  0.80909858472E+02  0.19417823754E+03  0.00000000000E+00 0. -1.
         21    1    1    2  503  501  0.55664488020E+02  0.26016318154E+02 -0.10152873021E+03  0.11867378436E+03  0.00000000000E+00 0.  1.
          3    1    1    2  501    0  0.33662685289E+03  0.45632518361E+03 -0.98869090506E+02  0.57560872851E+03  0.00000000000E+00 0. -1.
<scales pt_clust_5="13000.00000" pt_clust_6="13000.00000" pt_clust_7="13000.00000" pt_clust_8="13000.00000" pt_clust_9="61.44415" pt_clust_10="13000.00000"></scales>
<clustering>
<clus scale="   61.444">  2  9  1 -1</clus>
<clus scale="   80.710">  5  6 -1 -1</clus>
<clus scale="   91.701">  7  8 -1 -1</clus>
<clus scale="  421.650">  1  5  2 -1</clus>
<clus scale="  326.370">  7 10 -1 -1</clus>
<clus scale="   61.444">  2  5  1 -1</clus>
</clustering>
</event>
<event>
10    4  0.7508634E-005  0.2778671E+03  0.7546771E-02  0.1128504E+00
         21   -1    0    0  503  502  0.00000000000E+00  0.00000000000E+00  0.38841471491E+03  0.38841471491E+03  0.00000000000E+00 0.  1.
          2   -1    0    0  502    0 -0.00000000000E+00 -0.00000000000E+00 -0.89073216054E+03  0.89073216054E+03  0.00000000000E+00 0. -1.
         24    2    1    2    0    0  0.33299042294E+02  0.89175403366E+02 -0.34155046254E+03  0.36355891560E+03  0.80357251477E+02 0.  0.
         23    2    1    2    0    0 -0.71594550959E+02 -0.29388049124E+02 -0.20969137010E+03  0.24416521385E+03  0.98268732576E+02 0.  0.
        -11    1    3    3    0    0 -0.88098031488E+01  0.74380193403E+02 -0.26024022856E+03  0.27080436179E+03  0.00000000000E+00 0.  1.
         12    1    3    3    0    0  0.42108845443E+02  0.14795209963E+02 -0.81310233981E+02  0.92754553810E+02  0.00000000000E+00 0. -1.
        -11    1    4    4    0    0 -0.94083530590E+02 -0.33375720637E+02 -0.18695315472E+03  0.21193662146E+03  0.00000000000E+00 0. -1.
         11    1    4    4    0    0  0.22488979630E+02  0.39876715127E+01 -0.22738215387E+02  0.32228592397E+02  0.00000000000E+00 0.  1.
         21    1    1    2  503  501 -0.47279514084E+01  0.14070771489E+03  0.30939427253E+03  0.33992032953E+03  0.00000000000E+00 0.  1.
          1    1    1    2  501    0  0.43023460074E+02 -0.20049506913E+03 -0.26046988552E+03  0.33150241647E+03  0.00000000000E+00 0. -1.
<scales pt_clust_5="13000.00000" pt_clust_6="13000.00000" pt_clust_7="13000.00000" pt_clust_8="13000.00000" pt_clust_9="143.28674" pt_clust_10="13000.00000"></scales>
<clustering>
<clus scale="   80.357">  5  6 -1 -1</clus>
<clus scale="   98.269">  7  8 -1 -1</clus>
<clus scale="  124.573">  2  5  1 -1</clus>
<clus scale="  143.287">  1  9  2 -1</clus>
<clus scale="   95.259">  7 10 -1 -1</clus>
<clus scale="  143.287">  1  5  2 -1</clus>
</clustering>
</event>
<event>
10    4  0.7508634E-005  0.1099361E+04  0.7546771E-02  0.9691049E-01
         -1   -1    0    0    0  501 -0.00000000000E+00  0.00000000000E+00  0.22260774168E+04  0.22260774168E+04  0.00000000000E+00 0.  1.
         21   -1    0    0  501  502  0.00000000000E+00 -0.00000000000E+00 -0.21068067090E+03  0.21068067090E+03  0.00000000000E+00 0. -1.
         24    2    1    2    0    0 -0.11900481694E+03  0.14327928836E+03  0.13281992324E+03  0.24293483107E+03  0.81762455999E+02 0.  0.
         23    2    1    2    0    0  0.59472129941E+02  0.36531053113E+03  0.15158452905E+04  0.15630037246E+04  0.90581345396E+02 0.  0.
        -13    1    3    3    0    0 -0.21593563177E+02  0.23877677619E+02  0.69008933261E+02  0.76148922048E+02  0.00000000000E+00 0.  1.
         14    1    3    3    0    0 -0.97411253759E+02  0.11940161074E+03  0.63810989974E+02  0.16678590902E+03  0.00000000000E+00 0. -1.
        -13    1    4    4    0    0 -0.17077565547E+02  0.88570735044E+02  0.27690784444E+03  0.29122907249E+03  0.00000000000E+00 0. -1.
         13    1    4    4    0    0  0.76549695487E+02  0.27673979609E+03  0.12389374460E+04  0.12717746521E+04  0.00000000000E+00 0.  1.
         21    1    1    2  503  502  0.68531996421E+01 -0.27002640773E+02  0.29290133209E+02  0.40423023853E+02  0.00000000000E+00 0. -1.
         -2    1    1    2    0  503  0.52679487354E+02 -0.48158717872E+03  0.33744139897E+03  0.59039650815E+03  0.00000000000E+00 0.  1.
<scales pt_clust_5="13000.00000" pt_clust_6="13000.00000" pt_clust_7="13000.00000" pt_clust_8="13000.00000" pt_clust_9="27.85873" pt_clust_10="13000.00000"></scales>
<clustering>
<clus scale="   27.859">  2  9  1 -1</clus>
<clus scale="   81.762">  5  6 -1 -1</clus>
<clus scale="   90.581">  7  8 -1 -1</clus>
<clus scale="  197.275">  1  5  2 -1</clus>
<clus scale="  464.604">  7 10 -1 -1</clus>
<clus scale="   27.859">  2  5  1 -1</clus>
</clustering>
</event>
<event>
10    4  0.7508634E-005  0.3318556E+03  0.7546771E-02  0.1105105E+00
         21   -1    0    0  501  502  0.00000000000E+00  0.00000000000E+00  0.21214597240E+03  0.21214597240E+03  0.00000000000E+00 0.  1.
         -3   -1    0    0    0  501 -0.00000000000E+00 -0.00000000000E+00 -0.45768487588E+03  0.45768487588E+03  0.00000000000E+00 0.  1.
         24    2    1    2    0    0  0.71278912153E+02 -0.83645472660E+02 -0.84213110920E+02  0.15959853968E+03  0.79388899751E+02 0.  0.
         23    2    1    2    0    0  0.82095537550E+02 -0.17147468874E+02 -0.20771899357E+03  0.24484103218E+03  0.98824277258E+02 0.  0.
        -11    1    3    3    0    0  0.51324138890E+02 -0.94621547234E+02 -0.84457787065E+02  0.13682295944E+03  0.00000000000E+00 0.  1.
         12    1    3    3    0    0  0.19954773262E+02  0.10976074574E+02  0.24467614480E+00  0.22775580243E+02  0.00000000000E+00 0. -1.
        -11    1    4    4    0    0  0.31244527375E+02  0.32633359904E+02 -0.32300488609E+02  0.55538079134E+02  0.00000000000E+00 0.  1.
         11    1    4    4    0    0  0.50851010176E+02 -0.49780828778E+02 -0.17541850496E+03  0.18930295305E+03  0.00000000000E+00 0. -1.
         21    1    1    2  503  502 -0.23499108216E+02  0.24170251597E+00  0.91977985178E+02  0.94932693339E+02  0.00000000000E+00 0.  1.
         -4    1    1    2    0  503 -0.12987534149E+03  0.10055123902E+03 -0.45584784170E+02  0.17045858307E+03  0.00000000000E+00 0.  1.
<scales pt_clust_5="13000.00000" pt_clust_6="13000.00000" pt_clust_7="13000.00000" pt_clust_8="13000.00000" pt_clust_9="23.50035" pt_clust_10="13000.00000"></scales>
<clustering>
<clus scale="   23.500">  1  9  2 -1</clus>
<clus scale="   79.389">  5  6 -1 -1</clus>
<clus scale="   98.824">  7  8 -1 -1</clus>
<clus scale="  131.753">  2  5  1 -1</clus>
<clus scale="  138.726">  7 10 -1 -1</clus>
<clus scale="   23.500">  1  5  2 -1</clus>
</clustering>
</event>
<event>
10    4  0.7508634E-005  0.1891365E+03  0.7546771E-02  0.1188631E+00
          2   -1    0    0  503    0 -0.00000000000E+00  0.00000000000E+00  0.38080308524E+03  0.38080308524E+03  0.00000000000E+00 0. -1.
         21   -1    0    0  501  502  0.00000000000E+00 -0.00000000000E+00 -0.24172176697E+03  0.24172176697E+03  0.00000000000E+00 0. -1.
         24    2    1    2    0    0 -0.20911894978E+02 -0.51025482316E+02  0.10455645314E+03  0.14211580400E+03  0.78891968248E+02 0.  0.
         23    2    1    2    0    0  0.10630651949E+02  0.64966482839E+02  0.21461116862E+03  0.24290260769E+03  0.92790454651E+02 0.  0.
        -11    1    3    3    0    0 -0.46271114578E+02 -0.30828353821E+02  0.91701758653E+02  0.10724092495E+03  0.00000000000E+00 0.  1.
         12    1    3    3    0    0  0.25359219599E+02 -0.20197128495E+02  0.12854694491E+02  0.34874879048E+02  0.00000000000E+00 0. -1.
        -11    1    4    4    0    0  0.39705399045E+02  0.53052120882E+00  0.50717775680E+02  0.64413453066E+02  0.00000000000E+00 0.  1.
         11    1    4    4    0    0 -0.29074747095E+02  0.64435961631E+02  0.16389339294E+03  0.17848915463E+03  0.00000000000E+00 0. -1.
         21    1    1    2  503  502 -0.30812615607E+02  0.12189643675E+02 -0.18556562449E+03  0.18850094346E+03  0.00000000000E+00 0. -1.
          1    1    1    2  501    0  0.41093858636E+02 -0.26130644198E+02  0.54793209948E+01  0.49005497063E+02  0.00000000000E+00 0. -1.
<scales pt_clust_5="13000.00000" pt_clust_6="13000.00000" pt_clust_7="13000.00000" pt_clust_8="13000.00000" pt_clust_9="33.13615" pt_clust_10="13000.00000"></scales>
<clustering>
<clus scale="   33.136">  2  9  1 -1</clus>
<clus scale="   78.892">  5  6 -1 -1</clus>
<clus scale="   92.790">  7  8 -1 -1</clus>
<clus scale="   35.835">  7 10 -1 -1</clus>
<clus scale="   97.004">  1  5  2 -1</clus>
<clus scale="   33.136">  2  5  1 -1</clus>
</clustering>
</event>
<event>
10    4  0.7508634E-005  0.3550981E+03  0.7546771E-02  0.1089047E+00
         21   -1    0    0  503  502  0.00000000000E+00  0.00000000000E+00  0.36042204465E+03  0.36042204465E+03  0.00000000000E+00 0. -1.
          2   -1    0    0  502    0 -0.00000000000E+00 -0.00000000000E+00 -0.23587414923E+03  0.23587414923E+03  0.00000000000E+00 0. -1.
         24    2    1    2    0    0 -0.10611384302E+03  0.92146393939E+02  0.81320250581E+02  0.18073857678E+03  0.79387306185E+02 0.  0.
         23    2    1    2    0    0 -0.38477001567E+02  0.63677989162E+02 -0.62389010509E+02  0.13472032262E+03  0.93390635194E+02 0.  0.
        -11    1    3    3    0    0 -0.46026898083E+02  0.77903505927E+02  0.17933216296E+02  0.92244413541E+02  0.00000000000E+00 0.  1.
         12    1    3    3    0    0 -0.60086944942E+02  0.14242888012E+02  0.63387034285E+02  0.88494163236E+02  0.00000000000E+00 0. -1.
        -13    1    4    4    0    0 -0.28026820077E+02  0.40193290881E+02 -0.86540303418E+02  0.99449622378E+02  0.00000000000E+00 0. -1.
         13    1    4    4    0    0 -0.10450181490E+02  0.23484698281E+02  0.24151292909E+02  0.35270700244E+02  0.00000000000E+00 0.  1.
         21    1    1    2  503  501 -0.18256804483E+02 -0.13717120682E+02  0.53993455166E+02  0.58623915858E+02  0.00000000000E+00 0. -1.
          1    1    1    2  501    0  0.16284764907E+03 -0.14210726242E+03  0.51623200188E+02  0.22221337862E+03  0.00000000000E+00 0. -1.
<scales pt_clust_5="13000.00000" pt_clust_6="13000.00000" pt_clust_7="13000.00000" pt_clust_8="13000.00000" pt_clust_9="22.83572" pt_clust_10="13000.00000"></scales>
<clustering>
<clus scale="   22.836">  1  9  2 -1</clus>
<clus scale="   79.387">  5  6 -1 -1</clus>
<clus scale="   93.391">  7  8 -1 -1</clus>
<clus scale="  163.495">  2  5  1 -1</clus>
<clus scale="  149.116">  7 10 -1 -1</clus>
<clus scale="   22.836">  1  5  2 -1</clus>
</clustering>
</event>
<event>
10    4  0.7508634E-005  0.1990098E+03  0.7546771E-02  0.1178812E+00
          2   -1    0    0  503    0 -0.00000000000E+00  0.00000000000E+00  0.18146903699E+03  0.18146903699E+03  0.00000000000E+00 0. -1.
         21   -1    0    0  501  502  0.00000000000E+00 -0.00000000000E+00 -0.34267824607E+03  0.34267824607E+03  0.00000000000E+00 0. -1.
         24    2    1    2    0    0  0.70224910839E+02 -0.53604221978E+02 -0.22999334936E+02  0.11918543329E+03  0.76624065309E+02 0.  0.
         23    2    1    2    0    0  0.37078960762E+01 -0.21962573498E+02  0.42293306078E+02  0.10450610770E+03  0.92933845712E+02 0.  0.
        -11    1    3    3    0    0  0.86037080995E+02 -0.48097121573E+02 -0.12342664495E+02  0.99338078181E+02  0.00000000000E+00 0.  1.
         12    1    3    3    0    0 -0.15812170156E+02 -0.55071004049E+01 -0.10656670441E+02  0.19847355108E+02  0.00000000000E+00 0. -1.
        -13    1    4    4    0    0 -0.43858795628E+02 -0.14050665815E+02  0.29231602674E+02  0.54548159993E+02  0.00000000000E+00 0. -1.
         13    1    4    4    0    0  0.47566691704E+02 -0.79119076832E+01  0.13061703404E+02  0.49957947703E+02  0.00000000000E+00 0.  1.
         21    1    1    2  503  502 -0.94847002471E+02 -0.23672445326E+02 -0.17306310528E+03  0.19876412391E+03  0.00000000000E+00 0. -1.
          1    1    1    2  501    0  0.20914195555E+02  0.99239240803E+02 -0.74400749466E+01  0.10169161817E+03  0.00000000000E+00 0. -1.
<scales pt_clust_5="13000.00000" pt_clust_6="13000.00000" pt_clust_7="13000.00000" pt_clust_8="13000.00000" pt_clust_9="97.75653" pt_clust_10="13000.00000"></scales>
<clustering>
<clus scale="   76.624">  5  6 -1 -1</clus>
<clus scale="   92.934">  7  8 -1 -1</clus>
<clus scale="   97.757">  2  9  1 -1</clus>
<clus scale="   91.800">  7 10 -1 -1</clus>
<clus scale="  103.689">  1  5  2 -1</clus>
<clus scale="   97.757">  2  5  1 -1</clus>
</clustering>
</event>
<event>
10    4  0.7508634E-005  0.1897665E+03  0.7546771E-02  0.1167042E+00
          2   -1    0    0  502    0 -0.00000000000E+00  0.00000000000E+00  0.90944682058E+03  0.90944682058E+03  0.00000000000E+00 0. -1.
         21   -1    0    0  503  502  0.00000000000E+00 -0.00000000000E+00 -0.26488058815E+03  0.26488058815E+03  0.00000000000E+00 0.  1.
         24    2    1    2    0    0  0.89803250321E+02  0.10404371817E+03  0.54763256815E+03  0.56961640682E+03  0.75310704173E+02 0.  0.
         23    2    1    2    0    0 -0.66640219189E+02 -0.33317026950E+02  0.14461047713E+03  0.18521804567E+03  0.88558405870E+02 0.  0.
        -11    1    3    3    0    0  0.77614344762E+02  0.38421888216E+02  0.36606243088E+03  0.37616742457E+03  0.00000000000E+00 0.  1.
         12    1    3    3    0    0  0.12188905559E+02  0.65621829957E+02  0.18157013727E+03  0.19344898225E+03  0.00000000000E+00 0. -1.
        -13    1    4    4    0    0 -0.47316558486E+02 -0.12603882476E+02  0.13096106185E+02  0.50687499027E+02  0.00000000000E+00 0.  1.
         13    1    4    4    0    0 -0.19323660703E+02 -0.20713144474E+02  0.13151437094E+03  0.13453054665E+03  0.00000000000E+00 0. -1.
         21    1    1    2  503  501  0.25783951484E+02 -0.26186319277E+02 -0.22616484119E+03  0.22913112155E+03  0.00000000000E+00 0.  1.
          1    1    1    2  501    0 -0.48946982617E+02 -0.44540371946E+02  0.17848802835E+03  0.19036183469E+03  0.00000000000E+00 0. -1.
<scales pt_clust_5="13000.00000" pt_clust_6="13000.00000" pt_clust_7="13000.00000" pt_clust_8="13000.00000" pt_clust_9="36.74963" pt_clust_10="13000.00000"></scales>
<clustering>
<clus scale="   36.750">  2  9  1 -1</clus>
<clus scale="   75.311">  5  6 -1 -1</clus>
<clus scale="   88.558">  7  8 -1 -1</clus>
<clus scale="   66.208">  7 10 -1 -1</clus>
<clus scale="  156.325">  1  5  2 -1</clus>
<clus scale="   36.750">  2  5  1 -1</clus>
</clustering>
</event>
<event>
10    4  0.7508634E-005  0.2576474E+03  0.7546771E-02  0.1120289E+00
          2   -1    0    0  503    0 -0.00000000000E+00  0.00000000000E+00  0.13360924415E+04  0.13360924415E+04  0.00000000000E+00 0. -1.
         21   -1    0    0  501  502  0.00000000000E+00 -0.00000000000E+00 -0.12649410491E+03  0.12649410491E+03  0.00000000000E+00 0. -1.
         24    2    1    2    0    0  0.12739141190E+03 -0.15039749630E+03  0.90724547089E+03  0.93184687442E+03  0.79976710308E+02 0.  0.
         23    2    1    2    0    0 -0.97292655714E+02  0.40870182116E+02  0.32949187129E+03  0.35771168953E+03  0.90865433106E+02 0.  0.
        -11    1    3    3    0    0  0.10710958253E+03 -0.15347589865E+03  0.86323177977E+03  0.88328728042E+03  0.00000000000E+00 0.  1.
         12    1    3    3    0    0  0.20281829370E+02  0.30784023571E+01  0.44013691122E+02  0.48559594004E+02  0.00000000000E+00 0. -1.
        -11    1    4    4    0    0 -0.32431224860E+02  0.37727698047E+02  0.49104878630E+02  0.69903166245E+02  0.00000000000E+00 0.  1.
         11    1    4    4    0    0 -0.64861430854E+02  0.31424840686E+01  0.28038699266E+03  0.28780852328E+03  0.00000000000E+00 0. -1.
         21    1    1    2  503  502 -0.58950137613E+02  0.56797280112E+02 -0.62768035707E+02  0.10315462209E+03  0.00000000000E+00 0. -1.
          1    1    1    2  501    0  0.28851381424E+02  0.52730034068E+02  0.35629030098E+02  0.69873360365E+02  0.00000000000E+00 0. -1.
<scales pt_clust_5="13000.00000" pt_clust_6="13000.00000" pt_clust_7="13000.00000" pt_clust_8="13000.00000" pt_clust_9="81.85994" pt_clust_10="13000.00000"></scales>
<clustering>
<clus scale="   79.977">  5  6 -1 -1</clus>
<clus scale="   81.860">  2  9  1 -1</clus>
<clus scale="   90.865">  7  8 -1 -1</clus>
<clus scale="   75.283">  7 10 -1 -1</clus>
<clus scale="  191.593">  1  5  2 -1</clus>
<clus scale="   81.860">  2  5  1 -1</clus>
</clustering>
</event>
<event>
10    4  0.7508634E-005  0.3158991E+03  0.7546771E-02  0.1129569E+00
          2   -1    0    0  502    0 -0.00000000000E+00  0.00000000000E+00  0.11095625602E+04  0.11095625602E+04  0.00000000000E+00 0. -1.
         21   -1    0    0  503  502  0.00000000000E+00 -0.00000000000E+00 -0.61209893340E+02  0.61209893340E+02  0.00000000000E+00 0. -1.
         24    2    1    2    0    0  0.10313840482E+02  0.14706502018E+02  0.20463941910E+03  0.22008904564E+03  0.78988857783E+02 0.  0.
         23    2    1    2    0    0 -0.11266199845E+03  0.35154444676E+02  0.20971558775E+03  0.25755929303E+03  0.91801965172E+02 0.  0.
        -13    1    3    3    0    0  0.18273300319E+02 -0.30036387702E+02  0.78529269240E+02  0.86040363888E+02  0.00000000000E+00 0.  1.
         14    1    3    3    0    0 -0.79594598373E+01  0.44742889720E+02  0.12611014986E+03  0.13404868175E+03  0.00000000000E+00 0. -1.
        -13    1    4    4    0    0 -0.11204227875E+03  0.93718474710E+01  0.12101087698E+03  0.16518152470E+03  0.00000000000E+00 0.  1.
         13    1    4    4    0    0 -0.61971969527E+00  0.25782597205E+02  0.88704710767E+02  0.92377768339E+02  0.00000000000E+00 0. -1.
         21    1    1    2  503  501  0.19116051463E+02  0.21799582111E+02 -0.16540197045E+02  0.33379983853E+02  0.00000000000E+00 0. -1.
          1    1    1    2  501    0  0.83232106502E+02 -0.71660528806E+02  0.65053785708E+03  0.65974413103E+03  0.00000000000E+00 0. -1.
<scales pt_clust_5="13000.00000" pt_clust_6="13000.00000" pt_clust_7="13000.00000" pt_clust_8="13000.00000" pt_clust_9="28.99388" pt_clust_10="13000.00000"></scales>
<clustering>
<clus scale="   28.994">  2  9  1 -1</clus>
<clus scale="   78.989">  5  6 -1 -1</clus>
<clus scale="   82.588">  1  5  2 -1</clus>
<clus scale="   91.802">  7  8 -1 -1</clus>
<clus scale="  110.702">  7 10 -1 -1</clus>
<clus scale="   28.994">  2  5  1 -1</clus>
</clustering>
</event>
<event>
10    4  0.7508634E-005  0.2248248E+03  0.7546771E-02  0.1152557E+00
         -3   -1    0    0    0  501 -0.00000000000E+00  0.00000000000E+00  0.83920848462E+03  0.83920848462E+03  0.00000000000E+00 0.  1.
         21   -1    0    0  501  502  0.00000000000E+00 -0.00000000000E+00 -0.51729330822E+02  0.51729330822E+02  0.00000000000E+00 0.  1.
         24    2    1    2    0    0  0.38064474485E+02 -0.86770002192E+02  0.28142519030E+03  0.30730552823E+03  0.79111392662E+02 0.  0.
         23    2    1    2    0    0  0.37024364978E+01 -0.15090816611E+02  0.17714144755E+03  0.19997693805E+03  0.91489029564E+02 0.  0.
        -11    1    3    3    0    0  0.11181193467E+02 -0.76389543708E+02  0.26047953459E+03  0.27167990249E+03  0.00000000000E+00 0.  1.
         12    1    3    3    0    0  0.26883281017E+02 -0.10380458484E+02  0.20945655708E+02  0.35625625744E+02  0.00000000000E+00 0. -1.
        -13    1    4    4    0    0  0.44458758740E+02  0.48448657673E+00  0.12076117355E+03  0.12868596268E+03  0.00000000000E+00 0.  1.
         13    1    4    4    0    0 -0.40756322242E+02 -0.15575303188E+02  0.56380274004E+02  0.71290975367E+02  0.00000000000E+00 0. -1.
         21    1    1    2  503  502  0.11282989539E+02 -0.30231472520E+02  0.89953324508E+01  0.33498713252E+02  0.00000000000E+00 0. -1.
         -4    1    1    2    0  503 -0.53049900521E+02  0.13209229132E+03  0.31991718350E+03  0.35015663591E+03  0.00000000000E+00 0.  1.
<scales pt_clust_5="13000.00000" pt_clust_6="13000.00000" pt_clust_7="13000.00000" pt_clust_8="13000.00000" pt_clust_9="32.26837" pt_clust_10="13000.00000"></scales>
<clustering>
<clus scale="   32.268">  2  9  1 -1</clus>
<clus scale="   79.111">  5  6 -1 -1</clus>
<clus scale="   91.489">  7  8 -1 -1</clus>
<clus scale="  129.993">  7 10 -1 -1</clus>
<clus scale="  131.718">  1  5  2 -1</clus>
<clus scale="   32.268">  2  5  1 -1</clus>
</clustering>
</event>
<event>
10    4  0.7508634E-005  0.3232420E+03  0.7546771E-02  0.1085059E+00
          2   -1    0    0  503    0 -0.00000000000E+00  0.00000000000E+00  0.85896888802E+03  0.85896888802E+03  0.00000000000E+00 0. -1.
         21   -1    0    0  501  502  0.00000000000E+00 -0.00000000000E+00 -0.20629932866E+03  0.20629932866E+03  0.00000000000E+00 0.  1.
         24    2    1    2    0    0  0.29089951805E+02  0.21855514762E+03  0.13678410484E+02  0.23491710661E+03  0.79914768471E+02 0.  0.
         23    2    1    2    0    0 -0.10344539176E+02 -0.19643796962E+02  0.12688893400E+03  0.16153132582E+03  0.97461168687E+02 0.  0.
        -13    1    3    3    0    0  0.17406348540E+02  0.21946913439E+03  0.20905373267E+02  0.22114863000E+03  0.00000000000E+00 0.  1.
         14    1    3    3    0    0  0.11683603265E+02 -0.91398677482E+00 -0.72269627839E+01  0.13768476610E+02  0.00000000000E+00 0. -1.
        -13    1    4    4    0    0  0.11041060331E+02  0.30987208171E+02  0.88702257127E+02  0.94605509897E+02  0.00000000000E+00 0.  1.
         13    1    4    4    0    0 -0.21385599507E+02 -0.50631005133E+02  0.38186676868E+02  0.66925815925E+02  0.00000000000E+00 0. -1.
         21    1    1    2  503  502 -0.17028140668E+02  0.10896203554E+02 -0.57953284373E+02  0.61378074229E+02  0.00000000000E+00 0.  1.
          1    1    1    2  501    0 -0.17172719613E+01 -0.20980755421E+03  0.57005549926E+03  0.60744171001E+03  0.00000000000E+00 0. -1.
<scales pt_clust_5="13000.00000" pt_clust_6="13000.00000" pt_clust_7="13000.00000" pt_clust_8="13000.00000" pt_clust_9="20.21595" pt_clust_10="13000.00000"></scales>
<clustering>
<clus scale="   20.216">  2  9  1 -1</clus>
<clus scale="   79.915">  5  6 -1 -1</clus>
<clus scale="   97.461">  7  8 -1 -1</clus>
<clus scale="  208.455">  7 10 -1 -1</clus>
<clus scale="  240.992">  1  5  2 -1</clus>
<clus scale="   20.216">  2  5  1 -1</clus>
</clustering>
</event>
<event>
10    4  0.7508634E-005  0.1319823E+03  0.7546771E-02  0.1242035E+00
          2   -1    0    0  502    0 -0.00000000000E+00  0.00000000000E+00  0.29979188004E+03  0.29979188004E+03  0.00000000000E+00 0. -1.
         21   -1    0    0  503  502  0.00000000000E+00 -0.00000000000E+00 -0.84942860009E+02  0.84942860009E+02  0.00000000000E+00 0.  1.
         24    2    1    2    0    0 -0.12900011693E+02  0.39246859854E+01  0.28647425297E+02  0.90526629052E+02  0.84809092258E+02 0.  0.
         23    2    1    2    0    0  0.27761156366E+02 -0.17432908516E+02  0.15834114947E+03  0.18418665886E+03  0.88194203792E+02 0.  0.
        -11    1    3    3    0    0  0.25095344117E+02  0.86162378250E+01 -0.16567520595E+02  0.31280962090E+02  0.00000000000E+00 0.  1.
         12    1    3    3    0    0 -0.37995355810E+02 -0.46915518396E+01  0.45214945891E+02  0.59245666962E+02  0.00000000000E+00 0. -1.
        -13    1    4    4    0    0 -0.19573271246E+02 -0.32277961670E+02  0.35968596919E+02  0.52141343684E+02  0.00000000000E+00 0.  1.
         13    1    4    4    0    0  0.47334427612E+02  0.14845053155E+02  0.12237255256E+03  0.13204531517E+03  0.00000000000E+00 0. -1.
         21    1    1    2  503  501 -0.36721252621E+02 -0.22238333270E+02 -0.19184934092E+02  0.47021862541E+02  0.00000000000E+00 0.  1.
          1    1    1    2  501    0  0.21860107948E+02  0.35746555800E+02  0.47045379349E+02  0.62999589595E+02  0.00000000000E+00 0. -1.
<scales pt_clust_5="13000.00000" pt_clust_6="13000.00000" pt_clust_7="13000.00000" pt_clust_8="13000.00000" pt_clust_9="42.93010" pt_clust_10="13000.00000"></scales>
<clustering>
<clus scale="   42.930">  2  9  1 -1</clus>
<clus scale="   84.809">  5  6 -1 -1</clus>
<clus scale="   88.194">  7  8 -1 -1</clus>
<clus scale="   36.161">  7 10 -1 -1</clus>
<clus scale="   92.153">  1  5  2 -1</clus>
<clus scale="   42.930">  2  5  1 -1</clus>
</clustering>
</event>
<event>
10    4  0.7508634E-005  0.1409104E+03  0.7546771E-02  0.1227185E+00
         21   -1    0    0  503  502  0.00000000000E+00  0.00000000000E+00  0.46756915146E+02  0.46756915146E+02  0.00000000000E+00 0. -1.
          2   -1    0    0  502    0 -0.00000000000E+00 -0.00000000000E+00 -0.77777031972E+03  0.77777031972E+03  0.00000000000E+00 0. -1.
         24    2    1    2    0    0  0.43872536398E+02  0.28000605022E+02 -0.21372081390E+03  0.23441922071E+03  0.81036728783E+02 0.  0.
         23    2    1    2    0    0 -0.32230786321E+02 -0.26809934698E+02 -0.28281307542E+03  0.30009569294E+03  0.91195356834E+02 0.  0.
        -13    1    3    3    0    0  0.53487450973E+02 -0.49435487398E+01 -0.17309588400E+03  0.18123887867E+03  0.00000000000E+00 0.  1.
         14    1    3    3    0    0 -0.96149145756E+01  0.32944153762E+02 -0.40624929899E+02  0.53180342032E+02  0.00000000000E+00 0. -1.
        -13    1    4    4    0    0 -0.50139772940E+02  0.11735299353E+02 -0.10086792079E+03  0.11325215904E+03  0.00000000000E+00 0.  1.
         13    1    4    4    0    0  0.17908986619E+02 -0.38545234051E+02 -0.18194515462E+03  0.18684353390E+03  0.00000000000E+00 0. -1.
         21    1    1    2  503  501  0.19254190578E+02  0.92279293598E+01  0.22473446833E+02  0.30998941073E+02  0.00000000000E+00 0. -1.
          1    1    1    2  501    0 -0.30895940654E+02 -0.10418599684E+02 -0.25695296209E+03  0.25901338015E+03  0.00000000000E+00 0. -1.
<scales pt_clust_5="13000.00000" pt_clust_6="13000.00000" pt_clust_7="13000.00000" pt_clust_8="13000.00000" pt_clust_9="21.35131" pt_clust_10="13000.00000"></scales>
<clustering>
<clus scale="   21.351">  1  9  2 -1</clus>
<clus scale="   81.037">  5  6 -1 -1</clus>
<clus scale="   91.195">  7  8 -1 -1</clus>
<clus scale="   31.515">  7 10 -1 -1</clus>
<clus scale="  102.655">  2  5  1 -1</clus>
<clus scale="   21.351">  1  5  2 -1</clus>
</clustering>
</event>
<event>
10    4  0.7508634E-005  0.2194292E+03  0.7546771E-02  0.1146108E+00
          2   -1    0    0  503    0 -0.00000000000E+00  0.00000000000E+00  0.10831691725E+04  0.10831691725E+04  0.00000000000E+00 0. -1.
         21   -1    0    0  501  502  0.00000000000E+00 -0.00000000000E+00 -0.38477405986E+02  0.38477405986E+02  0.00000000000E+00 0. -1.
         24    2    1    2    0    0 -0.62186245875E+02  0.12604597003E+03  0.42814267425E+03  0.45774769835E+03  0.80449301400E+02 0.  0.
         23    2    1    2    0    0  0.44699021664E+02 -0.29797762012E+02  0.17951203412E+03  0.20813541734E+03  0.90608346200E+02 0.  0.
        -11    1    3    3    0    0 -0.70151201242E+02  0.56024455715E+02  0.27212962348E+03  0.28655621202E+03  0.00000000000E+00 0.  1.
         12    1    3    3    0    0  0.79649553668E+01  0.70021514312E+02  0.15601305077E+03  0.17119148633E+03  0.00000000000E+00 0. -1.
        -13    1    4    4    0    0  0.53983680856E+02  0.16531557547E+02  0.79325787280E+02  0.97365860143E+02  0.00000000000E+00 0.  1.
         13    1    4    4    0    0 -0.92846591918E+01 -0.46329319559E+02  0.10018624683E+03  0.11076955720E+03  0.00000000000E+00 0. -1.
         21    1    1    2  503  502 -0.21462505561E+02 -0.15401753108E+01  0.36759927722E+02  0.42594642516E+02  0.00000000000E+00 0.  1.
          1    1    1    2  501    0  0.38949729772E+02 -0.94708032704E+02  0.40027713047E+03  0.41316882032E+03  0.00000000000E+00 0. -1.
<scales pt_clust_5="13000.00000" pt_clust_6="13000.00000" pt_clust_7="13000.00000" pt_clust_8="13000.00000" pt_clust_9="21.51770" pt_clust_10="13000.00000"></scales>
<clustering>
<clus scale="   21.518">  2  9  1 -1</clus>
<clus scale="   80.449">  5  6 -1 -1</clus>
<clus scale="   90.608">  7  8 -1 -1</clus>
<clus scale="  101.251">  7 10 -1 -1</clus>
<clus scale="  165.096">  1  5  2 -1</clus>
<clus scale="   21.518">  2  5  1 -1</clus>
</clustering>
</event>
<event>
10    4  0.7508634E-005  0.4371093E+03  0.7546771E-02  0.1071151E+00
         21   -1    0    0  501  502  0.00000000000E+00  0.00000000000E+00  0.80124094622E+02  0.80124094622E+02  0.00000000000E+00 0.  1.
          2   -1    0    0  503    0 -0.00000000000E+00 -0.00000000000E+00 -0.12803647483E+04  0.12803647483E+04  0.00000000000E+00 0. -1.
         24    2    1    2    0    0  0.71263111290E+02 -0.84852662757E+02 -0.31968672280E+03  0.34753920773E+03  0.79407145592E+02 0.  0.
         23    2    1    2    0    0  0.13361640442E+03 -0.44545447162E+01 -0.17098583561E+03  0.23309935019E+03  0.85005673817E+02 0.  0.
        -13    1    3    3    0    0  0.37378103265E+02 -0.55693328425E+02 -0.83226129015E+02  0.10688993398E+03  0.00000000000E+00 0.  1.
         14    1    3    3    0    0  0.33885008026E+02 -0.29159334332E+02 -0.23646059378E+03  0.24064927376E+03  0.00000000000E+00 0. -1.
        -11    1    4    4    0    0  0.63985900314E+02  0.19709646414E+02 -0.28674949637E+02  0.72834870340E+02  0.00000000000E+00 0. -1.
         11    1    4    4    0    0  0.69630504106E+02 -0.24164191131E+02 -0.14231088598E+03  0.16026447985E+03  0.00000000000E+00 0.  1.
         21    1    1    2  503  502  0.50849718931E+02 -0.41278564811E+01 -0.12380587036E+03  0.13390528985E+03  0.00000000000E+00 0. -1.
          1    1    1    2  501    0 -0.25572923464E+03  0.93435063954E+02 -0.58576222493E+03  0.64594499517E+03  0.00000000000E+00 0. -1.
<scales pt_clust_5="13000.00000" pt_clust_6="13000.00000" pt_clust_7="13000.00000" pt_clust_8="13000.00000" pt_clust_9="51.01701" pt_clust_10="13000.00000"></scales>
<clustering>
<clus scale="   51.017">  1  9  2 -1</clus>
<clus scale="   79.407">  5  6 -1 -1</clus>
<clus scale="   85.006">  7  8 -1 -1</clus>
<clus scale="  141.943">  2  5  1 -1</clus>
<clus scale="  187.930">  7 10 -1 -1</clus>
<clus scale="   51.017">  1  5  2 -1</clus>
</clustering>
</event>
<event>
10    4  0.7508634E-005  0.8708239E+03  0.7546771E-02  0.9894870E-01
         21   -1    0    0  503  502  0.00000000000E+00  0.00000000000E+00  0.27727861424E+03  0.27727861424E+03  0.00000000000E+00 0. -1.
          2   -1    0    0  502    0 -0.00000000000E+00 -0.00000000000E+00 -0.12754750345E+04  0.12754750345E+04  0.00000000000E+00 0. -1.
         24    2    1    2    0    0 -0.13449007991E+03  0.13403648583E+03 -0.32384616837E+03  0.38110008653E+03  0.65632111495E+02 0.  0.
         23    2    1    2    0    0 -0.15029878426E+03  0.12363228900E+03 -0.69339166650E+03  0.72536774378E+03  0.86554567183E+02 0.  0.
        -11    1    3    3    0    0 -0.77519725839E+02  0.36779480744E+02 -0.16949117117E+03  0.18997182739E+03  0.00000000000E+00 0.  1.
         12    1    3    3    0    0 -0.56970354075E+02  0.97257005090E+02 -0.15435499720E+03  0.19112825914E+03  0.00000000000E+00 0. -1.
        -13    1    4    4    0    0 -0.34697271780E+02 -0.94966791898E+01 -0.14119686325E+03  0.14570738408E+03  0.00000000000E+00 0.  1.
         13    1    4    4    0    0 -0.11560151248E+03  0.13312896819E+03 -0.55219480326E+03  0.57966035970E+03  0.00000000000E+00 0. -1.
         21    1    1    2  503  501 -0.47259086362E+01  0.21390407078E+02  0.37853831157E+02  0.43735526299E+02  0.00000000000E+00 0. -1.
          1    1    1    2  501    0  0.28951477281E+03 -0.27905918192E+03 -0.18812416550E+02  0.40255029214E+03  0.00000000000E+00 0. -1.
<scales pt_clust_5="13000.00000" pt_clust_6="13000.00000" pt_clust_7="13000.00000" pt_clust_8="13000.00000" pt_clust_9="21.90625" pt_clust_10="13000.00000"></scales>
<clustering>
<clus scale="   21.906">  1  9  2 -1</clus>
<clus scale="   65.632">  5  6 -1 -1</clus>
<clus scale="   86.555">  7  8 -1 -1</clus>
<clus scale="  203.017">  2  5  1 -1</clus>
<clus scale="  345.952">  7 10 -1 -1</clus>
<clus scale="   21.906">  1  5  2 -1</clus>
</clustering>
</event>
<event>
10    4  0.7508634E-005  0.2262561E+03  0.7546771E-02  0.1148186E+00
         21   -1    0    0  501  502  0.00000000000E+00  0.00000000000E+00  0.21918434946E+03  0.21918434946E+03  0.00000000000E+00 0.  1.
         -3   -1    0    0    0  501 -0.00000000000E+00 -0.00000000000E+00 -0.29242753152E+03  0.29242753152E+03  0.00000000000E+00 0.  1.
         24    2    1    2    0    0  0.79333522351E+02 -0.89464484112E+02  0.11201948599E+03  0.17641681286E+03  0.65397438255E+02 0.  0.
         23    2    1    2    0    0 -0.10577637259E+03 -0.71780998551E+01 -0.11527910495E+03  0.18203372210E+03  0.92773044729E+02 0.  0.
        -13    1    3    3    0    0  0.61157810628E+02 -0.27564278100E+02  0.34086559429E+02  0.75246001632E+02  0.00000000000E+00 0.  1.
         14    1    3    3    0    0  0.18175711723E+02 -0.61900206012E+02  0.77932926562E+02  0.10117081122E+03  0.00000000000E+00 0. -1.
        -11    1    4    4    0    0 -0.10695332288E+03  0.19700406387E+02 -0.10986918626E+03  0.15459093562E+03  0.00000000000E+00 0.  1.
         11    1    4    4    0    0  0.11769502817E+01 -0.26878506242E+02 -0.54099186863E+01  0.27442786483E+02  0.00000000000E+00 0. -1.
         21    1    1    2  503  502  0.24595904845E+02  0.97667050392E+01  0.15992478748E+02  0.30920970860E+02  0.00000000000E+00 0.  1.
         -4    1    1    2    0  503  0.18469453983E+01  0.86875878928E+02 -0.85976041850E+02  0.12224037516E+03  0.00000000000E+00 0.  1.
<scales pt_clust_5="13000.00000" pt_clust_6="13000.00000" pt_clust_7="13000.00000" pt_clust_8="13000.00000" pt_clust_9="26.46407" pt_clust_10="13000.00000"></scales>
<clustering>
<clus scale="   26.464">  1  9  2 -1</clus>
<clus scale="   65.397">  5  6 -1 -1</clus>
<clus scale="   92.773">  7  8 -1 -1</clus>
<clus scale="   87.878">  7 10 -1 -1</clus>
<clus scale="  143.327">  2  5  1 -1</clus>
<clus scale="   26.464">  1  5  2 -1</clus>
</clustering>
</event>
<event>
10    4  0.7508634E-005  0.3089907E+03  0.7546771E-02  0.1115442E+00
         -1   -1    0    0    0  501 -0.00000000000E+00  0.00000000000E+00  0.47668014537E+03  0.47668014537E+03  0.00000000000E+00 0.  1.
         21   -1    0    0  503  502  0.00000000000E+00 -0.00000000000E+00 -0.18782094679E+03  0.18782094679E+03  0.00000000000E+00 0.  1.
         24    2    1    2    0    0 -0.98125849345E+02  0.10678763931E+02 -0.82454559037E+02  0.15507609195E+03  0.86643647660E+02 0.  0.
         23    2    1    2    0    0  0.23351214129E+02 -0.92249204210E+02  0.61351243070E+02  0.14917515821E+03  0.97129078664E+02 0.  0.
        -13    1    3    3    0    0 -0.55992547242E+02  0.31594891995E+02 -0.86598012156E+02  0.10785461630E+03  0.00000000000E+00 0.  1.
         14    1    3    3    0    0 -0.42133302103E+02 -0.20916128064E+02  0.41434531185E+01  0.47221475655E+02  0.00000000000E+00 0. -1.
        -13    1    4    4    0    0  0.59599881673E+02 -0.74533126009E+02  0.39419874697E+02  0.10325337423E+03  0.00000000000E+00 0.  1.
         13    1    4    4    0    0 -0.36248667544E+02 -0.17716078201E+02  0.21931368373E+02  0.45921783984E+02  0.00000000000E+00 0. -1.
         21    1    1    2  503  501  0.12465481228E+02 -0.35458782052E+02  0.22807441528E+02  0.43964677139E+02  0.00000000000E+00 0.  1.
         -2    1    1    2    0  502  0.62309153988E+02  0.11702922233E+03  0.28715507302E+03  0.31628516486E+03  0.00000000000E+00 0.  1.
<scales pt_clust_5="13000.00000" pt_clust_6="13000.00000" pt_clust_7="13000.00000" pt_clust_8="13000.00000" pt_clust_9="37.58610" pt_clust_10="13000.00000"></scales>
<clustering>
<clus scale="   37.586">  2  9  1 -1</clus>
<clus scale="   86.644">  5  6 -1 -1</clus>
<clus scale="   97.129">  7  8 -1 -1</clus>
<clus scale="  125.449">  1  5  2 -1</clus>
<clus scale="  104.926">  7 10 -1 -1</clus>
<clus scale="   37.586">  2  5  1 -1</clus>
</clustering>
</event>
<event>
10    4  0.7508634E-005  0.3136775E+03  0.7546771E-02  0.1122839E+00
          2   -1    0    0  503    0 -0.00000000000E+00  0.00000000000E+00  0.97568478665E+03  0.97568478665E+03  0.00000000000E+00 0. -1.
         21   -1    0    0  501  502  0.00000000000E+00 -0.00000000000E+00 -0.58219158163E+02  0.58219158163E+02  0.00000000000E+00 0. -1.
         24    2    1    2    0    0 -0.34752322416E+02  0.54330076658E+02  0.40114463563E+03  0.41288964534E+03  0.73493941214E+02 0.  0.
         23    2    1    2    0    0 -0.47345327950E+02  0.79563287861E+02  0.26180397950E+03  0.29252596944E+03  0.91968593860E+02 0.  0.
        -11    1    3    3    0    0 -0.19787451117E+02  0.46081229921E+02  0.10614839194E+03  0.11739891006E+03  0.00000000000E+00 0.  1.
         12    1    3    3    0    0 -0.14964871299E+02  0.82488467365E+01  0.29499624369E+03  0.29549073528E+03  0.00000000000E+00 0. -1.
        -13    1    4    4    0    0 -0.30914861637E+02  0.32352249902E+02  0.26575737855E+02  0.52044851679E+02  0.00000000000E+00 0. -1.
         13    1    4    4    0    0 -0.16430466313E+02  0.47211037959E+02  0.23522824165E+03  0.24048111776E+03  0.00000000000E+00 0.  1.
         21    1    1    2  503  502 -0.13511524218E+02  0.21387890766E+02  0.29780234585E+02  0.39075126744E+02  0.00000000000E+00 0.  1.
          1    1    1    2  501    0  0.95609174584E+02 -0.15528125528E+03  0.22473677877E+03  0.28941320329E+03  0.00000000000E+00 0. -1.
<scales pt_clust_5="13000.00000" pt_clust_6="13000.00000" pt_clust_7="13000.00000" pt_clust_8="13000.00000" pt_clust_9="25.29828" pt_clust_10="13000.00000"></scales>
<clustering>
<clus scale="   25.298">  2  9  1 -1</clus>
<clus scale="   73.494">  5  6 -1 -1</clus>
<clus scale="   91.969">  7  8 -1 -1</clus>
<clus scale="   99.630">  1  5  2 -1</clus>
<clus scale="  138.608">  7 10 -1 -1</clus>
<clus scale="   25.298">  2  5  1 -1</clus>
</clustering>
</event>
<event>
10    4  0.7508634E-005  0.4751616E+03  0.7546771E-02  0.1051760E+00
          2   -1    0    0  502    0 -0.00000000000E+00  0.00000000000E+00  0.11451087407E+04  0.11451087407E+04  0.00000000000E+00 0. -1.
         21   -1    0    0  503  502  0.00000000000E+00 -0.00000000000E+00 -0.44529375670E+03  0.44529375670E+03  0.00000000000E+00 0. -1.
         24    2    1    2    0    0  0.17163409089E+03  0.97527449673E+01  0.33662296956E+03  0.38646548836E+03  0.80542987664E+02 0.  0.
         23    2    1    2    0    0  0.73828431976E+02 -0.12395674321E+03  0.13657059963E+03  0.21840890092E+03  0.90746943540E+02 0.  0.
        -13    1    3    3    0    0  0.10043877300E+03 -0.32345425157E+02  0.21332496126E+03  0.23799519479E+03  0.00000000000E+00 0.  1.
         14    1    3    3    0    0  0.71195317896E+02  0.42098170125E+02  0.12329800831E+03  0.14847029356E+03  0.00000000000E+00 0. -1.
        -13    1    4    4    0    0  0.70595509239E+02 -0.82618087245E+02  0.13950953704E+03  0.17683999884E+03  0.00000000000E+00 0. -1.
         13    1    4    4    0    0  0.32329227368E+01 -0.41338655970E+02 -0.29389374140E+01  0.41568902077E+02  0.00000000000E+00 0.  1.
         21    1    1    2  503  501 -0.27552945010E+03 -0.71719868026E+02 -0.30756407615E+03  0.41911320461E+03  0.00000000000E+00 0. -1.
          1    1    1    2  501    0  0.30066927229E+02  0.18592386627E+03  0.53418549093E+03  0.56641490348E+03  0.00000000000E+00 0. -1.
<scales pt_clust_5="13000.00000" pt_clust_6="13000.00000" pt_clust_7="13000.00000" pt_clust_8="13000.00000" pt_clust_9="272.72346" pt_clust_10="13000.00000"></scales>
<clustering>
<clus scale="   80.543">  5  6 -1 -1</clus>
<clus scale="   90.747">  7  8 -1 -1</clus>
<clus scale="  188.339">  7 10 -1 -1</clus>
<clus scale="  189.843">  1  5  2 -1</clus>
<clus scale="  272.723">  2  9  1 -1</clus>
<clus scale="  272.723">  2  5  1 -1</clus>
</clustering>
</event>
<event>
10    4  0.7508634E-005  0.3131084E+03  0.7546771E-02  0.1097402E+00
         21   -1    0    0  501  502  0.00000000000E+00  0.00000000000E+00  0.29692074229E+03  0.29692074229E+03  0.00000000000E+00 0. -1.
          2   -1    0    0  503    0 -0.00000000000E+00 -0.00000000000E+00 -0.11474747503E+04  0.11474747503E+04  0.00000000000E+00 0. -1.
         24    2    1    2    0    0 -0.16908091818E+03  0.38900193786E+02  0.19404860352E+03  0.27261510811E+03  0.81009596177E+02 0.  0.
         23    2    1    2    0    0  0.50878162439E+02 -0.24724531350E+02 -0.11938933745E+03  0.15961629065E+03  0.89574865236E+02 0.  0.
        -11    1    3    3    0    0 -0.15574302047E+02 -0.17314940375E+02  0.72633287039E+01  0.24395122223E+02  0.00000000000E+00 0.  1.
         12    1    3    3    0    0 -0.15350661613E+03  0.56215134161E+02  0.18678527482E+03  0.24821998589E+03  0.00000000000E+00 0. -1.
        -11    1    4    4    0    0  0.42294710593E+02 -0.57864772611E+02 -0.82658544010E+02  0.10940570987E+03  0.00000000000E+00 0.  1.
         11    1    4    4    0    0  0.85834518466E+01  0.33140241261E+02 -0.36730793439E+02  0.50210580789E+02  0.00000000000E+00 0. -1.
         21    1    1    2  503  502  0.18587464093E+03  0.10944515513E+03 -0.28953837865E+03  0.36105414668E+03  0.00000000000E+00 0. -1.
          1    1    1    2  501    0 -0.67671885196E+02 -0.12362081757E+03 -0.63567489547E+03  0.65110994718E+03  0.00000000000E+00 0. -1.
<scales pt_clust_5="13000.00000" pt_clust_6="13000.00000" pt_clust_7="13000.00000" pt_clust_8="13000.00000" pt_clust_9="182.12692" pt_clust_10="13000.00000"></scales>
<clustering>
<clus scale="   81.010">  5  6 -1 -1</clus>
<clus scale="   89.575">  7  8 -1 -1</clus>
<clus scale="  140.931">  7 10 -1 -1</clus>
<clus scale="  191.479">  2  5  1 -1</clus>
<clus scale="  182.127">  1  9  2 -1</clus>
<clus scale="  182.127">  1  5  2 -1</clus>
</clustering>
</event>
<event>
10    4  0.7508634E-005  0.4555281E+03  0.7546771E-02  0.1065451E+00
         21   -1    0    0  501  502  0.00000000000E+00  0.00000000000E+00  0.49140566284E+03  0.49140566284E+03  0.00000000000E+00 0.  1.
         -1   -1    0    0    0  501 -0.00000000000E+00 -0.00000000000E+00 -0.54567924480E+03  0.54567924480E+03  0.00000000000E+00 0.  1.
         24    2    1    2    0    0 -0.10763793931E+01  0.12195083893E+03  0.39454055021E+02  0.15194212084E+03  0.81588111396E+02 0.  0.
         23    2    1    2    0    0 -0.14664618065E+03  0.10755342418E+03 -0.77358731214E+02  0.21408033366E+03  0.82299298970E+02 0.  0.
        -11    1    3    3    0    0 -0.12280987633E+01  0.11015252313E+03  0.62063071179E+02  0.12643935852E+03  0.00000000000E+00 0.  1.
         12    1    3    3    0    0  0.15171937017E+00  0.11798315791E+02 -0.22609016158E+02  0.25502762319E+02  0.00000000000E+00 0. -1.
        -13    1    4    4    0    0 -0.12185224258E+03  0.12071913382E+03 -0.67423864027E+02  0.18430153480E+03  0.00000000000E+00 0.  1.
         13    1    4    4    0    0 -0.24793938069E+02 -0.13165709631E+02 -0.99348671870E+01  0.29778798852E+02  0.00000000000E+00 0. -1.
         21    1    1    2  503  502  0.84818010853E+02 -0.40312424741E+03  0.13370612814E+03  0.43310574058E+03  0.00000000000E+00 0.  1.
         -2    1    1    2    0  503  0.62904549188E+02  0.17361998430E+03 -0.15007503391E+03  0.23795671258E+03  0.00000000000E+00 0.  1.
<scales pt_clust_5="13000.00000" pt_clust_6="13000.00000" pt_clust_7="13000.00000" pt_clust_8="13000.00000" pt_clust_9="375.45387" pt_clust_10="13000.00000"></scales>
<clustering>
<clus scale="   81.588">  5  6 -1 -1</clus>
<clus scale="   82.299">  7  8 -1 -1</clus>
<clus scale="  146.730">  2  5  1 -1</clus>
<clus scale="  230.588">  7 10 -1 -1</clus>
<clus scale="  375.454">  1  9  2 -1</clus>
<clus scale="  375.454">  1  5  2 -1</clus>
</clustering>
</event>
<event>
10    4  0.7508634E-005  0.6161995E+03  0.7546771E-02  0.1014979E+00
          2   -1    0    0  502    0 -0.00000000000E+00  0.00000000000E+00  0.13360027151E+04  0.13360027151E+04  0.00000000000E+00 0. -1.
         21   -1    0    0  503  502  0.00000000000E+00 -0.00000000000E+00 -0.45161197268E+03  0.45161197268E+03  0.00000000000E+00 0. -1.
         24    2    1    2    0    0  0.40868432750E+02 -0.23754196164E+03  0.99195715895E+03  0.10248428664E+04  0.90705476059E+02 0.  0.
         23    2    1    2    0    0  0.18529317814E+03  0.34105442795E+02  0.20113686461E+03  0.28988762978E+03  0.89900258643E+02 0.  0.
        -11    1    3    3    0    0 -0.23600585963E+02 -0.12945302293E+03  0.49328080299E+03  0.51053013956E+03  0.00000000000E+00 0.  1.
         12    1    3    3    0    0  0.64469018713E+02 -0.10808893871E+03  0.49867635596E+03  0.51431272689E+03  0.00000000000E+00 0. -1.
        -11    1    4    4    0    0  0.55981505060E+02  0.33287676980E+02  0.12195388388E+03  0.13825609621E+03  0.00000000000E+00 0.  1.
         11    1    4    4    0    0  0.12931167308E+03  0.81776581508E+00  0.79182980731E+02  0.15163153357E+03  0.00000000000E+00 0. -1.
         21    1    1    2  503  501 -0.38263482177E+02 -0.55817324850E+01 -0.13964047267E+03  0.14489551895E+03  0.00000000000E+00 0. -1.
          1    1    1    2  501    0 -0.18789812871E+03  0.20901825133E+03 -0.16906280846E+03  0.32798867262E+03  0.00000000000E+00 0. -1.
<scales pt_clust_5="13000.00000" pt_clust_6="13000.00000" pt_clust_7="13000.00000" pt_clust_8="13000.00000" pt_clust_9="38.66846" pt_clust_10="13000.00000"></scales>
<clustering>
<clus scale="   38.668">  2  9  1 -1</clus>
<clus scale="   89.900">  7  8 -1 -1</clus>
<clus scale="   90.705">  5  6 -1 -1</clus>
<clus scale="  257.493">  1  5  2 -1</clus>
<clus scale="  249.028">  7 10 -1 -1</clus>
<clus scale="   38.668">  2  5  1 -1</clus>
</clustering>
</event>
<event>
10    4  0.7508634E-005  0.2198732E+03  0.7546771E-02  0.1168832E+00
          2   -1    0    0  503    0 -0.00000000000E+00  0.00000000000E+00  0.15389299683E+03  0.15389299683E+03  0.00000000000E+00 0. -1.
         21   -1    0    0  501  502  0.00000000000E+00 -0.00000000000E+00 -0.36609872928E+03  0.36609872928E+03  0.00000000000E+00 0. -1.
         24    2    1    2    0    0  0.23333938144E+02  0.43981150691E+02  0.84809517004E+02  0.12835412558E+03  0.82482198653E+02 0.  0.
         23    2    1    2    0    0  0.38988843980E+01 -0.35164728908E+01 -0.20858880491E+02  0.93608154585E+02  0.91103385383E+02 0.  0.
        -11    1    3    3    0    0  0.33566089802E+02  0.28592400214E+02  0.26836731396E+01  0.44174764698E+02  0.00000000000E+00 0.  1.
         12    1    3    3    0    0 -0.10232151658E+02  0.15388750477E+02  0.82125843864E+02  0.84179360886E+02  0.00000000000E+00 0. -1.
        -11    1    4    4    0    0 -0.26400743329E+02  0.33960113743E+02 -0.11331241076E+02  0.44482418977E+02  0.00000000000E+00 0. -1.
         11    1    4    4    0    0  0.30299627727E+02 -0.37476586634E+02 -0.95276394150E+01  0.49125735607E+02  0.00000000000E+00 0.  1.
         21    1    1    2  503  502  0.29458872209E+02 -0.12724200681E+02 -0.30063783393E+02  0.43972281118E+02  0.00000000000E+00 0. -1.
          1    1    1    2  501    0 -0.56691694751E+02 -0.27740477119E+02 -0.24609258557E+03  0.25405716482E+03  0.00000000000E+00 0. -1.
<scales pt_clust_5="13000.00000" pt_clust_6="13000.00000" pt_clust_7="13000.00000" pt_clust_8="13000.00000" pt_clust_9="32.08941" pt_clust_10="13000.00000"></scales>
<clustering>
<clus scale="   32.089">  2  9  1 -1</clus>
<clus scale="   82.482">  5  6 -1 -1</clus>
<clus scale="   91.103">  7  8 -1 -1</clus>
<clus scale="   50.758">  7 10 -1 -1</clus>
<clus scale="   96.455">  1  5  2 -1</clus>
<clus scale="   32.089">  2  5  1 -1</clus>
</clustering>
</event>
<event>
10    4  0.7508634E-005  0.2546051E+03  0.7546771E-02  0.1147280E+00
          2   -1    0    0  502    0 -0.00000000000E+00  0.00000000000E+00  0.38981371459E+03  0.38981371459E+03  0.00000000000E+00 0. -1.
         21   -1    0    0  503  502  0.00000000000E+00 -0.00000000000E+00 -0.29043031846E+03  0.29043031846E+03  0.00000000000E+00 0. -1.
         24    2    1    2    0    0 -0.10666149207E+03 -0.95885808111E+02 -0.10217945970E+02  0.16362610390E+03  0.78091826518E+02 0.  0.
         23    2    1    2    0    0  0.91605142042E+02 -0.34107016656E+01  0.23590564555E+03  0.27190657524E+03  0.99391031398E+02 0.  0.
        -11    1    3    3    0    0 -0.71132082281E+02 -0.29089128215E+02  0.24111596093E+02  0.80543898441E+02  0.00000000000E+00 0.  1.
         12    1    3    3    0    0 -0.35529409789E+02 -0.66796679897E+02 -0.34329542063E+02  0.83082205456E+02  0.00000000000E+00 0. -1.
        -11    1    4    4    0    0 -0.19027489631E+02 -0.13696555650E+02  0.52028438900E+02  0.57066622931E+02  0.00000000000E+00 0.  1.
         11    1    4    4    0    0  0.11063263167E+03  0.10285853984E+02  0.18387720664E+03  0.21483995231E+03  0.00000000000E+00 0. -1.
         21    1    1    2  503  501  0.70749393642E+02  0.12436934222E+03 -0.11269800877E+03  0.18213745130E+03  0.00000000000E+00 0. -1.
          1    1    1    2  501    0 -0.55693043614E+02 -0.25072832446E+02 -0.13606294677E+02  0.62573902616E+02  0.00000000000E+00 0. -1.
<scales pt_clust_5="13000.00000" pt_clust_6="13000.00000" pt_clust_7="13000.00000" pt_clust_8="13000.00000" pt_clust_9="143.08463" pt_clust_10="13000.00000"></scales>
<clustering>
<clus scale="   78.092">  5  6 -1 -1</clus>
<clus scale="   99.391">  7  8 -1 -1</clus>
<clus scale="   61.077">  7 10 -1 -1</clus>
<clus scale="  143.085">  2  9  1 -1</clus>
<clus scale="  102.776">  1  5  2 -1</clus>
<clus scale="  143.085">  2  5  1 -1</clus>
</clustering>
</event>
<event>
10    4  0.7508634E-005  0.3558460E+03  0.7546771E-02  0.1098996E+00
         21   -1    0    0  501  502  0.00000000000E+00  0.00000000000E+00  0.18316141913E+03  0.18316141913E+03  0.00000000000E+00 0. -1.
          2   -1    0    0  503    0 -0.00000000000E+00 -0.00000000000E+00 -0.45490847430E+03  0.45490847430E+03  0.00000000000E+00 0. -1.
         24    2    1    2    0    0 -0.75456953470E+02  0.65718890179E+02 -0.14176184357E+03  0.19155834846E+03  0.81150823885E+02 0.  0.
         23    2    1    2    0    0 -0.35402900815E+02  0.63405411752E+02 -0.21059433211E+03  0.24462861360E+03  0.10109190990E+03 0.  0.
        -13    1    3    3    0    0 -0.35849908817E+02  0.21196400996E+01 -0.98950401405E+02  0.10526581009E+03  0.00000000000E+00 0.  1.
         14    1    3    3    0    0 -0.39607044652E+02  0.63599250079E+02 -0.42811442166E+02  0.86292538363E+02  0.00000000000E+00 0. -1.
        -13    1    4    4    0    0 -0.11367881638E+02 -0.23559189273E+02 -0.17435702467E+02  0.31436727766E+02  0.00000000000E+00 0. -1.
         13    1    4    4    0    0 -0.24035019177E+02  0.86964601025E+02 -0.19315862964E+03  0.21319188583E+03  0.00000000000E+00 0.  1.
         21    1    1    2  503  502  0.17638594575E+02 -0.18778936779E+02  0.46961006368E+02  0.53564023414E+02  0.00000000000E+00 0.  1.
          1    1    1    2  501    0  0.93221259710E+02 -0.11034536515E+03  0.33648114142E+02  0.14831890796E+03  0.00000000000E+00 0. -1.
<scales pt_clust_5="13000.00000" pt_clust_6="13000.00000" pt_clust_7="13000.00000" pt_clust_8="13000.00000" pt_clust_9="25.76370" pt_clust_10="13000.00000"></scales>
<clustering>
<clus scale="   25.764">  1  9  2 -1</clus>
<clus scale="   81.151">  5  6 -1 -1</clus>
<clus scale="  101.092">  7  8 -1 -1</clus>
<clus scale="  125.141">  2  5  1 -1</clus>
<clus scale="  138.469">  7 10 -1 -1</clus>
<clus scale="   25.764">  1  5  2 -1</clus>
</clustering>
</event>
<event>
10    4  0.7508634E-005  0.3652575E+03  0.7546771E-02  0.1087478E+00
          2   -1    0    0  503    0 -0.00000000000E+00  0.00000000000E+00  0.12098138904E+04  0.12098138904E+04  0.00000000000E+00 0. -1.
         21   -1    0    0  501  502  0.00000000000E+00 -0.00000000000E+00 -0.92854185868E+02  0.92854185868E+02  0.00000000000E+00 0. -1.
         24    2    1    2    0    0  0.97595488970E+01  0.12185604222E+03  0.32958709227E+03  0.36010319954E+03  0.78118622047E+02 0.  0.
         23    2    1    2    0    0 -0.11847453397E+03  0.27633289144E+02  0.37920156380E+03  0.40850959943E+03  0.91029956460E+02 0.  0.
        -11    1    3    3    0    0  0.28614313999E+02  0.69140720877E+02  0.26128129018E+03  0.27178508209E+03  0.00000000000E+00 0.  1.
         12    1    3    3    0    0 -0.18854765102E+02  0.52715321343E+02  0.68305802091E+02  0.88318117454E+02  0.00000000000E+00 0. -1.
        -11    1    4    4    0    0 -0.60792058251E+02  0.24278358224E+02  0.78059018375E+02  0.10187405643E+03  0.00000000000E+00 0.  1.
         11    1    4    4    0    0 -0.57682475716E+02  0.33549309201E+01  0.30114254542E+03  0.30663554300E+03  0.00000000000E+00 0. -1.
         21    1    1    2  503  502  0.48120929471E+01  0.51192920967E+02 -0.15651863783E+02  0.53748044016E+02  0.00000000000E+00 0. -1.
          1    1    1    2  501    0  0.10390289212E+03 -0.20068225233E+03  0.42382291224E+03  0.48030723327E+03  0.00000000000E+00 0. -1.
<scales pt_clust_5="13000.00000" pt_clust_6="13000.00000" pt_clust_7="13000.00000" pt_clust_8="13000.00000" pt_clust_9="51.41859" pt_clust_10="13000.00000"></scales>
<clustering>
<clus scale="   51.419">  2  9  1 -1</clus>
<clus scale="   78.119">  5  6 -1 -1</clus>
<clus scale="   91.030">  7  8 -1 -1</clus>
<clus scale="  156.610">  1  5  2 -1</clus>
<clus scale="  157.290">  7 10 -1 -1</clus>
<clus scale="   51.419">  2  5  1 -1</clus>
</clustering>
</event>
<event>
10    4  0.7508634E-005  0.2432915E+03  0.7546771E-02  0.1156872E+00
         21   -1    0    0  501  502  0.00000000000E+00  0.00000000000E+00  0.16203254597E+03  0.16203254597E+03  0.00000000000E+00 0. -1.
          4   -1    0    0  503    0 -0.00000000000E+00 -0.00000000000E+00 -0.25638406281E+03  0.25638406281E+03  0.00000000000E+00 0. -1.
         24    2    1    2    0    0  0.32050672157E+02  0.39199318807E+02 -0.45948796547E+02  0.10589098014E+03  0.80856512348E+02 0.  0.
         23    2    1    2    0    0  0.21690730689E+02  0.74814621329E+02 -0.73943511691E+02  0.14129948829E+03  0.91816050379E+02 0.  0.
        -11    1    3    3    0    0 -0.25017710261E+02  0.11484605115E+02 -0.29504743302E+02  0.40352346383E+02  0.00000000000E+00 0.  1.
         12    1    3    3    0    0  0.57068382418E+02  0.27714713692E+02 -0.16444053245E+02  0.65538633752E+02  0.00000000000E+00 0. -1.
        -11    1    4    4    0    0  0.31293864797E+02 -0.11291262600E+02 -0.14892508821E+02  0.36449765486E+02  0.00000000000E+00 0.  1.
         11    1    4    4    0    0 -0.96031341073E+01  0.86105883929E+02 -0.59051002870E+02  0.10484972280E+03  0.00000000000E+00 0. -1.
         21    1    1    2  503  502  0.31606759737E+02 -0.52550970226E+02 -0.54874338229E+01  0.61568690604E+02  0.00000000000E+00 0. -1.
          3    1    1    2  501    0 -0.85348162583E+02 -0.61462969910E+02  0.31028225221E+02  0.10965744976E+03  0.00000000000E+00 0. -1.
<scales pt_clust_5="13000.00000" pt_clust_6="13000.00000" pt_clust_7="13000.00000" pt_clust_8="13000.00000" pt_clust_9="61.32366" pt_clust_10="13000.00000"></scales>
<clustering>
<clus scale="   61.324">  1  9  2 -1</clus>
<clus scale="   80.857">  5  6 -1 -1</clus>
<clus scale="   91.816">  7  8 -1 -1</clus>
<clus scale="   93.922">  2  5  1 -1</clus>
<clus scale="   96.227">  7 10 -1 -1</clus>
<clus scale="   61.324">  1  5  2 -1</clus>
</clustering>
</event>
<event>
10    4  0.7508634E-005  0.4630173E+03  0.7546771E-02  0.1043111E+00
         21   -1    0    0  503  502  0.00000000000E+00  0.00000000000E+00  0.40422967304E+03  0.40422967304E+03  0.00000000000E+00 0.  1.
          4   -1    0    0  502    0 -0.00000000000E+00 -0.00000000000E+00 -0.13268504592E+04  0.13268504592E+04  0.00000000000E+00 0. -1.
         24    2    1    2    0    0  0.21044037582E+03  0.13621245271E+03 -0.69213731854E+03  0.74039554054E+03  0.79325309315E+02 0.  0.
         23    2    1    2    0    0 -0.37571352174E+02  0.16377143603E+03 -0.13633099973E+03  0.23452509070E+03  0.90460969029E+02 0.  0.
        -13    1    3    3    0    0  0.93706028676E+02  0.49937029279E+02 -0.18952793729E+03  0.21724494405E+03  0.00000000000E+00 0.  1.
         14    1    3    3    0    0  0.11673434715E+03  0.86275423430E+02 -0.50260938125E+03  0.52315059649E+03  0.00000000000E+00 0. -1.
        -13    1    4    4    0    0 -0.14658790707E+02  0.15333235074E+03 -0.14111065623E+03  0.20889688181E+03  0.00000000000E+00 0.  1.
         13    1    4    4    0    0 -0.22912561467E+02  0.10439085287E+02  0.47796565002E+01  0.25628208889E+02  0.00000000000E+00 0. -1.
         21    1    1    2  503  501 -0.25130711580E+03 -0.16319096015E+03  0.24180238737E+03  0.38503889474E+03  0.00000000000E+00 0.  1.
          3    1    1    2  501    0  0.78438092151E+02 -0.13679292858E+03 -0.33595485527E+03  0.37112060626E+03  0.00000000000E+00 0. -1.
<scales pt_clust_5="13000.00000" pt_clust_6="13000.00000" pt_clust_7="13000.00000" pt_clust_8="13000.00000" pt_clust_9="270.24100" pt_clust_10="13000.00000"></scales>
<clustering>
<clus scale="   79.325">  5  6 -1 -1</clus>
<clus scale="   90.461">  7  8 -1 -1</clus>
<clus scale="  157.686">  7 10 -1 -1</clus>
<clus scale="  262.929">  2  5  1 -1</clus>
<clus scale="  270.241">  1  9  2 -1</clus>
<clus scale="  270.241">  1  5  2 -1</clus>
</clustering>
</event>
<event>
10    4  0.7508634E-005  0.2157790E+03  0.7546771E-02  0.1164466E+00
          2   -1    0    0  503    0 -0.00000000000E+00  0.00000000000E+00  0.89373099083E+03  0.89373099083E+03  0.00000000000E+00 0. -1.
         21   -1    0    0  501  502  0.00000000000E+00 -0.00000000000E+00 -0.21109969255E+03  0.21109969255E+03  0.00000000000E+00 0.  1.
         24    2    1    2    0    0 -0.32351934833E+02 -0.70524083354E+02  0.68230844284E+03  0.69146874820E+03  0.81018050686E+02 0.  0.
         23    2    1    2    0    0  0.18637061264E+02  0.81770944690E+02  0.17632006230E+03  0.21501799697E+03  0.90056355702E+02 0.  0.
        -13    1    3    3    0    0  0.20212428962E+02  0.40223603781E+01  0.10573648039E+03  0.10772615723E+03  0.00000000000E+00 0.  1.
         14    1    3    3    0    0 -0.52564363795E+02 -0.74546443732E+02  0.57657196246E+03  0.58374259096E+03  0.00000000000E+00 0. -1.
        -13    1    4    4    0    0 -0.78216858790E+01  0.55795637349E+02  0.29516997304E+02  0.63604913702E+02  0.00000000000E+00 0.  1.
         13    1    4    4    0    0  0.26458747143E+02  0.25975307341E+02  0.14680306499E+03  0.15141308326E+03  0.00000000000E+00 0. -1.
         21    1    1    2  503  502 -0.25588744416E+02 -0.25669679001E+01 -0.14573332725E+03  0.14798505274E+03  0.00000000000E+00 0.  1.
          1    1    1    2  501    0  0.39303617986E+02 -0.86798934357E+01 -0.30263879611E+02  0.50358885471E+02  0.00000000000E+00 0. -1.
<scales pt_clust_5="13000.00000" pt_clust_6="13000.00000" pt_clust_7="13000.00000" pt_clust_8="13000.00000" pt_clust_9="25.71718" pt_clust_10="13000.00000"></scales>
<clustering>
<clus scale="   25.717">  2  9  1 -1</clus>
<clus scale="   81.018">  5  6 -1 -1</clus>
<clus scale="   90.056">  7  8 -1 -1</clus>
<clus scale="   25.422">  7 10 -1 -1</clus>
<clus scale="  112.834">  1  5  2 -1</clus>
<clus scale="   25.717">  2  5  1 -1</clus>
</clustering>
</event>
<event>
10    4  0.7508634E-005  0.1747196E+03  0.7546771E-02  0.1207722E+00
         21   -1    0    0  503  502  0.00000000000E+00  0.00000000000E+00  0.68652962546E+02  0.68652962546E+02  0.00000000000E+00 0. -1.
          2   -1    0    0  502    0 -0.00000000000E+00 -0.00000000000E+00 -0.78839533001E+03  0.78839533001E+03  0.00000000000E+00 0. -1.
         24    2    1    2    0    0  0.74848570200E+01 -0.34580290546E+01 -0.40003029595E+03  0.40822489461E+03  0.80965090334E+02 0.  0.
         23    2    1    2    0    0 -0.47386619884E+02  0.28761187580E+02 -0.19489081163E+03  0.22344406913E+03  0.94191963130E+02 0.  0.
        -13    1    3    3    0    0  0.43226209604E+02  0.77688899433E+01 -0.21450095957E+03  0.21895095913E+03  0.00000000000E+00 0.  1.
         14    1    3    3    0    0 -0.35741352584E+02 -0.11226918998E+02 -0.18552933639E+03  0.18927393549E+03  0.00000000000E+00 0. -1.
        -13    1    4    4    0    0 -0.71425093310E+02  0.11651203244E+02 -0.95853675175E+02  0.12010504376E+03  0.00000000000E+00 0. -1.
         13    1    4    4    0    0  0.24038473426E+02  0.17109984336E+02 -0.99037136454E+02  0.10333902538E+03  0.00000000000E+00 0.  1.
         21    1    1    2  503  501 -0.20079859251E+02 -0.45509703440E+01  0.42063689907E+02  0.46832318832E+02  0.00000000000E+00 0. -1.
          1    1    1    2  501    0  0.59981622115E+02 -0.20752188181E+02 -0.16688494979E+03  0.17854700998E+03  0.00000000000E+00 0. -1.
<scales pt_clust_5="13000.00000" pt_clust_6="13000.00000" pt_clust_7="13000.00000" pt_clust_8="13000.00000" pt_clust_9="20.58913" pt_clust_10="13000.00000"></scales>
<clustering>
<clus scale="   20.589">  1  9  2 -1</clus>
<clus scale="   80.965">  5  6 -1 -1</clus>
<clus scale="   81.178">  2  5  1 -1</clus>
<clus scale="   94.192">  7  8 -1 -1</clus>
<clus scale="   61.444">  7 10 -1 -1</clus>
<clus scale="   20.589">  1  5  2 -1</clus>
</clustering>
</event>
<event>
10    4  0.7508634E-005  0.2333562E+03  0.7546771E-02  0.1137432E+00
         -3   -1    0    0    0  501 -0.00000000000E+00  0.00000000000E+00  0.26550805211E+03  0.26550805211E+03  0.00000000000E+00 0.  1.
         21   -1    0    0  501  502  0.00000000000E+00 -0.00000000000E+00 -0.19775967360E+03  0.19775967360E+03  0.00000000000E+00 0.  1.
         24    2    1    2    0    0 -0.64340559532E+02  0.14449115434E+03  0.24951295190E+02  0.17869424369E+03  0.79320012064E+02 0.  0.
         23    2    1    2    0    0 -0.15122802626E+01 -0.16707626579E+02 -0.10713428022E+02  0.92205809129E+02  0.90031671759E+02 0.  0.
        -11    1    3    3    0    0 -0.60205976100E+02  0.47302076222E+02 -0.54995757416E+01  0.76762564485E+02  0.00000000000E+00 0.  1.
         12    1    3    3    0    0 -0.41345834322E+01  0.97189078115E+02  0.30450870932E+02  0.10193167921E+03  0.00000000000E+00 0. -1.
        -11    1    4    4    0    0  0.21053904630E+02 -0.17760545098E+02 -0.44039819373E+02  0.51944292783E+02  0.00000000000E+00 0.  1.
         11    1    4    4    0    0 -0.22566184893E+02  0.10529185194E+01  0.33326391351E+02  0.40261516346E+02  0.00000000000E+00 0. -1.
         21    1    1    2  503  502  0.44792638489E+02 -0.34828880078E+01 -0.16858073191E+02  0.47986514808E+02  0.00000000000E+00 0. -1.
         -4    1    1    2    0  503  0.21060201306E+02 -0.12430063975E+03  0.70368584527E+02  0.14438115808E+03  0.00000000000E+00 0.  1.
<scales pt_clust_5="13000.00000" pt_clust_6="13000.00000" pt_clust_7="13000.00000" pt_clust_8="13000.00000" pt_clust_9="44.92784" pt_clust_10="13000.00000"></scales>
<clustering>
<clus scale="   44.928">  2  9  1 -1</clus>
<clus scale="   79.320">  5  6 -1 -1</clus>
<clus scale="   90.032">  7  8 -1 -1</clus>
<clus scale="  128.885">  7 10 -1 -1</clus>
<clus scale="  169.108">  1  5  2 -1</clus>
<clus scale="   44.928">  2  5  1 -1</clus>
</clustering>
</event>
<event>
10    4  0.1484396E-004  0.1832414E+03  0.7546771E-02  0.1193300E+00
         21   -1    0    0  501  502  0.00000000000E+00  0.00000000000E+00  0.24453166887E+03  0.24453166887E+03  0.00000000000E+00 0.  1.
         -3   -1    0    0    0  501 -0.00000000000E+00 -0.00000000000E+00 -0.92622971918E+03  0.92622971918E+03  0.00000000000E+00 0.  1.
         24    2    1    2    0    0  0.37553618597E+02 -0.47535488443E+02 -0.16543935215E+03  0.19317654000E+03  0.79228147986E+02 0.  0.
         23    2    1    2    0    0  0.55209028671E+01  0.85626446047E+02 -0.67602853105E+03  0.68756220767E+03  0.91459532022E+02 0.  0.
        -13    1    3    3    0    0 -0.47672102780E+01 -0.46176954844E+02 -0.12973257372E+03  0.13778816400E+03  0.00000000000E+00 0.  1.
         14    1    3    3    0    0  0.42320828875E+02 -0.13585335989E+01 -0.35706778429E+02  0.55388376000E+02  0.00000000000E+00 0. -1.
        -13    1    4    4    0    0 -0.19988044759E+02  0.95478453614E+02 -0.55223675785E+03  0.56078613906E+03  0.00000000000E+00 0.  1.
         13    1    4    4    0    0  0.25508947626E+02 -0.98520075677E+01 -0.12379177319E+03  0.12677606861E+03  0.00000000000E+00 0. -1.
         21    1    1    2  503  502 -0.27516127092E+02 -0.41854920752E+01  0.21859840247E+03  0.22036314837E+03  0.00000000000E+00 0.  1.
         -4    1    1    2    0  503 -0.15558394372E+02 -0.33905465529E+02 -0.58828569583E+02  0.69659492012E+02  0.00000000000E+00 0.  1.
<scales pt_clust_5="13000.00000" pt_clust_6="13000.00000" pt_clust_7="13000.00000" pt_clust_8="13000.00000" pt_clust_9="27.83264" pt_clust_10="13000.00000"></scales>
<clustering>
<clus scale="   27.833">  1  9  2 -1</clus>
<clus scale="   79.228">  5  6 -1 -1</clus>
<clus scale="   91.460">  7  8 -1 -1</clus>
<clus scale="   40.918">  7 10 -1 -1</clus>
<clus scale="   96.232">  2  5  1 -1</clus>
<clus scale="   27.833">  1  5  2 -1</clus>
</clustering>
</event>
<event>
10    4  0.7508634E-005  0.1502306E+03  0.7546771E-02  0.1229306E+00
          2   -1    0    0  503    0 -0.00000000000E+00  0.00000000000E+00  0.38393058259E+03  0.38393058259E+03  0.00000000000E+00 0. -1.
         21   -1    0    0  501  502  0.00000000000E+00 -0.00000000000E+00 -0.67625834673E+02  0.67625834673E+02  0.00000000000E+00 0. -1.
         24    2    1    2    0    0  0.19543716673E+02 -0.14868129250E+02  0.29685393243E+02  0.89438401754E+02  0.80715469444E+02 0.  0.
         23    2    1    2    0    0  0.32708797965E+02  0.29659279286E+02  0.14006247625E+03  0.17406710073E+03  0.93446883254E+02 0.  0.
        -13    1    3    3    0    0 -0.26908726457E+02  0.12728777497E+02  0.15569363210E+02  0.33593249425E+02  0.00000000000E+00 0.  1.
         14    1    3    3    0    0  0.46452443130E+02 -0.27596906747E+02  0.14116030033E+02  0.55845152329E+02  0.00000000000E+00 0. -1.
        -13    1    4    4    0    0 -0.21795758297E+02  0.34903666911E+02  0.93631957725E+02  0.10227543474E+03  0.00000000000E+00 0. -1.
         13    1    4    4    0    0  0.54504556262E+02 -0.52443876252E+01  0.46430518530E+02  0.71791665992E+02  0.00000000000E+00 0.  1.
         21    1    1    2  503  502 -0.36528291101E+02  0.12810031721E+02  0.63820793692E+00  0.38714600254E+02  0.00000000000E+00 0. -1.
          1    1    1    2  501    0 -0.15724223536E+02 -0.27601181757E+02  0.14591867048E+03  0.14933631452E+03  0.00000000000E+00 0. -1.
<scales pt_clust_5="13000.00000" pt_clust_6="13000.00000" pt_clust_7="13000.00000" pt_clust_8="13000.00000" pt_clust_9="38.70934" pt_clust_10="13000.00000"></scales>
<clustering>
<clus scale="   38.709">  2  9  1 -1</clus>
<clus scale="   80.715">  5  6 -1 -1</clus>
<clus scale="   81.070">  1  5  2 -1</clus>
<clus scale="   93.447">  7  8 -1 -1</clus>
<clus scale="   35.668">  7 10 -1 -1</clus>
<clus scale="   38.709">  2  5  1 -1</clus>
</clustering>
</event>
<event>
10    4  0.7508634E-005  0.1675999E+03  0.7546771E-02  0.1207202E+00
         21   -1    0    0  501  502  0.00000000000E+00  0.00000000000E+00  0.45291985752E+02  0.45291985752E+02  0.00000000000E+00 0. -1.
          2   -1    0    0  503    0 -0.00000000000E+00 -0.00000000000E+00 -0.80340236266E+03  0.80340236266E+03  0.00000000000E+00 0. -1.
         24    2    1    2    0    0 -0.27380313658E+02  0.32336222423E+02 -0.53095932298E+03  0.53894482600E+03  0.82148706294E+02 0.  0.
         23    2    1    2    0    0  0.59760953422E+02 -0.42111796246E+02 -0.17701178919E+03  0.21254331629E+03  0.92177615793E+02 0.  0.
        -13    1    3    3    0    0 -0.15306797718E+02  0.51701316476E+02 -0.19818501943E+03  0.20538896297E+03  0.00000000000E+00 0.  1.
         14    1    3    3    0    0 -0.12073515940E+02 -0.19365094053E+02 -0.33277430355E+03  0.33355586303E+03  0.00000000000E+00 0. -1.
        -11    1    4    4    0    0  0.47893366135E+02 -0.68111282205E+02 -0.98420264283E+02  0.12891652223E+03  0.00000000000E+00 0. -1.
         11    1    4    4    0    0  0.11867587287E+02  0.25999485959E+02 -0.78591524903E+02  0.83626794060E+02  0.00000000000E+00 0.  1.
         21    1    1    2  503  502  0.16023570669E+02  0.25711693960E+02 -0.86896222089E+01  0.31517543645E+02  0.00000000000E+00 0. -1.
          1    1    1    2  501    0 -0.48404210434E+02 -0.15936120137E+02 -0.41449642531E+02  0.65688662482E+02  0.00000000000E+00 0. -1.
<scales pt_clust_5="13000.00000" pt_clust_6="13000.00000" pt_clust_7="13000.00000" pt_clust_8="13000.00000" pt_clust_9="30.29597" pt_clust_10="13000.00000"></scales>
<clustering>
<clus scale="   30.296">  1  9  2 -1</clus>
<clus scale="   82.149">  5  6 -1 -1</clus>
<clus scale="   92.178">  7  8 -1 -1</clus>
<clus scale="   43.201">  7 10 -1 -1</clus>
<clus scale="   93.000">  2  5  1 -1</clus>
<clus scale="   30.296">  1  5  2 -1</clus>
</clustering>
</event>
<event>
10    4  0.7508634E-005  0.8104645E+03  0.7546771E-02  0.1026026E+00
         21   -1    0    0  501  502  0.00000000000E+00  0.00000000000E+00  0.40244795874E+03  0.40244795874E+03  0.00000000000E+00 0.  1.
          2   -1    0    0  503    0 -0.00000000000E+00 -0.00000000000E+00 -0.64985129559E+03  0.64985129559E+03  0.00000000000E+00 0. -1.
         24    2    1    2    0    0 -0.61406967960E+01 -0.10113305587E+02 -0.44962736735E+02  0.92667090137E+02  0.80159558336E+02 0.  0.
         23    2    1    2    0    0  0.42484363432E+03 -0.59590360709E+01 -0.10746014081E+02  0.43496546864E+03  0.92476258343E+02 0.  0.
        -13    1    3    3    0    0 -0.32647798552E+02 -0.19872702955E+02 -0.51049694499E+02  0.63772050159E+02  0.00000000000E+00 0.  1.
         14    1    3    3    0    0  0.26507101756E+02  0.97593973687E+01  0.60869577645E+01  0.28895039978E+02  0.00000000000E+00 0. -1.
        -11    1    4    4    0    0  0.26811547606E+03 -0.45436340038E+02  0.93404200394E+01  0.27209853536E+03  0.00000000000E+00 0.  1.
         11    1    4    4    0    0  0.15672815826E+03  0.39477303967E+02 -0.20086434121E+02  0.16286693328E+03  0.00000000000E+00 0. -1.
         21    1    1    2  503  502 -0.86798515006E+02 -0.40980907659E+02  0.51815748521E+02  0.10907927757E+03  0.00000000000E+00 0.  1.
          1    1    1    2  501    0 -0.33190442252E+03  0.57053249317E+02 -0.24351033456E+03  0.41558741798E+03  0.00000000000E+00 0. -1.
<scales pt_clust_5="13000.00000" pt_clust_6="13000.00000" pt_clust_7="13000.00000" pt_clust_8="13000.00000" pt_clust_9="96.47348" pt_clust_10="13000.00000"></scales>
<clustering>
<clus scale="   80.160">  5  6 -1 -1</clus>
<clus scale="   81.028">  2  5  1 -1</clus>
<clus scale="   92.476">  7  8 -1 -1</clus>
<clus scale="   96.473">  1  9  2 -1</clus>
<clus scale="  365.356">  7 10 -1 -1</clus>
<clus scale="   96.473">  1  5  2 -1</clus>
</clustering>
</event>
<event>
10    4  0.7508634E-005  0.1463719E+03  0.7546771E-02  0.1226564E+00
         21   -1    0    0  503  502  0.00000000000E+00  0.00000000000E+00  0.87506452754E+02  0.87506452754E+02  0.00000000000E+00 0.  1.
         -1   -1    0    0    0  501 -0.00000000000E+00 -0.00000000000E+00 -0.24463393466E+03  0.24463393466E+03  0.00000000000E+00 0.  1.
         24    2    1    2    0    0  0.45341749186E+02  0.16968827715E+02 -0.12991394308E+03  0.16019211816E+03  0.80250026671E+02 0.  0.
         23    2    1    2    0    0  0.21997288556E+02  0.34501292437E+01 -0.13006532340E+02  0.81210725076E+02  0.77007972887E+02 0.  0.
        -13    1    3    3    0    0  0.58203384059E+02  0.21284885657E+02 -0.13259525339E+03  0.14636318354E+03  0.00000000000E+00 0.  1.
         14    1    3    3    0    0 -0.12861634873E+02 -0.43160579416E+01  0.26813103126E+01  0.13828934621E+02  0.00000000000E+00 0. -1.
        -11    1    4    4    0    0 -0.13042668975E+02  0.24609898053E+02  0.14979372148E+02  0.31624988318E+02  0.00000000000E+00 0. -1.
         11    1    4    4    0    0  0.35039957531E+02 -0.21159768810E+02 -0.27985904487E+02  0.49585736758E+02  0.00000000000E+00 0.  1.
         21    1    1    2  503  501 -0.20870257943E+01 -0.24058724095E+02 -0.17932975247E+01  0.24215569325E+02  0.00000000000E+00 0. -1.
         -2    1    1    2    0  502 -0.65252011948E+02  0.36397671358E+01 -0.12413708963E+02  0.66521974853E+02  0.00000000000E+00 0.  1.
<scales pt_clust_5="13000.00000" pt_clust_6="13000.00000" pt_clust_7="13000.00000" pt_clust_8="13000.00000" pt_clust_9="24.14908" pt_clust_10="13000.00000"></scales>
<clustering>
<clus scale="   24.149">  1  9  2 -1</clus>
<clus scale="   77.008">  7  8 -1 -1</clus>
<clus scale="   66.173">  7 10 -1 -1</clus>
<clus scale="   80.250">  5  6 -1 -1</clus>
<clus scale="   92.775">  2  5  1 -1</clus>
<clus scale="   24.149">  1  5  2 -1</clus>
</clustering>
</event>
<event>
10    4  0.7508634E-005  0.2991755E+03  0.7546771E-02  0.1119660E+00
         21   -1    0    0  503  502  0.00000000000E+00  0.00000000000E+00  0.58166891210E+03  0.58166891210E+03  0.00000000000E+00 0. -1.
          2   -1    0    0  502    0 -0.00000000000E+00 -0.00000000000E+00 -0.36434515390E+03  0.36434515390E+03  0.00000000000E+00 0. -1.
         24    2    1    2    0    0  0.86576713899E+02  0.25930240554E+02 -0.30556967139E+03  0.32986290896E+03  0.85257315630E+02 0.  0.
         23    2    1    2    0    0  0.85712574561E+02 -0.20656055278E+02  0.24041061449E+03  0.27188089447E+03  0.91370887919E+02 0.  0.
        -13    1    3    3    0    0  0.15281694778E+02  0.33710849179E+02 -0.38806801406E+02  0.53627599079E+02  0.00000000000E+00 0.  1.
         14    1    3    3    0    0  0.71295019121E+02 -0.77806086246E+01 -0.26676286999E+03  0.27623530988E+03  0.00000000000E+00 0. -1.
        -13    1    4    4    0    0  0.43331921671E+02 -0.55962769851E+02  0.11768770705E+03  0.13733129081E+03  0.00000000000E+00 0.  1.
         13    1    4    4    0    0  0.42380652890E+02  0.35306714574E+02  0.12272290744E+03  0.13454960366E+03  0.00000000000E+00 0. -1.
         21    1    1    2  503  501 -0.31916612991E+01  0.24115456561E+02  0.46428737499E+02  0.52415356650E+02  0.00000000000E+00 0.  1.
          1    1    1    2  501    0 -0.16909762716E+03 -0.29389641837E+02  0.23605407760E+03  0.29185490592E+03  0.00000000000E+00 0. -1.
<scales pt_clust_5="13000.00000" pt_clust_6="13000.00000" pt_clust_7="13000.00000" pt_clust_8="13000.00000" pt_clust_9="24.32575" pt_clust_10="13000.00000"></scales>
<clustering>
<clus scale="   24.326">  1  9  2 -1</clus>
<clus scale="   85.257">  5  6 -1 -1</clus>
<clus scale="   91.371">  7  8 -1 -1</clus>
<clus scale="  124.310">  2  5  1 -1</clus>
<clus scale="  116.737">  7 10 -1 -1</clus>
<clus scale="   24.326">  1  5  2 -1</clus>
</clustering>
</event>
<event>
10    4  0.7508634E-005  0.1970298E+03  0.7546771E-02  0.1167788E+00
         -1   -1    0    0    0  501 -0.00000000000E+00  0.00000000000E+00  0.11983907742E+03  0.11983907742E+03  0.00000000000E+00 0.  1.
         21   -1    0    0  501  502  0.00000000000E+00 -0.00000000000E+00 -0.32052657081E+03  0.32052657081E+03  0.00000000000E+00 0.  1.
         24    2    1    2    0    0 -0.46577105694E+01 -0.10601632051E+03 -0.13681581992E+01  0.13372353306E+03  0.81356972376E+02 0.  0.
         23    2    1    2    0    0 -0.92589678240E+01  0.35756521768E+02 -0.29503961334E+02  0.10389370011E+03  0.92515727604E+02 0.  0.
        -13    1    3    3    0    0  0.17051494894E+02 -0.48729798492E+02  0.35099838579E+02  0.62428722616E+02  0.00000000000E+00 0.  1.
         14    1    3    3    0    0 -0.21709205463E+02 -0.57286522022E+02 -0.36467996779E+02  0.71294810444E+02  0.00000000000E+00 0. -1.
        -11    1    4    4    0    0 -0.24870842983E+01 -0.31711696090E+02 -0.93693585740E+01  0.33160249355E+02  0.00000000000E+00 0.  1.
         11    1    4    4    0    0 -0.67718835256E+01  0.67468217858E+02 -0.20134602760E+02  0.70733450755E+02  0.00000000000E+00 0. -1.
         21    1    1    2  503  502  0.94413511694E+01 -0.18304909309E+02 -0.46516434475E+02  0.50872266442E+02  0.00000000000E+00 0.  1.
         -2    1    1    2    0  503  0.44753272240E+01  0.88564708055E+02 -0.12329893939E+03  0.15187614862E+03  0.00000000000E+00 0.  1.
<scales pt_clust_5="13000.00000" pt_clust_6="13000.00000" pt_clust_7="13000.00000" pt_clust_8="13000.00000" pt_clust_9="20.59633" pt_clust_10="13000.00000"></scales>
<clustering>
<clus scale="   20.596">  2  9  1 -1</clus>
<clus scale="   81.357">  5  6 -1 -1</clus>
<clus scale="   92.516">  7  8 -1 -1</clus>
<clus scale="   79.838">  7 10 -1 -1</clus>
<clus scale="  137.291">  1  5  2 -1</clus>
<clus scale="   20.596">  2  5  1 -1</clus>
</clustering>
</event>
<event>
10    4  0.7508634E-005  0.2687802E+03  0.7546771E-02  0.1135510E+00
          2   -1    0    0  502    0 -0.00000000000E+00  0.00000000000E+00  0.15077221024E+04  0.15077221024E+04  0.00000000000E+00 0. -1.
         21   -1    0    0  503  502  0.00000000000E+00 -0.00000000000E+00 -0.89991213361E+02  0.89991213361E+02  0.00000000000E+00 0. -1.
         24    2    1    2    0    0 -0.12007481520E+02 -0.84655693284E+02  0.11229205602E+04  0.11289936934E+04  0.79783515073E+02 0.  0.
         23    2    1    2    0    0  0.73891928900E+01  0.14094866074E+03  0.15208029488E+03  0.22644725898E+03  0.90712842920E+02 0.  0.
        -13    1    3    3    0    0  0.19534454727E+02 -0.27702721943E+02  0.14504473309E+03  0.14895304737E+03  0.00000000000E+00 0.  1.
         14    1    3    3    0    0 -0.31541936248E+02 -0.56952971341E+02  0.97787582712E+03  0.98004064607E+03  0.00000000000E+00 0. -1.
        -13    1    4    4    0    0 -0.36964389872E+02  0.58965162994E+02  0.92744427340E+02  0.11595165099E+03  0.00000000000E+00 0. -1.
         13    1    4    4    0    0  0.44353582762E+02  0.81983497748E+02  0.59335867541E+02  0.11049560798E+03  0.00000000000E+00 0.  1.
         21    1    1    2  503  501 -0.97116041086E+01  0.23522529691E+02 -0.37108637811E+02  0.44996396051E+02  0.00000000000E+00 0. -1.
          1    1    1    2  501    0  0.14329892739E+02 -0.79815497149E+02  0.17983867181E+03  0.19727596734E+03  0.00000000000E+00 0. -1.
<scales pt_clust_5="13000.00000" pt_clust_6="13000.00000" pt_clust_7="13000.00000" pt_clust_8="13000.00000" pt_clust_9="25.44847" pt_clust_10="13000.00000"></scales>
<clustering>
<clus scale="   25.448">  2  9  1 -1</clus>
<clus scale="   79.784">  5  6 -1 -1</clus>
<clus scale="   90.713">  7  8 -1 -1</clus>
<clus scale="   76.667">  7 10 -1 -1</clus>
<clus scale="  115.957">  1  5  2 -1</clus>
<clus scale="   25.448">  2  5  1 -1</clus>
</clustering>
</event>
<event>
10    4  0.7508634E-005  0.3781643E+03  0.7546771E-02  0.1096097E+00
          4   -1    0    0  503    0 -0.00000000000E+00  0.00000000000E+00  0.13041837046E+04  0.13041837046E+04  0.00000000000E+00 0. -1.
         21   -1    0    0  501  502  0.00000000000E+00 -0.00000000000E+00 -0.11537655186E+03  0.11537655186E+03  0.00000000000E+00 0. -1.
         24    2    1    2    0    0  0.30761690288E+01  0.76826442216E+02  0.34920835362E+03  0.36686650672E+03  0.82053607338E+02 0.  0.
         23    2    1    2    0    0 -0.14048463202E+02  0.27991574968E+02  0.67992645763E+02  0.11895260326E+03  0.92443682084E+02 0.  0.
        -11    1    3    3    0    0 -0.39040872820E+02  0.44120177563E+02  0.19445172728E+03  0.20318034861E+03  0.00000000000E+00 0.  1.
         12    1    3    3    0    0  0.42117041849E+02  0.32706264653E+02  0.15475662634E+03  0.16368615811E+03  0.00000000000E+00 0. -1.
        -11    1    4    4    0    0  0.17385606081E+02  0.53386502831E+02  0.30837803034E+02  0.64057381146E+02  0.00000000000E+00 0. -1.
         11    1    4    4    0    0 -0.31434069283E+02 -0.25394927863E+02  0.37154842729E+02  0.54895222115E+02  0.00000000000E+00 0.  1.
         21    1    1    2  503  502 -0.17559332800E+03  0.80729191014E+02  0.11148690166E+03  0.22311330835E+03  0.00000000000E+00 0. -1.
          3    1    1    2  501    0  0.18656562218E+03 -0.18554720820E+03  0.66011925170E+03  0.71062783812E+03  0.00000000000E+00 0. -1.
<scales pt_clust_5="13000.00000" pt_clust_6="13000.00000" pt_clust_7="13000.00000" pt_clust_8="13000.00000" pt_clust_9="198.84011" pt_clust_10="13000.00000"></scales>
<clustering>
<clus scale="   82.054">  5  6 -1 -1</clus>
<clus scale="   92.444">  7  8 -1 -1</clus>
<clus scale="  112.448">  1  5  2 -1</clus>
<clus scale="  198.840">  2  9  1 -1</clus>
<clus scale="  143.294">  7 10 -1 -1</clus>
<clus scale="  198.840">  2  5  1 -1</clus>
</clustering>
</event>
<event>
10    4  0.7508634E-005  0.1849477E+03  0.7546771E-02  0.1201348E+00
         21   -1    0    0  503  502  0.00000000000E+00  0.00000000000E+00  0.56177970035E+02  0.56177970035E+02  0.00000000000E+00 0. -1.
          2   -1    0    0  502    0 -0.00000000000E+00 -0.00000000000E+00 -0.54969680600E+03  0.54969680600E+03  0.00000000000E+00 0. -1.
         24    2    1    2    0    0 -0.27825102276E+02 -0.51051110325E+01 -0.17742045259E+03  0.19278165161E+03  0.69903145318E+02 0.  0.
         23    2    1    2    0    0  0.82796273484E+02  0.89911964012E+02 -0.19388007642E+03  0.24590628391E+03  0.89112469696E+02 0.  0.
        -11    1    3    3    0    0 -0.17312886237E+02 -0.36929304291E+02 -0.80744517790E+02  0.90460967817E+02  0.00000000000E+00 0.  1.
         12    1    3    3    0    0 -0.10512216038E+02  0.31824193258E+02 -0.96675934798E+02  0.10232068379E+03  0.00000000000E+00 0. -1.
        -13    1    4    4    0    0  0.74619609394E+02  0.28539324985E+02 -0.65251330055E+02  0.10315190377E+03  0.00000000000E+00 0. -1.
         13    1    4    4    0    0  0.81766640898E+01  0.61372639027E+02 -0.12862874637E+03  0.14275438014E+03  0.00000000000E+00 0.  1.
         21    1    1    2  503  501 -0.20446477375E+02 -0.56876716862E+02 -0.36387171026E+02  0.70548179093E+02  0.00000000000E+00 0. -1.
          1    1    1    2  501    0 -0.34524693833E+02 -0.27930136117E+02 -0.85831135932E+02  0.96638661431E+02  0.00000000000E+00 0. -1.
<scales pt_clust_5="13000.00000" pt_clust_6="13000.00000" pt_clust_7="13000.00000" pt_clust_8="13000.00000" pt_clust_9="60.44021" pt_clust_10="13000.00000"></scales>
<clustering>
<clus scale="   60.440">  1  9  2 -1</clus>
<clus scale="   69.903">  5  6 -1 -1</clus>
<clus scale="   78.520">  2  5  1 -1</clus>
<clus scale="   89.112">  7  8 -1 -1</clus>
<clus scale="   66.364">  7 10 -1 -1</clus>
<clus scale="   60.440">  1  5  2 -1</clus>
</clustering>
</event>
<event>
10    4  0.7508634E-005  0.4913274E+03  0.7546771E-02  0.1016808E+00
          2   -1    0    0  502    0 -0.00000000000E+00  0.00000000000E+00  0.87886281500E+03  0.87886281500E+03  0.00000000000E+00 0. -1.
         21   -1    0    0  503  502  0.00000000000E+00 -0.00000000000E+00 -0.30351147478E+03  0.30351147478E+03  0.00000000000E+00 0. -1.
         24    2    1    2    0    0 -0.29722396362E+03 -0.38399400494E+03  0.16251648207E+03  0.51813498199E+03  0.79112402546E+02 0.  0.
         23    2    1    2    0    0  0.12232726355E+03  0.19388738587E+03  0.23305747373E+03  0.33673249631E+03  0.80726143243E+02 0.  0.
        -13    1    3    3    0    0 -0.96377283207E+02 -0.15658828354E+03  0.96415004434E+02  0.20761580946E+03  0.00000000000E+00 0.  1.
         14    1    3    3    0    0 -0.20084668042E+03 -0.22740572140E+03  0.66101477635E+02  0.31051917253E+03  0.00000000000E+00 0. -1.
        -13    1    4    4    0    0  0.53004392747E+02  0.15357465878E+03  0.16491509065E+03  0.23149865787E+03  0.00000000000E+00 0. -1.
         13    1    4    4    0    0  0.69322870800E+02  0.40312727087E+02  0.68142383079E+02  0.10523383844E+03  0.00000000000E+00 0.  1.
         21    1    1    2  503  501  0.49405075451E+01  0.20380767372E+02 -0.81852718070E+01  0.22511840618E+02  0.00000000000E+00 0. -1.
          1    1    1    2  501    0  0.16995619253E+03  0.16972585170E+03  0.18796265622E+03  0.30499497086E+03  0.00000000000E+00 0. -1.
<scales pt_clust_5="13000.00000" pt_clust_6="13000.00000" pt_clust_7="13000.00000" pt_clust_8="13000.00000" pt_clust_9="20.97103" pt_clust_10="13000.00000"></scales>
<clustering>
<clus scale="   20.971">  2  9  1 -1</clus>
<clus scale="   79.112">  5  6 -1 -1</clus>
<clus scale="   80.726">  7  8 -1 -1</clus>
<clus scale="  243.836">  7 10 -1 -1</clus>
<clus scale="  480.364">  1  5  2 -1</clus>
<clus scale="   20.971">  2  5  1 -1</clus>
</clustering>
</event>
<event>
10    4  0.7508634E-005  0.3773781E+03  0.7546771E-02  0.1088802E+00
         21   -1    0    0  503  502  0.00000000000E+00  0.00000000000E+00  0.32604503563E+03  0.32604503563E+03  0.00000000000E+00 0. -1.
          2   -1    0    0  502    0 -0.00000000000E+00 -0.00000000000E+00 -0.56299695012E+03  0.56299695012E+03  0.00000000000E+00 0. -1.
         24    2    1    2    0    0 -0.15992330497E+02 -0.12047862716E+03 -0.12878808021E+03  0.19728404778E+03  0.86969946918E+02 0.  0.
         23    2    1    2    0    0  0.27515359910E+02 -0.56703845742E+02 -0.33991457653E+03  0.35697723467E+03  0.88985423425E+02 0.  0.
        -11    1    3    3    0    0 -0.36025892878E+02 -0.36616760001E+02 -0.13121482202E+02  0.53017217635E+02  0.00000000000E+00 0.  1.
         12    1    3    3    0    0  0.20033562380E+02 -0.83861867162E+02 -0.11566659801E+03  0.14426683015E+03  0.00000000000E+00 0. -1.
        -13    1    4    4    0    0  0.41122110443E+02  0.63580466313E+01 -0.17533948835E+03  0.18020929194E+03  0.00000000000E+00 0.  1.
         13    1    4    4    0    0 -0.13606750533E+02 -0.63061892374E+02 -0.16457508817E+03  0.17676794273E+03  0.00000000000E+00 0. -1.
         21    1    1    2  503  501 -0.59877447522E+01  0.55989719207E+02  0.20222803739E+03  0.20992113007E+03  0.00000000000E+00 0. -1.
          1    1    1    2  501    0 -0.55352846603E+01  0.12119275370E+03  0.29522704862E+02  0.12485957323E+03  0.00000000000E+00 0. -1.
<scales pt_clust_5="13000.00000" pt_clust_6="13000.00000" pt_clust_7="13000.00000" pt_clust_8="13000.00000" pt_clust_9="56.30898" pt_clust_10="13000.00000"></scales>
<clustering>
<clus scale="   56.309">  1  9  2 -1</clus>
<clus scale="   86.970">  5  6 -1 -1</clus>
<clus scale="   88.985">  7  8 -1 -1</clus>
<clus scale="  137.100">  2  5  1 -1</clus>
<clus scale="  136.674">  7 10 -1 -1</clus>
<clus scale="   56.309">  1  5  2 -1</clus>
</clustering>
</event>
<event>
10    4  0.7508634E-005  0.2102850E+03  0.7546771E-02  0.1179990E+00
          2   -1    0    0  503    0 -0.00000000000E+00  0.00000000000E+00  0.72193350299E+03  0.72193350299E+03  0.00000000000E+00 0. -1.
         21   -1    0    0  501  502  0.00000000000E+00 -0.00000000000E+00 -0.29840776987E+03  0.29840776987E+03  0.00000000000E+00 0.  1.
         24    2    1    2    0    0  0.27596736183E+02 -0.15952477014E+02  0.49336667778E+03  0.50073570066E+03  0.79432372496E+02 0.  0.
         23    2    1    2    0    0  0.31543981063E+02  0.67153237717E+02  0.16104311266E+03  0.19945794064E+03  0.91345530114E+02 0.  0.
        -13    1    3    3    0    0 -0.22974143105E+01  0.27854928121E+02  0.10081537684E+03  0.10461794942E+03  0.00000000000E+00 0.  1.
         14    1    3    3    0    0  0.29894150494E+02 -0.43807405135E+02  0.39255130094E+03  0.39611775124E+03  0.00000000000E+00 0. -1.
        -13    1    4    4    0    0  0.57383130385E+02  0.28014619973E+02  0.58087868819E+02  0.86324058575E+02  0.00000000000E+00 0. -1.
         13    1    4    4    0    0 -0.25839149321E+02  0.39138617744E+02  0.10295524384E+03  0.11313388207E+03  0.00000000000E+00 0.  1.
         21    1    1    2  503  502 -0.66588475823E+01 -0.98879074128E+02 -0.22865440172E+03  0.24920723701E+03  0.00000000000E+00 0.  1.
          1    1    1    2  501    0 -0.52481869664E+02  0.47678313425E+02 -0.22296555991E+01  0.70940394548E+02  0.00000000000E+00 0. -1.
<scales pt_clust_5="13000.00000" pt_clust_6="13000.00000" pt_clust_7="13000.00000" pt_clust_8="13000.00000" pt_clust_9="99.75420" pt_clust_10="13000.00000"></scales>
<clustering>
<clus scale="   79.432">  5  6 -1 -1</clus>
<clus scale="   85.590">  1  5  2 -1</clus>
<clus scale="   91.346">  7  8 -1 -1</clus>
<clus scale="   66.154">  7 10 -1 -1</clus>
<clus scale="   99.754">  2  9  1 -1</clus>
<clus scale="   99.754">  2  5  1 -1</clus>
</clustering>
</event>
<event>
10    4  0.7508634E-005  0.2905892E+03  0.7546771E-02  0.1135139E+00
         21   -1    0    0  503  502  0.00000000000E+00  0.00000000000E+00  0.19096783891E+03  0.19096783891E+03  0.00000000000E+00 0.  1.
          2   -1    0    0  502    0 -0.00000000000E+00 -0.00000000000E+00 -0.11698358343E+04  0.11698358343E+04  0.00000000000E+00 0. -1.
         24    2    1    2    0    0 -0.34535505483E+02 -0.39250012369E+02 -0.49167984880E+02  0.10483467015E+03  0.76416966171E+02 0.  0.
         23    2    1    2    0    0 -0.73325850956E+01  0.18504557298E+02 -0.15283673845E+03  0.18673195640E+03  0.10542091574E+03 0.  0.
        -13    1    3    3    0    0 -0.20510162291E+02 -0.24274047255E+02  0.16661454099E+02  0.35881752744E+02  0.00000000000E+00 0.  1.
         14    1    3    3    0    0 -0.14025343192E+02 -0.14975965114E+02 -0.65829438979E+02  0.68952917408E+02  0.00000000000E+00 0. -1.
        -13    1    4    4    0    0  0.43333419992E+02  0.24674700329E+02 -0.43923460273E+02  0.66452212054E+02  0.00000000000E+00 0.  1.
         13    1    4    4    0    0 -0.50666005088E+02 -0.61701430309E+01 -0.10891327817E+03  0.12027974434E+03  0.00000000000E+00 0. -1.
         21    1    1    2  503  501 -0.51585547978E+02 -0.89338960821E+02  0.12147337175E+03  0.15936843704E+03  0.00000000000E+00 0.  1.
          1    1    1    2  501    0  0.93453638557E+02  0.11008441589E+03 -0.89833664385E+03  0.90986860967E+03  0.00000000000E+00 0. -1.
<scales pt_clust_5="13000.00000" pt_clust_6="13000.00000" pt_clust_7="13000.00000" pt_clust_8="13000.00000" pt_clust_9="104.05148" pt_clust_10="13000.00000"></scales>
<clustering>
<clus scale="   76.417">  5  6 -1 -1</clus>
<clus scale="   92.590">  2  5  1 -1</clus>
<clus scale="  104.051">  1  9  2 -1</clus>
<clus scale="  105.421">  7  8 -1 -1</clus>
<clus scale="   48.131">  7 10 -1 -1</clus>
<clus scale="  104.051">  1  5  2 -1</clus>
</clustering>
</event>
<event>
10    4  0.7508634E-005  0.8927216E+03  0.7546771E-02  0.9741441E-01
         21   -1    0    0  503  502  0.00000000000E+00  0.00000000000E+00  0.24671073115E+03  0.24671073115E+03  0.00000000000E+00 0. -1.
          2   -1    0    0  502    0 -0.00000000000E+00 -0.00000000000E+00 -0.22962016476E+04  0.22962016476E+04  0.00000000000E+00 0. -1.
         24    2    1    2    0    0 -0.22932119286E+03  0.19765263009E+03 -0.12686972984E+04  0.13068188951E+04  0.80796150871E+02 0.  0.
         23    2    1    2    0    0 -0.23458465799E+02  0.19748841944E+03 -0.71055055928E+03  0.74343850317E+03  0.90921588556E+02 0.  0.
        -11    1    3    3    0    0 -0.12403805717E+03  0.58034344499E+02 -0.62203494445E+03  0.63693084152E+03  0.00000000000E+00 0.  1.
         12    1    3    3    0    0 -0.10528313570E+03  0.13961828559E+03 -0.64666235391E+03  0.66988805356E+03  0.00000000000E+00 0. -1.
        -13    1    4    4    0    0 -0.51896668417E+02  0.15211514093E+03 -0.46121052592E+03  0.48841317500E+03  0.00000000000E+00 0.  1.
         13    1    4    4    0    0  0.28438202618E+02  0.45373278511E+02 -0.24934003336E+03  0.25502532817E+03  0.00000000000E+00 0. -1.
         21    1    1    2  503  501  0.14963508326E+02 -0.18755063393E+02  0.27844647983E+02  0.36755726160E+02  0.00000000000E+00 0. -1.
          1    1    1    2  501    0  0.23781615034E+03 -0.37638598614E+03 -0.98087706832E+02  0.45589925439E+03  0.00000000000E+00 0. -1.
<scales pt_clust_5="13000.00000" pt_clust_6="13000.00000" pt_clust_7="13000.00000" pt_clust_8="13000.00000" pt_clust_9="23.99289" pt_clust_10="13000.00000"></scales>
<clustering>
<clus scale="   23.993">  1  9  2 -1</clus>
<clus scale="   80.796">  5  6 -1 -1</clus>
<clus scale="   90.922">  7  8 -1 -1</clus>
<clus scale="  311.317">  2  5  1 -1</clus>
<clus scale="  380.213">  7 10 -1 -1</clus>
<clus scale="   23.993">  1  5  2 -1</clus>
</clustering>
</event>
<event>
10    4  0.7508634E-005  0.6994337E+03  0.7546771E-02  0.1002651E+00
         21   -1    0    0  503  502  0.00000000000E+00  0.00000000000E+00  0.96034824122E+03  0.96034824122E+03  0.00000000000E+00 0.  1.
          4   -1    0    0  502    0 -0.00000000000E+00 -0.00000000000E+00 -0.38565611338E+03  0.38565611338E+03  0.00000000000E+00 0. -1.
         24    2    1    2    0    0 -0.23027644052E+03 -0.83231487854E+02 -0.15459009029E+03  0.30059080451E+03  0.80635079885E+02 0.  0.
         23    2    1    2    0    0 -0.21377528073E+03 -0.16780952637E+02  0.14983926854E+03  0.27692701082E+03  0.90858636921E+02 0.  0.
        -11    1    3    3    0    0 -0.21167688635E+03 -0.47211000657E+02 -0.12417833365E+03  0.24991246736E+03  0.00000000000E+00 0.  1.
         12    1    3    3    0    0 -0.18599554175E+02 -0.36020487197E+02 -0.30411756644E+02  0.50678337144E+02  0.00000000000E+00 0. -1.
        -11    1    4    4    0    0 -0.14079220922E+03 -0.51181972721E+02  0.78005840376E+02  0.16889923517E+03  0.00000000000E+00 0.  1.
         11    1    4    4    0    0 -0.72983071509E+02  0.34401020084E+02  0.71833428169E+02  0.10802777565E+03  0.00000000000E+00 0. -1.
         21    1    1    2  503  501 -0.10009761856E+02  0.24315366029E+02  0.10174645430E+03  0.10508935873E+03  0.00000000000E+00 0.  1.
          3    1    1    2  501    0  0.45406148311E+03  0.75697074463E+02  0.47769649529E+03  0.66339718053E+03  0.00000000000E+00 0. -1.
<scales pt_clust_5="13000.00000" pt_clust_6="13000.00000" pt_clust_7="13000.00000" pt_clust_8="13000.00000" pt_clust_9="26.29510" pt_clust_10="13000.00000"></scales>
<clustering>
<clus scale="   26.295">  1  9  2 -1</clus>
<clus scale="   80.635">  5  6 -1 -1</clus>
<clus scale="   90.859">  7  8 -1 -1</clus>
<clus scale="  257.895">  2  5  1 -1</clus>
<clus scale="  315.544">  7 10 -1 -1</clus>
<clus scale="   26.295">  1  5  2 -1</clus>
</clustering>
</event>
<event>
10    4  0.7508634E-005  0.3654385E+03  0.7546771E-02  0.1068495E+00
          2   -1    0    0  503    0 -0.00000000000E+00  0.00000000000E+00  0.74124454690E+03  0.74124454690E+03  0.00000000000E+00 0. -1.
         21   -1    0    0  501  502  0.00000000000E+00 -0.00000000000E+00 -0.45733624121E+03  0.45733624121E+03  0.00000000000E+00 0. -1.
         24    2    1    2    0    0 -0.14115260519E+03 -0.19754960649E+03  0.23774221365E+03  0.34893673691E+03  0.79281657644E+02 0.  0.
         23    2    1    2    0    0  0.28767264149E+02 -0.34896981154E+02  0.70781758468E+02  0.12381753700E+03  0.90969062631E+02 0.  0.
        -11    1    3    3    0    0 -0.14397374637E+03 -0.19995159487E+03  0.24050613764E+03  0.34431422012E+03  0.00000000000E+00 0.  1.
         12    1    3    3    0    0  0.28211411734E+01  0.24019883807E+01 -0.27639239881E+01  0.46225167942E+01  0.00000000000E+00 0. -1.
        -11    1    4    4    0    0 -0.26555497093E+02 -0.87174395056E+01  0.53270110507E+02  0.60157234401E+02  0.00000000000E+00 0. -1.
         11    1    4    4    0    0  0.55322761242E+02 -0.26179541648E+02  0.17511647961E+02  0.63660302596E+02  0.00000000000E+00 0.  1.
         21    1    1    2  503  502 -0.42969195146E+02  0.14410368725E+02 -0.32229556172E+03  0.32546649530E+03  0.00000000000E+00 0. -1.
          1    1    1    2  501    0  0.15535453619E+03  0.21803621892E+03  0.29767989529E+03  0.40036001890E+03  0.00000000000E+00 0. -1.
<scales pt_clust_5="13000.00000" pt_clust_6="13000.00000" pt_clust_7="13000.00000" pt_clust_8="13000.00000" pt_clust_9="45.32119" pt_clust_10="13000.00000"></scales>
<clustering>
<clus scale="   45.321">  2  9  1 -1</clus>
<clus scale="   79.282">  5  6 -1 -1</clus>
<clus scale="   90.969">  7  8 -1 -1</clus>
<clus scale="  261.292">  1  5  2 -1</clus>
<clus scale="   74.801">  7 10 -1 -1</clus>
<clus scale="   45.321">  2  5  1 -1</clus>
</clustering>
</event>
<event>
10    4  0.7508634E-005  0.3952600E+03  0.7546771E-02  0.1096481E+00
         -1   -1    0    0    0  501 -0.00000000000E+00  0.00000000000E+00  0.28231588223E+03  0.28231588223E+03  0.00000000000E+00 0.  1.
         21   -1    0    0  503  502  0.00000000000E+00 -0.00000000000E+00 -0.23984913903E+03  0.23984913903E+03  0.00000000000E+00 0. -1.
         24    2    1    2    0    0  0.48074521657E+02  0.14856331280E+02  0.82041183514E+01  0.96338770768E+02  0.81743384952E+02 0.  0.
         23    2    1    2    0    0 -0.63843940808E+02  0.15752999293E+03 -0.76220691607E+02  0.20772568418E+03  0.91916367361E+02 0.  0.
        -13    1    3    3    0    0  0.88064879675E+01  0.45342571450E+02  0.59874091770E+01  0.46576303897E+02  0.00000000000E+00 0.  1.
         14    1    3    3    0    0  0.39268033689E+02 -0.30486240170E+02  0.22167091744E+01  0.49762466871E+02  0.00000000000E+00 0. -1.
        -11    1    4    4    0    0 -0.13641320945E+02  0.98517573189E+02 -0.83561446994E+02  0.12990116738E+03  0.00000000000E+00 0. -1.
         11    1    4    4    0    0 -0.50202619863E+02  0.59012419739E+02  0.73407553874E+01  0.77824516794E+02  0.00000000000E+00 0.  1.
         21    1    1    2  503  501  0.19610141353E+02 -0.17861615480E+02 -0.24929936792E+01  0.26642259080E+02  0.00000000000E+00 0.  1.
         -2    1    1    2    0  502 -0.38407222017E+01 -0.15452470873E+03  0.11297631014E+03  0.19145830723E+03  0.00000000000E+00 0.  1.
<scales pt_clust_5="13000.00000" pt_clust_6="13000.00000" pt_clust_7="13000.00000" pt_clust_8="13000.00000" pt_clust_9="26.52536" pt_clust_10="13000.00000"></scales>
<clustering>
<clus scale="   26.525">  2  9  1 -1</clus>
<clus scale="   81.743">  5  6 -1 -1</clus>
<clus scale="   91.916">  7  8 -1 -1</clus>
<clus scale="   97.498">  1  5  2 -1</clus>
<clus scale="  153.943">  7 10 -1 -1</clus>
<clus scale="   26.525">  2  5  1 -1</clus>
</clustering>
</event>
<event>
10    4  0.7508634E-005  0.1685429E+03  0.7546771E-02  0.1212923E+00
          2   -1    0    0  502    0 -0.00000000000E+00  0.00000000000E+00  0.71116156468E+03  0.71116156468E+03  0.00000000000E+00 0. -1.
         21   -1    0    0  503  502  0.00000000000E+00 -0.00000000000E+00 -0.80430892709E+02  0.80430892709E+02  0.00000000000E+00 0.  1.
         24    2    1    2    0    0 -0.14179654951E+02  0.25042652662E+01  0.22499198839E+03  0.23929344332E+03  0.80203635935E+02 0.  0.
         23    2    1    2    0    0  0.36477425536E+02  0.32063175569E+02  0.16918191472E+03  0.19693404557E+03  0.88328071622E+02 0.  0.
        -13    1    3    3    0    0  0.28052259050E+02  0.14854903823E+02  0.14038317420E+03  0.14392717952E+03  0.00000000000E+00 0.  1.
         14    1    3    3    0    0 -0.42231914001E+02 -0.12350638556E+02  0.84608814190E+02  0.95366263802E+02  0.00000000000E+00 0. -1.
        -11    1    4    4    0    0  0.62672730549E+02  0.55784201235E+01  0.95387824560E+02  0.11427084930E+03  0.00000000000E+00 0.  1.
         11    1    4    4    0    0 -0.26195305012E+02  0.26484755446E+02  0.73794090158E+02  0.82663196273E+02  0.00000000000E+00 0. -1.
         21    1    1    2  503  501  0.19202605044E+02 -0.30661023974E+02 -0.52257295316E+02  0.63558345993E+02  0.00000000000E+00 0.  1.
          1    1    1    2  501    0 -0.41500375630E+02 -0.39064168616E+01  0.28881406418E+03  0.29180662250E+03  0.00000000000E+00 0. -1.
<scales pt_clust_5="13000.00000" pt_clust_6="13000.00000" pt_clust_7="13000.00000" pt_clust_8="13000.00000" pt_clust_9="36.17787" pt_clust_10="13000.00000"></scales>
<clustering>
<clus scale="   36.178">  2  9  1 -1</clus>
<clus scale="   80.204">  5  6 -1 -1</clus>
<clus scale="   80.934">  1  5  2 -1</clus>
<clus scale="   88.328">  7  8 -1 -1</clus>
<clus scale="   46.084">  7 10 -1 -1</clus>
<clus scale="   36.178">  2  5  1 -1</clus>
</clustering>
</event>
<event>
10    4  0.7508634E-005  0.3099859E+03  0.7546771E-02  0.1126768E+00
          2   -1    0    0  503    0 -0.00000000000E+00  0.00000000000E+00  0.64338200787E+03  0.64338200787E+03  0.00000000000E+00 0. -1.
         21   -1    0    0  501  502  0.00000000000E+00 -0.00000000000E+00 -0.98879545821E+02  0.98879545821E+02  0.00000000000E+00 0. -1.
         24    2    1    2    0    0 -0.20721425120E+02 -0.34129150984E+02  0.22213027212E+02  0.92391508056E+02  0.80303149235E+02 0.  0.
         23    2    1    2    0    0  0.15434512351E+03 -0.14973066431E+02  0.26544525475E+03  0.32619160733E+03  0.10905581853E+03 0.  0.
        -11    1    3    3    0    0 -0.64742645543E+01 -0.44035666024E+02  0.45302090979E+02  0.63508546124E+02  0.00000000000E+00 0.  1.
         12    1    3    3    0    0 -0.14247160566E+02  0.99065150395E+01 -0.23089063766E+02  0.28882961933E+02  0.00000000000E+00 0. -1.
        -13    1    4    4    0    0 -0.37420068535E+01 -0.28879036566E+02  0.59032440007E+02  0.65824238252E+02  0.00000000000E+00 0.  1.
         13    1    4    4    0    0  0.15808713036E+03  0.13905970134E+02  0.20641281474E+03  0.26036736908E+03  0.00000000000E+00 0. -1.
         21    1    1    2  503  502 -0.29134101113E+02 -0.16834588682E+00 -0.11656706077E+02  0.31379977447E+02  0.00000000000E+00 0.  1.
          1    1    1    2  501    0 -0.10448959728E+03  0.49270563303E+02  0.26850088616E+03  0.29229846085E+03  0.00000000000E+00 0. -1.
<scales pt_clust_5="13000.00000" pt_clust_6="13000.00000" pt_clust_7="13000.00000" pt_clust_8="13000.00000" pt_clust_9="29.13459" pt_clust_10="13000.00000"></scales>
<clustering>
<clus scale="   29.135">  2  9  1 -1</clus>
<clus scale="   80.303">  5  6 -1 -1</clus>
<clus scale="   93.650">  1  5  2 -1</clus>
<clus scale="  109.056">  7  8 -1 -1</clus>
<clus scale="  130.628">  7 10 -1 -1</clus>
<clus scale="   29.135">  2  5  1 -1</clus>
</clustering>
</event>
<event>
10    4  0.7508634E-005  0.9131871E+03  0.7546771E-02  0.9661942E-01
          2   -1    0    0  502    0 -0.00000000000E+00  0.00000000000E+00  0.18001161961E+04  0.18001161961E+04  0.00000000000E+00 0. -1.
         21   -1    0    0  503  502  0.00000000000E+00 -0.00000000000E+00 -0.76461481539E+03  0.76461481539E+03  0.00000000000E+00 0. -1.
         24    2    1    2    0    0 -0.11038449602E+03 -0.35359910374E+03  0.14086081569E+04  0.14587104084E+04  0.80262398377E+02 0.  0.
         23    2    1    2    0    0  0.24378704712E+03 -0.66509364410E+02  0.19708466629E+03  0.33885214963E+03  0.11010355909E+03 0.  0.
        -13    1    3    3    0    0  0.10663676992E+02 -0.64769056523E+02  0.22609431197E+03  0.23543020749E+03  0.00000000000E+00 0.  1.
         14    1    3    3    0    0 -0.12104817302E+03 -0.28883004722E+03  0.11825138450E+04  0.12232802009E+04  0.00000000000E+00 0. -1.
        -11    1    4    4    0    0  0.27573936540E+02 -0.37657112039E+02  0.76492081061E+02  0.89607022763E+02  0.00000000000E+00 0.  1.
         11    1    4    4    0    0  0.21621311058E+03 -0.28852252371E+02  0.12059258523E+03  0.24924512687E+03  0.00000000000E+00 0. -1.
         21    1    1    2  503  501 -0.20264031465E+02 -0.10555046373E+02 -0.16041395677E+03  0.16203295190E+03  0.00000000000E+00 0.  1.
          1    1    1    2  501    0 -0.11313851963E+03  0.43066351452E+03 -0.40977748579E+03  0.60513550154E+03  0.00000000000E+00 0. -1.
<scales pt_clust_5="13000.00000" pt_clust_6="13000.00000" pt_clust_7="13000.00000" pt_clust_8="13000.00000" pt_clust_9="22.84819" pt_clust_10="13000.00000"></scales>
<clustering>
<clus scale="   22.848">  2  9  1 -1</clus>
<clus scale="   80.262">  5  6 -1 -1</clus>
<clus scale="  110.104">  7  8 -1 -1</clus>
<clus scale="  379.678">  1  5  2 -1</clus>
<clus scale="  364.138">  7 10 -1 -1</clus>
<clus scale="   22.848">  2  5  1 -1</clus>
</clustering>
</event>
<event>
10    4  0.7508634E-005  0.2966922E+03  0.7546771E-02  0.1137554E+00
         21   -1    0    0  501  502  0.00000000000E+00  0.00000000000E+00  0.15528389089E+03  0.15528389089E+03  0.00000000000E+00 0.  1.
          2   -1    0    0  503    0 -0.00000000000E+00 -0.00000000000E+00 -0.78975070939E+03  0.78975070939E+03  0.00000000000E+00 0. -1.
         24    2    1    2    0    0  0.12093907837E+02 -0.61594959270E+00 -0.23846550532E+03  0.25198650559E+03  0.80528006150E+02 0.  0.
         23    2    1    2    0    0 -0.22958384506E+02  0.69113185478E+02 -0.62613057539E+02  0.13291962555E+03  0.91888585017E+02 0.  0.
        -11    1    3    3    0    0  0.38922200130E+02  0.18857183643E+02 -0.17637706159E+03  0.18160230971E+03  0.00000000000E+00 0.  1.
         12    1    3    3    0    0 -0.26828292293E+02 -0.19473133236E+02 -0.62088443730E+02  0.70384195883E+02  0.00000000000E+00 0. -1.
        -11    1    4    4    0    0  0.30692327865E+02  0.33153492586E+02 -0.49493854862E+02  0.67013541389E+02  0.00000000000E+00 0. -1.
         11    1    4    4    0    0 -0.53650712370E+02  0.35959692892E+02 -0.13119202677E+02  0.65906084162E+02  0.00000000000E+00 0.  1.
         21    1    1    2  503  502  0.20024082349E+02  0.39861798474E+02  0.10201968839E+03  0.11134605368E+03  0.00000000000E+00 0.  1.
          1    1    1    2  501    0 -0.91596056811E+01 -0.10835903436E+03 -0.43540794403E+03  0.44878241546E+03  0.00000000000E+00 0. -1.
<scales pt_clust_5="13000.00000" pt_clust_6="13000.00000" pt_clust_7="13000.00000" pt_clust_8="13000.00000" pt_clust_9="44.60860" pt_clust_10="13000.00000"></scales>
<clustering>
<clus scale="   44.609">  1  9  2 -1</clus>
<clus scale="   80.528">  5  6 -1 -1</clus>
<clus scale="   82.039">  2  5  1 -1</clus>
<clus scale="   91.889">  7  8 -1 -1</clus>
<clus scale="   99.331">  7 10 -1 -1</clus>
<clus scale="   44.609">  1  5  2 -1</clus>
</clustering>
</event>
<event>
10    4  0.7508634E-005  0.4236752E+03  0.7546771E-02  0.1076893E+00
         21   -1    0    0  501  502  0.00000000000E+00  0.00000000000E+00  0.16414905775E+03  0.16414905775E+03  0.00000000000E+00 0. -1.
          2   -1    0    0  503    0 -0.00000000000E+00 -0.00000000000E+00 -0.61885510304E+03  0.61885510304E+03  0.00000000000E+00 0. -1.
         24    2    1    2    0    0 -0.87632171204E+02 -0.53642795967E+02 -0.10581926220E+03  0.16728314521E+03  0.78923934469E+02 0.  0.
         23    2    1    2    0    0 -0.92028205132E+02 -0.71541661392E+02 -0.29331148188E+02  0.15061683191E+03  0.90761852926E+02 0.  0.
        -11    1    3    3    0    0 -0.24687163258E+02 -0.59407625325E+02 -0.38652938211E+02  0.75051792842E+02  0.00000000000E+00 0.  1.
         12    1    3    3    0    0 -0.62945007945E+02  0.57648293573E+01 -0.67166323986E+02  0.92231352373E+02  0.00000000000E+00 0. -1.
        -11    1    4    4    0    0 -0.20412260416E+02 -0.29132460558E+02  0.31508961324E+02  0.47520261754E+02  0.00000000000E+00 0. -1.
         11    1    4    4    0    0 -0.71615944716E+02 -0.42409200835E+02 -0.60840109512E+02  0.10309657016E+03  0.00000000000E+00 0.  1.
         21    1    1    2  503  502 -0.35171310689E+02  0.22990842073E+02  0.23107795057E+02  0.47953833082E+02  0.00000000000E+00 0. -1.
          1    1    1    2  501    0  0.21483168702E+03  0.10219361529E+03 -0.34266342996E+03  0.41715035058E+03  0.00000000000E+00 0. -1.
<scales pt_clust_5="13000.00000" pt_clust_6="13000.00000" pt_clust_7="13000.00000" pt_clust_8="13000.00000" pt_clust_9="42.01904" pt_clust_10="13000.00000"></scales>
<clustering>
<clus scale="   42.019">  1  9  2 -1</clus>
<clus scale="   78.924">  5  6 -1 -1</clus>
<clus scale="   90.762">  7  8 -1 -1</clus>
<clus scale="  133.305">  2  5  1 -1</clus>
<clus scale="  148.914">  7 10 -1 -1</clus>
<clus scale="   42.019">  1  5  2 -1</clus>
</clustering>
</event>
<event>
10    4  0.7508634E-005  0.9795588E+03  0.7546771E-02  0.1005313E+00
          2   -1    0    0  503    0 -0.00000000000E+00  0.00000000000E+00  0.24991616896E+04  0.24991616896E+04  0.00000000000E+00 0. -1.
         21   -1    0    0  501  502  0.00000000000E+00 -0.00000000000E+00 -0.39859070750E+03  0.39859070750E+03  0.00000000000E+00 0.  1.
         24    2    1    2    0    0  0.23565540238E+02  0.48059190760E+02 -0.61755064178E+02  0.11089415972E+03  0.74958696662E+02 0.  0.
         23    2    1    2    0    0  0.96516658779E+02  0.25452371766E+03  0.15563337137E+03  0.32880406115E+03  0.98957445734E+02 0.  0.
        -11    1    3    3    0    0  0.40053149736E+02  0.59514594264E+02 -0.44476873743E+02  0.84406362509E+02  0.00000000000E+00 0.  1.
         12    1    3    3    0    0 -0.16487609498E+02 -0.11455403504E+02 -0.17278190435E+02  0.26487797211E+02  0.00000000000E+00 0. -1.
        -13    1    4    4    0    0  0.79790749566E+02  0.14416482978E+03  0.13975911995E+03  0.21606173532E+03  0.00000000000E+00 0.  1.
         13    1    4    4    0    0  0.16725909213E+02  0.11035888789E+03  0.15874251427E+02  0.11274232583E+03  0.00000000000E+00 0. -1.
         21    1    1    2  503  502 -0.24969054321E+02 -0.14376049652E+02 -0.21439743202E+03  0.21632471734E+03  0.00000000000E+00 0.  1.
          1    1    1    2  501    0 -0.95113144696E+02 -0.28820685877E+03  0.22210901070E+04  0.22417294589E+04  0.00000000000E+00 0. -1.
<scales pt_clust_5="13000.00000" pt_clust_6="13000.00000" pt_clust_7="13000.00000" pt_clust_8="13000.00000" pt_clust_9="28.81188" pt_clust_10="13000.00000"></scales>
<clustering>
<clus scale="   28.812">  2  9  1 -1</clus>
<clus scale="   74.959">  5  6 -1 -1</clus>
<clus scale="   86.387">  1  5  2 -1</clus>
<clus scale="   98.957">  7  8 -1 -1</clus>
<clus scale="  265.750">  7 10 -1 -1</clus>
<clus scale="   28.812">  2  5  1 -1</clus>
</clustering>
</event>
<event>
10    4  0.7508634E-005  0.2094739E+03  0.7546771E-02  0.1160550E+00
         21   -1    0    0  501  502  0.00000000000E+00  0.00000000000E+00  0.34294726463E+03  0.34294726463E+03  0.00000000000E+00 0.  1.
          2   -1    0    0  503    0 -0.00000000000E+00 -0.00000000000E+00 -0.11475810928E+03  0.11475810928E+03  0.00000000000E+00 0. -1.
         24    2    1    2    0    0  0.10376918176E+03  0.40443956194E+02  0.43389939650E+02  0.14505805709E+03  0.82191218424E+02 0.  0.
         23    2    1    2    0    0 -0.42624767961E+02 -0.33506066300E+02  0.14883536036E+03  0.18308223050E+03  0.91802022349E+02 0.  0.
        -13    1    3    3    0    0  0.93741830952E+02  0.40357586758E+02  0.65161657690E+02  0.12108801473E+03  0.00000000000E+00 0.  1.
         14    1    3    3    0    0  0.10027350812E+02  0.86369435815E-01 -0.21771718040E+02  0.23970042353E+02  0.00000000000E+00 0. -1.
        -13    1    4    4    0    0 -0.13263247382E+02 -0.59439509594E+02  0.57744934059E+02  0.83925243171E+02  0.00000000000E+00 0.  1.
         13    1    4    4    0    0 -0.29361520578E+02  0.25933443294E+02  0.91090426299E+02  0.99156987324E+02  0.00000000000E+00 0. -1.
         21    1    1    2  503  502  0.27022832034E+00 -0.44030085037E+02  0.37449511631E+02  0.57803004533E+02  0.00000000000E+00 0. -1.
          1    1    1    2  501    0 -0.61414642124E+02  0.37092195143E+02 -0.14856562897E+01  0.71762081786E+02  0.00000000000E+00 0. -1.
<scales pt_clust_5="13000.00000" pt_clust_6="13000.00000" pt_clust_7="13000.00000" pt_clust_8="13000.00000" pt_clust_9="44.03091" pt_clust_10="13000.00000"></scales>
<clustering>
<clus scale="   44.031">  1  9  2 -1</clus>
<clus scale="   82.191">  5  6 -1 -1</clus>
<clus scale="   91.802">  7  8 -1 -1</clus>
<clus scale="   69.155">  7 10 -1 -1</clus>
<clus scale="  135.048">  2  5  1 -1</clus>
<clus scale="   44.031">  1  5  2 -1</clus>
</clustering>
</event>
<event>
10    4  0.7508634E-005  0.1532600E+03  0.7546771E-02  0.1208957E+00
          2   -1    0    0  502    0 -0.00000000000E+00  0.00000000000E+00  0.70807711834E+03  0.70807711834E+03  0.00000000000E+00 0. -1.
         21   -1    0    0  503  502  0.00000000000E+00 -0.00000000000E+00 -0.10922496759E+03  0.10922496759E+03  0.00000000000E+00 0.  1.
         24    2    1    2    0    0  0.19943949230E+02 -0.82731877386E+02  0.60634753318E+03  0.61746656392E+03  0.79782842251E+02 0.  0.
         23    2    1    2    0    0 -0.53436998406E+02  0.51636575260E+02  0.37824410796E+02  0.12251886301E+03  0.89768240702E+02 0.  0.
        -11    1    3    3    0    0 -0.20678054192E+02  0.28806176397E+01  0.81403837910E+02  0.84038471605E+02  0.00000000000E+00 0.  1.
         12    1    3    3    0    0  0.40622003422E+02 -0.85612495026E+02  0.52494369527E+03  0.53342809232E+03  0.00000000000E+00 0. -1.
        -13    1    4    4    0    0 -0.61553265861E+02 -0.23082116491E+01  0.25021824808E+02  0.66484765893E+02  0.00000000000E+00 0.  1.
         13    1    4    4    0    0  0.81162674552E+01  0.53944786909E+02  0.12802585987E+02  0.56034097119E+02  0.00000000000E+00 0. -1.
         21    1    1    2  503  501  0.24217171723E+02 -0.31242896913E+01 -0.30033527431E+02  0.38707174558E+02  0.00000000000E+00 0.  1.
          1    1    1    2  501    0  0.92758774534E+01  0.34219591818E+02 -0.15286265794E+02  0.38609484439E+02  0.00000000000E+00 0. -1.
<scales pt_clust_5="13000.00000" pt_clust_6="13000.00000" pt_clust_7="13000.00000" pt_clust_8="13000.00000" pt_clust_9="24.41787" pt_clust_10="13000.00000"></scales>
<clustering>
<clus scale="   24.418">  2  9  1 -1</clus>
<clus scale="   79.783">  5  6 -1 -1</clus>
<clus scale="   89.768">  7  8 -1 -1</clus>
<clus scale="   37.670">  7 10 -1 -1</clus>
<clus scale="  117.137">  1  5  2 -1</clus>
<clus scale="   24.418">  2  5  1 -1</clus>
</clustering>
</event>
<event>
10    4  0.7508634E-005  0.9475480E+03  0.7546771E-02  0.9898221E-01
         21   -1    0    0  501  502  0.00000000000E+00  0.00000000000E+00  0.13613925873E+03  0.13613925873E+03  0.00000000000E+00 0. -1.
          2   -1    0    0  503    0 -0.00000000000E+00 -0.00000000000E+00 -0.31122689473E+04  0.31122689473E+04  0.00000000000E+00 0. -1.
         24    2    1    2    0    0 -0.12435073134E+03  0.35747697582E+02 -0.80478623507E+03  0.81912054229E+03  0.80849096312E+02 0.  0.
         23    2    1    2    0    0 -0.19968463190E+03 -0.34005379241E+03 -0.67561289253E+03  0.78761112470E+03  0.91476604980E+02 0.  0.
        -13    1    3    3    0    0  0.25736580925E+01  0.22483276882E+02 -0.78044661208E+02  0.81259403139E+02  0.00000000000E+00 0.  1.
         14    1    3    3    0    0 -0.12692438943E+03  0.13264420700E+02 -0.72674157386E+03  0.73786113915E+03  0.00000000000E+00 0. -1.
        -13    1    4    4    0    0 -0.85933541246E+02 -0.10677475046E+03 -0.31295672427E+03  0.34165381911E+03  0.00000000000E+00 0.  1.
         13    1    4    4    0    0 -0.11375109065E+03 -0.23327904194E+03 -0.36265616826E+03  0.44595730559E+03  0.00000000000E+00 0. -1.
         21    1    1    2  503  502 -0.75300384721E+02 -0.47516519173E+02 -0.52318002443E+02  0.10327216911E+03  0.00000000000E+00 0. -1.
          1    1    1    2  501    0  0.39933574796E+03  0.35182261400E+03 -0.14434125585E+04  0.15384043699E+04  0.00000000000E+00 0. -1.
<scales pt_clust_5="13000.00000" pt_clust_6="13000.00000" pt_clust_7="13000.00000" pt_clust_8="13000.00000" pt_clust_9="89.03913" pt_clust_10="13000.00000"></scales>
<clustering>
<clus scale="   80.849">  5  6 -1 -1</clus>
<clus scale="   89.039">  1  9  2 -1</clus>
<clus scale="   91.477">  7  8 -1 -1</clus>
<clus scale="  155.896">  2  5  1 -1</clus>
<clus scale="  455.801">  7 10 -1 -1</clus>
<clus scale="   89.039">  1  5  2 -1</clus>
</clustering>
</event>
<event>
10    4  0.7508634E-005  0.2239351E+03  0.7546771E-02  0.1158168E+00
         21   -1    0    0  501  502  0.00000000000E+00  0.00000000000E+00  0.58094643900E+02  0.58094643900E+02  0.00000000000E+00 0.  1.
          2   -1    0    0  503    0 -0.00000000000E+00 -0.00000000000E+00 -0.74055894426E+03  0.74055894426E+03  0.00000000000E+00 0. -1.
         24    2    1    2    0    0  0.86881712707E+02  0.20800922410E+02 -0.77705746141E+02  0.14138581127E+03  0.77270008865E+02 0.  0.
         23    2    1    2    0    0 -0.16963073634E+02  0.49081719329E+02 -0.26014705049E+03  0.28244098331E+03  0.96951844401E+02 0.  0.
        -13    1    3    3    0    0  0.53063462653E+02 -0.61077527878E+00  0.10113393015E+01  0.53076613705E+02  0.00000000000E+00 0.  1.
         14    1    3    3    0    0  0.33818250054E+02  0.21411697688E+02 -0.78717085442E+02  0.88309197568E+02  0.00000000000E+00 0. -1.
        -13    1    4    4    0    0  0.40429731424E+02  0.23882033020E+02 -0.10045986811E+03  0.11089228912E+03  0.00000000000E+00 0. -1.
         13    1    4    4    0    0 -0.57392805059E+02  0.25199686309E+02 -0.15968718238E+03  0.17154869419E+03  0.00000000000E+00 0.  1.
         21    1    1    2  503  502 -0.13710624821E+02  0.29842170566E+02 -0.70614793648E+02  0.77878016532E+02  0.00000000000E+00 0.  1.
          1    1    1    2  501    0 -0.56208014251E+02 -0.99724812304E+02 -0.27399671008E+03  0.29694877705E+03  0.00000000000E+00 0. -1.
<scales pt_clust_5="13000.00000" pt_clust_6="13000.00000" pt_clust_7="13000.00000" pt_clust_8="13000.00000" pt_clust_9="32.84109" pt_clust_10="13000.00000"></scales>
<clustering>
<clus scale="   32.841">  1  9  2 -1</clus>
<clus scale="   77.270">  5  6 -1 -1</clus>
<clus scale="   96.952">  7  8 -1 -1</clus>
<clus scale="  110.557">  7 10 -1 -1</clus>
<clus scale="  116.848">  2  5  1 -1</clus>
<clus scale="   32.841">  1  5  2 -1</clus>
</clustering>
</event>
<event>
10    4  0.7508634E-005  0.5029415E+03  0.7546771E-02  0.1058806E+00
         21   -1    0    0  503  502  0.00000000000E+00  0.00000000000E+00  0.57741762008E+03  0.57741762008E+03  0.00000000000E+00 0. -1.
          2   -1    0    0  502    0 -0.00000000000E+00 -0.00000000000E+00 -0.22202688718E+03  0.22202688718E+03  0.00000000000E+00 0. -1.
         24    2    1    2    0    0  0.44380608886E+02 -0.98034492137E+02  0.56249655426E+02  0.14581933706E+03  0.80739427984E+02 0.  0.
         23    2    1    2    0    0  0.16664331599E+03 -0.68730914685E+02 -0.39338595998E+02  0.20610441017E+03  0.91856242882E+02 0.  0.
        -11    1    3    3    0    0  0.15912005875E+02 -0.10416276818E+03  0.45554302335E+02  0.11479664049E+03  0.00000000000E+00 0.  1.
         12    1    3    3    0    0  0.28468603011E+02  0.61282760463E+01  0.10695353091E+02  0.31022696569E+02  0.00000000000E+00 0. -1.
        -13    1    4    4    0    0  0.14461801666E+03 -0.54691514011E+02  0.49434463221E+01  0.15469314823E+03  0.00000000000E+00 0. -1.
         13    1    4    4    0    0  0.22025299335E+02 -0.14039400674E+02 -0.44282042320E+02  0.51411261939E+02  0.00000000000E+00 0.  1.
         21    1    1    2  503  501 -0.32528898933E+02  0.70146616481E+01  0.11571516778E+03  0.12040487863E+03  0.00000000000E+00 0. -1.
          1    1    1    2  501    0 -0.17849502595E+03  0.15975074517E+03  0.22276450569E+03  0.32711588140E+03  0.00000000000E+00 0. -1.
<scales pt_clust_5="13000.00000" pt_clust_6="13000.00000" pt_clust_7="13000.00000" pt_clust_8="13000.00000" pt_clust_9="33.27664" pt_clust_10="13000.00000"></scales>
<clustering>
<clus scale="   33.277">  1  9  2 -1</clus>
<clus scale="   80.739">  5  6 -1 -1</clus>
<clus scale="   91.856">  7  8 -1 -1</clus>
<clus scale="  131.207">  2  5  1 -1</clus>
<clus scale="  226.679">  7 10 -1 -1</clus>
<clus scale="   33.277">  1  5  2 -1</clus>
</clustering>
</event>
<event>
10    4  0.7508634E-005  0.2394452E+03  0.7546771E-02  0.1153669E+00
         21   -1    0    0  503  502  0.00000000000E+00  0.00000000000E+00  0.10451839950E+03  0.10451839950E+03  0.00000000000E+00 0. -1.
          2   -1    0    0  502    0 -0.00000000000E+00 -0.00000000000E+00 -0.45479288663E+03  0.45479288663E+03  0.00000000000E+00 0. -1.
         24    2    1    2    0    0 -0.59619874709E+02  0.24002353009E+02 -0.18489233989E+03  0.21247380226E+03  0.82639560068E+02 0.  0.
         23    2    1    2    0    0 -0.26182146205E+02 -0.79688532228E+02 -0.33187350593E+02  0.12985162504E+03  0.93403840056E+02 0.  0.
        -11    1    3    3    0    0 -0.31672505310E+02  0.49318552964E+02 -0.68649121178E+02  0.90267209426E+02  0.00000000000E+00 0.  1.
         12    1    3    3    0    0 -0.27947369399E+02 -0.25316199955E+02 -0.11624321871E+03  0.12220659284E+03  0.00000000000E+00 0. -1.
        -13    1    4    4    0    0 -0.21941195140E+02 -0.10088120201E+03 -0.32475608432E+02  0.10822706735E+03  0.00000000000E+00 0.  1.
         13    1    4    4    0    0 -0.42409510648E+01  0.21192669783E+02 -0.71174216045E+00  0.21624557692E+02  0.00000000000E+00 0. -1.
         21    1    1    2  503  501  0.20869834046E+00  0.32370471627E+02  0.21967524516E+02  0.39121133952E+02  0.00000000000E+00 0.  1.
          1    1    1    2  501    0  0.85593322574E+02  0.23315707593E+02 -0.15416232116E+03  0.17786472488E+03  0.00000000000E+00 0. -1.
<scales pt_clust_5="13000.00000" pt_clust_6="13000.00000" pt_clust_7="13000.00000" pt_clust_8="13000.00000" pt_clust_9="32.37114" pt_clust_10="13000.00000"></scales>
<clustering>
<clus scale="   32.371">  1  9  2 -1</clus>
<clus scale="   82.640">  5  6 -1 -1</clus>
<clus scale="   93.404">  7  8 -1 -1</clus>
<clus scale="   90.246">  7 10 -1 -1</clus>
<clus scale="  106.214">  2  5  1 -1</clus>
<clus scale="   32.371">  1  5  2 -1</clus>
</clustering>
</event>
<event>
10    4  0.7508634E-005  0.2430134E+03  0.7546771E-02  0.1151379E+00
         -1   -1    0    0    0  501 -0.00000000000E+00  0.00000000000E+00  0.23622295025E+03  0.23622295025E+03  0.00000000000E+00 0.  1.
         21   -1    0    0  503  502  0.00000000000E+00 -0.00000000000E+00 -0.20069020046E+03  0.20069020046E+03  0.00000000000E+00 0.  1.
         24    2    1    2    0    0  0.35301347800E+02 -0.62527534906E+02  0.50559561667E+02  0.12123979652E+03  0.83587925006E+02 0.  0.
         23    2    1    2    0    0  0.34103234419E+02 -0.49967456686E+02 -0.15470850803E+02  0.11202933165E+03  0.93013152837E+02 0.  0.
        -13    1    3    3    0    0  0.40297186643E+02 -0.45533984017E+01 -0.49078739092E+01  0.40849527717E+02  0.00000000000E+00 0.  1.
         14    1    3    3    0    0 -0.49958388439E+01 -0.57974136505E+02  0.55467435576E+02  0.80390268805E+02  0.00000000000E+00 0. -1.
        -13    1    4    4    0    0  0.52182668287E+02 -0.15538488638E+02  0.21342736285E+02  0.58480662538E+02  0.00000000000E+00 0.  1.
         13    1    4    4    0    0 -0.18079433868E+02 -0.34428968047E+02 -0.36813587088E+02  0.53548669116E+02  0.00000000000E+00 0. -1.
         21    1    1    2  503  501  0.99048261351E+01  0.26700203679E+02 -0.64116854549E+02  0.70156806473E+02  0.00000000000E+00 0.  1.
         -2    1    1    2    0  502 -0.79309408354E+02  0.85794787914E+02  0.64560893475E+02  0.13348721607E+03  0.00000000000E+00 0.  1.
<scales pt_clust_5="13000.00000" pt_clust_6="13000.00000" pt_clust_7="13000.00000" pt_clust_8="13000.00000" pt_clust_9="28.47818" pt_clust_10="13000.00000"></scales>
<clustering>
<clus scale="   28.478">  2  9  1 -1</clus>
<clus scale="   83.588">  5  6 -1 -1</clus>
<clus scale="   93.013">  7  8 -1 -1</clus>
<clus scale="  107.243">  1  5  2 -1</clus>
<clus scale="   74.450">  7 10 -1 -1</clus>
<clus scale="   28.478">  2  5  1 -1</clus>
</clustering>
</event>
<event>
10    4  0.7508634E-005  0.5107993E+03  0.7546771E-02  0.1069083E+00
         21   -1    0    0  503  502  0.00000000000E+00  0.00000000000E+00  0.28194411668E+03  0.28194411668E+03  0.00000000000E+00 0. -1.
          2   -1    0    0  502    0 -0.00000000000E+00 -0.00000000000E+00 -0.98130861461E+03  0.98130861461E+03  0.00000000000E+00 0. -1.
         24    2    1    2    0    0 -0.11596167854E+02 -0.39906785096E+02 -0.61909157700E+03  0.62613643731E+03  0.83937088423E+02 0.  0.
         23    2    1    2    0    0  0.16295819478E+03  0.20522232640E+03 -0.21905405458E+03  0.35427783065E+03  0.94109117309E+02 0.  0.
        -11    1    3    3    0    0 -0.43583288146E+02 -0.64026943039E+01 -0.22009839468E+03  0.22446336191E+03  0.00000000000E+00 0.  1.
         12    1    3    3    0    0  0.31987120293E+02 -0.33504090792E+02 -0.39899318232E+03  0.40167307540E+03  0.00000000000E+00 0. -1.
        -13    1    4    4    0    0  0.15849652430E+03  0.15885939532E+03 -0.14626996768E+03  0.26786630834E+03  0.00000000000E+00 0. -1.
         13    1    4    4    0    0  0.44616704779E+01  0.46362931081E+02 -0.72784086902E+02  0.86411522311E+02  0.00000000000E+00 0.  1.
         21    1    1    2  503  501 -0.11105041628E+02 -0.59497794353E+02  0.73952126562E+02  0.95562683646E+02  0.00000000000E+00 0. -1.
          1    1    1    2  501    0 -0.14025698530E+03 -0.10581774695E+03  0.64829007095E+02  0.18727577968E+03  0.00000000000E+00 0. -1.
<scales pt_clust_5="13000.00000" pt_clust_6="13000.00000" pt_clust_7="13000.00000" pt_clust_8="13000.00000" pt_clust_9="60.52528" pt_clust_10="13000.00000"></scales>
<clustering>
<clus scale="   60.525">  1  9  2 -1</clus>
<clus scale="   83.937">  5  6 -1 -1</clus>
<clus scale="   94.109">  7  8 -1 -1</clus>
<clus scale="   94.144">  2  5  1 -1</clus>
<clus scale="  215.995">  7 10 -1 -1</clus>
<clus scale="   60.525">  1  5  2 -1</clus>
</clustering>
</event>
<event>
10    4  0.7508634E-005  0.6938591E+03  0.7546771E-02  0.9926027E-01
         21   -1    0    0  501  502  0.00000000000E+00  0.00000000000E+00  0.18785323484E+03  0.18785323484E+03  0.00000000000E+00 0. -1.
          2   -1    0    0  503    0 -0.00000000000E+00 -0.00000000000E+00 -0.39321749062E+04  0.39321749062E+04  0.00000000000E+00 0. -1.
         24    2    1    2    0    0 -0.24982032367E+03  0.25108022152E+03 -0.30145773177E+04  0.30363848444E+04  0.80653871413E+02 0.  0.
         23    2    1    2    0    0 -0.16964077400E+03 -0.98314782079E+02 -0.21577058058E+03  0.30544117032E+03  0.91069075474E+02 0.  0.
        -13    1    3    3    0    0 -0.41213264893E+02  0.14488956523E+02 -0.24079881196E+03  0.24472950559E+03  0.00000000000E+00 0.  1.
         14    1    3    3    0    0 -0.20860705878E+03  0.23659126500E+03 -0.27737785057E+04  0.27916553388E+04  0.00000000000E+00 0. -1.
        -11    1    4    4    0    0 -0.43494076302E+02  0.14199202074E+02 -0.32501304901E+02  0.56122070821E+02  0.00000000000E+00 0.  1.
         11    1    4    4    0    0 -0.12614669769E+03 -0.11251398415E+03 -0.18326927568E+03  0.24931909950E+03  0.00000000000E+00 0. -1.
         21    1    1    2  503  502 -0.50372738694E+02 -0.53245368196E+02  0.19770666787E+01  0.73323876265E+02  0.00000000000E+00 0.  1.
          1    1    1    2  501    0  0.46983383636E+03 -0.99520071244E+02 -0.51595083975E+03  0.70487825006E+03  0.00000000000E+00 0. -1.
<scales pt_clust_5="13000.00000" pt_clust_6="13000.00000" pt_clust_7="13000.00000" pt_clust_8="13000.00000" pt_clust_9="73.29722" pt_clust_10="13000.00000"></scales>
<clustering>
<clus scale="   73.297">  1  9  2 -1</clus>
<clus scale="   80.654">  5  6 -1 -1</clus>
<clus scale="   91.069">  7  8 -1 -1</clus>
<clus scale="  363.140">  2  5  1 -1</clus>
<clus scale="  278.928">  7 10 -1 -1</clus>
<clus scale="   73.297">  1  5  2 -1</clus>
</clustering>
</event>
<event>
10    4  0.7508634E-005  0.2348776E+03  0.7546771E-02  0.1163562E+00
         21   -1    0    0  501  502  0.00000000000E+00  0.00000000000E+00  0.44260393176E+03  0.44260393176E+03  0.00000000000E+00 0.  1.
         -1   -1    0    0    0  501 -0.00000000000E+00 -0.00000000000E+00 -0.89147506186E+02  0.89147506186E+02  0.00000000000E+00 0.  1.
         24    2    1    2    0    0  0.30228872459E+02  0.23567268931E+02  0.30384402325E+02  0.94086367658E+02  0.80373078698E+02 0.  0.
         23    2    1    2    0    0  0.56849668894E+02 -0.59326213387E+01  0.16391288419E+03  0.19617955186E+03  0.91388741726E+02 0.  0.
        -11    1    3    3    0    0  0.47956104238E+02  0.22243866002E+01 -0.59448647980E+01  0.48374344924E+02  0.00000000000E+00 0.  1.
         12    1    3    3    0    0 -0.17727231779E+02  0.21342882331E+02  0.36329267123E+02  0.45712022734E+02  0.00000000000E+00 0. -1.
        -13    1    4    4    0    0  0.18252718728E+02 -0.10408936991E+02 -0.60228633771E+01  0.21858238573E+02  0.00000000000E+00 0. -1.
         13    1    4    4    0    0  0.38596950166E+02  0.44763156521E+01  0.16993574757E+03  0.17432131329E+03  0.00000000000E+00 0.  1.
         21    1    1    2  503  502  0.21055684168E+02 -0.26105253169E+02  0.12247564980E+03  0.12698468755E+03  0.00000000000E+00 0.  1.
         -2    1    1    2    0  503 -0.10813422552E+03  0.84706055768E+01  0.36683489259E+02  0.11450083088E+03  0.00000000000E+00 0.  1.
<scales pt_clust_5="13000.00000" pt_clust_6="13000.00000" pt_clust_7="13000.00000" pt_clust_8="13000.00000" pt_clust_9="33.53843" pt_clust_10="13000.00000"></scales>
<clustering>
<clus scale="   33.538">  1  9  2 -1</clus>
<clus scale="   80.373">  5  6 -1 -1</clus>
<clus scale="   89.334">  2  5  1 -1</clus>
<clus scale="   91.389">  7  8 -1 -1</clus>
<clus scale="   82.588">  7 10 -1 -1</clus>
<clus scale="   33.538">  1  5  2 -1</clus>
</clustering>
</event>
<event>
10    4  0.7508634E-005  0.2137253E+03  0.7546771E-02  0.1163365E+00
         21   -1    0    0  503  502  0.00000000000E+00  0.00000000000E+00  0.13599800350E+03  0.13599800350E+03  0.00000000000E+00 0. -1.
          2   -1    0    0  502    0 -0.00000000000E+00 -0.00000000000E+00 -0.73507780556E+03  0.73507780556E+03  0.00000000000E+00 0. -1.
         24    2    1    2    0    0  0.81934472903E+02  0.32250578382E+01 -0.57725297630E+03  0.58971962192E+03  0.88456627693E+02 0.  0.
         23    2    1    2    0    0  0.40096539849E+01  0.17983340054E+02 -0.10203228655E+03  0.13787357464E+03  0.90879355416E+02 0.  0.
        -13    1    3    3    0    0  0.74727841078E+02  0.80629818680E+01 -0.22234011411E+03  0.23470063539E+03  0.00000000000E+00 0.  1.
         14    1    3    3    0    0  0.72066318255E+01 -0.48379240298E+01 -0.35491286219E+03  0.35501898653E+03  0.00000000000E+00 0. -1.
        -13    1    4    4    0    0 -0.41087345455E+02 -0.48295467222E+01 -0.36917585000E+02  0.55447295339E+02  0.00000000000E+00 0.  1.
         13    1    4    4    0    0  0.45096999440E+02  0.22812886776E+02 -0.65114701550E+02  0.82426279302E+02  0.00000000000E+00 0. -1.
         21    1    1    2  503  501 -0.30366856321E+02  0.27365387639E+02  0.47729091519E+02  0.62841678692E+02  0.00000000000E+00 0.  1.
          1    1    1    2  501    0 -0.55577270567E+02 -0.48573785532E+02  0.32476369274E+02  0.80640933810E+02  0.00000000000E+00 0. -1.
<scales pt_clust_5="13000.00000" pt_clust_6="13000.00000" pt_clust_7="13000.00000" pt_clust_8="13000.00000" pt_clust_9="40.87799" pt_clust_10="13000.00000"></scales>
<clustering>
<clus scale="   40.878">  1  9  2 -1</clus>
<clus scale="   88.457">  5  6 -1 -1</clus>
<clus scale="   90.879">  7  8 -1 -1</clus>
<clus scale="   82.287">  7 10 -1 -1</clus>
<clus scale="  119.111">  2  5  1 -1</clus>
<clus scale="   40.878">  1  5  2 -1</clus>
</clustering>
</event>
<event>
10    4  0.7508634E-005  0.1295717E+03  0.7546771E-02  0.1243546E+00
         21   -1    0    0  503  502  0.00000000000E+00  0.00000000000E+00  0.17375106296E+03  0.17375106296E+03  0.00000000000E+00 0. -1.
          2   -1    0    0  502    0 -0.00000000000E+00 -0.00000000000E+00 -0.80467905480E+03  0.80467905480E+03  0.00000000000E+00 0. -1.
         24    2    1    2    0    0 -0.52979804477E+02 -0.28430385761E+00 -0.50997626892E+03  0.51925961771E+03  0.82145086331E+02 0.  0.
         23    2    1    2    0    0  0.18238646307E+01 -0.15328329101E+02 -0.24411814184E+03  0.26087350196E+03  0.90680938980E+02 0.  0.
        -11    1    3    3    0    0 -0.18543015861E+02  0.84925981735E+01 -0.22032020346E+02  0.30022950913E+02  0.00000000000E+00 0.  1.
         12    1    3    3    0    0 -0.34436788616E+02 -0.87769020311E+01 -0.48794424858E+03  0.48923666680E+03  0.00000000000E+00 0. -1.
        -11    1    4    4    0    0  0.17229927901E+02  0.20970610637E+02 -0.21051492387E+02  0.34348249704E+02  0.00000000000E+00 0.  1.
         11    1    4    4    0    0 -0.15406063271E+02 -0.36298939738E+02 -0.22306664945E+03  0.22652525226E+03  0.00000000000E+00 0. -1.
         21    1    1    2  503  501  0.28194911572E+02  0.32063457532E+02  0.15203013862E+03  0.15791194190E+03  0.00000000000E+00 0. -1.
          1    1    1    2  501    0  0.22961028274E+02 -0.16450824573E+02 -0.28863719695E+02  0.40385056186E+02  0.00000000000E+00 0. -1.
<scales pt_clust_5="13000.00000" pt_clust_6="13000.00000" pt_clust_7="13000.00000" pt_clust_8="13000.00000" pt_clust_9="42.69682" pt_clust_10="13000.00000"></scales>
<clustering>
<clus scale="   42.697">  1  9  2 -1</clus>
<clus scale="   82.145">  5  6 -1 -1</clus>
<clus scale="   90.681">  7  8 -1 -1</clus>
<clus scale="   32.295">  7 10 -1 -1</clus>
<clus scale="   94.463">  2  5  1 -1</clus>
<clus scale="   42.697">  1  5  2 -1</clus>
</clustering>
</event>
<event>
10    4  0.7508634E-005  0.3925821E+03  0.7546771E-02  0.1073231E+00
         21   -1    0    0  501  502  0.00000000000E+00  0.00000000000E+00  0.39356734404E+03  0.39356734404E+03  0.00000000000E+00 0.  1.
          2   -1    0    0  503    0 -0.00000000000E+00 -0.00000000000E+00 -0.38412755873E+03  0.38412755873E+03  0.00000000000E+00 0. -1.
         24    2    1    2    0    0  0.13095593336E+03 -0.97954168805E+02  0.12406548212E+03  0.21408372747E+03  0.60787522127E+02 0.  0.
         23    2    1    2    0    0 -0.12256447411E+03  0.81251438770E+02  0.54403678412E+02  0.18079961732E+03  0.90027189136E+02 0.  0.
        -11    1    3    3    0    0  0.49056770654E+02 -0.66730455129E+02  0.83130967471E+02  0.11734682843E+03  0.00000000000E+00 0.  1.
         12    1    3    3    0    0  0.81899162705E+02 -0.31223713676E+02  0.40934514645E+02  0.96736899044E+02  0.00000000000E+00 0. -1.
        -11    1    4    4    0    0 -0.18707040919E+02 -0.19493369089E+02  0.14704972859E+02  0.30760056000E+02  0.00000000000E+00 0. -1.
         11    1    4    4    0    0 -0.10385743319E+03  0.10074480786E+03  0.39698705553E+02  0.15003956132E+03  0.00000000000E+00 0.  1.
         21    1    1    2  503  502  0.53048363029E+02  0.54353424133E+02  0.87784485953E+02  0.11607988417E+03  0.00000000000E+00 0.  1.
          1    1    1    2  501    0 -0.61439822279E+02 -0.37650694098E+02 -0.25681386116E+03  0.26673167381E+03  0.00000000000E+00 0. -1.
<scales pt_clust_5="13000.00000" pt_clust_6="13000.00000" pt_clust_7="13000.00000" pt_clust_8="13000.00000" pt_clust_9="75.95014" pt_clust_10="13000.00000"></scales>
<clustering>
<clus scale="   60.788">  5  6 -1 -1</clus>
<clus scale="   75.950">  1  9  2 -1</clus>
<clus scale="   90.027">  7  8 -1 -1</clus>
<clus scale="   70.807">  7 10 -1 -1</clus>
<clus scale="  185.095">  2  5  1 -1</clus>
<clus scale="   75.950">  1  5  2 -1</clus>
</clustering>
</event>
<event>
10    4  0.7508634E-005  0.2292532E+03  0.7546771E-02  0.1156200E+00
          2   -1    0    0  502    0 -0.00000000000E+00  0.00000000000E+00  0.34070053112E+03  0.34070053112E+03  0.00000000000E+00 0. -1.
         21   -1    0    0  503  502  0.00000000000E+00 -0.00000000000E+00 -0.13657870191E+03  0.13657870191E+03  0.00000000000E+00 0.  1.
         24    2    1    2    0    0  0.58867217416E+02  0.36433695356E+02 -0.38175075660E+02  0.11146810077E+03  0.78581407757E+02 0.  0.
         23    2    1    2    0    0  0.60508733003E+01 -0.62582783499E+02  0.39281460317E+02  0.11400497499E+03  0.86607640191E+02 0.  0.
        -11    1    3    3    0    0  0.51417613022E+02 -0.44068201431E+01 -0.46106783363E+02  0.69202792318E+02  0.00000000000E+00 0.  1.
         12    1    3    3    0    0  0.74496043944E+01  0.40840515499E+02  0.79317077020E+01  0.42265308456E+02  0.00000000000E+00 0. -1.
        -13    1    4    4    0    0 -0.26236332752E+02 -0.60408871192E+02  0.37808634086E+01  0.65968718367E+02  0.00000000000E+00 0.  1.
         13    1    4    4    0    0  0.32287206052E+02 -0.21739123070E+01  0.35500596908E+02  0.48036256622E+02  0.00000000000E+00 0. -1.
         21    1    1    2  503  501  0.18173907809E+02  0.11582622308E+02 -0.92043255087E+01  0.23434326802E+02  0.00000000000E+00 0.  1.
          1    1    1    2  501    0 -0.83091998525E+02  0.14566465835E+02  0.21221977006E+03  0.22837183047E+03  0.00000000000E+00 0. -1.
<scales pt_clust_5="13000.00000" pt_clust_6="13000.00000" pt_clust_7="13000.00000" pt_clust_8="13000.00000" pt_clust_9="21.55106" pt_clust_10="13000.00000"></scales>
<clustering>
<clus scale="   21.551">  2  9  1 -1</clus>
<clus scale="   78.581">  5  6 -1 -1</clus>
<clus scale="   86.608">  7  8 -1 -1</clus>
<clus scale="   83.297">  7 10 -1 -1</clus>
<clus scale="  114.035">  1  5  2 -1</clus>
<clus scale="   21.551">  2  5  1 -1</clus>
</clustering>
</event>
<event>
10    4  0.7508634E-005  0.2760698E+03  0.7546771E-02  0.1101018E+00
         21   -1    0    0  501  502  0.00000000000E+00  0.00000000000E+00  0.10216603715E+03  0.10216603715E+03  0.00000000000E+00 0. -1.
          2   -1    0    0  503    0 -0.00000000000E+00 -0.00000000000E+00 -0.81776003459E+03  0.81776003459E+03  0.00000000000E+00 0. -1.
         24    2    1    2    0    0  0.91214257498E+01 -0.23145622619E+03 -0.22574534727E+03  0.33349312925E+03  0.81249740893E+02 0.  0.
         23    2    1    2    0    0 -0.53403091631E+02  0.17253049980E+03 -0.31658342834E+03  0.37472454846E+03  0.87033077399E+02 0.  0.
        -13    1    3    3    0    0  0.39779819063E+02 -0.69098652764E+02 -0.83756149862E+02  0.11563801476E+03  0.00000000000E+00 0.  1.
         14    1    3    3    0    0 -0.30658393313E+02 -0.16235757342E+03 -0.14198919741E+03  0.21785511449E+03  0.00000000000E+00 0. -1.
        -11    1    4    4    0    0 -0.20930714741E+02  0.15808046657E+03 -0.21925403556E+03  0.27110857758E+03  0.00000000000E+00 0. -1.
         11    1    4    4    0    0 -0.32472376889E+02  0.14450033228E+02 -0.97329392781E+02  0.10361597087E+03  0.00000000000E+00 0.  1.
         21    1    1    2  503  502  0.15827433702E+02 -0.14965943978E+02 -0.64269544548E+00  0.21792204895E+02  0.00000000000E+00 0.  1.
          1    1    1    2  501    0  0.28454232178E+02  0.73891670364E+02 -0.17262252639E+03  0.18991618913E+03  0.00000000000E+00 0. -1.
<scales pt_clust_5="13000.00000" pt_clust_6="13000.00000" pt_clust_7="13000.00000" pt_clust_8="13000.00000" pt_clust_9="21.78273" pt_clust_10="13000.00000"></scales>
<clustering>
<clus scale="   21.783">  1  9  2 -1</clus>
<clus scale="   81.250">  5  6 -1 -1</clus>
<clus scale="   87.033">  7  8 -1 -1</clus>
<clus scale="   78.423">  7 10 -1 -1</clus>
<clus scale="  254.295">  2  5  1 -1</clus>
<clus scale="   21.783">  1  5  2 -1</clus>
</clustering>
</event>
<event>
10    4  0.7508634E-005  0.2549171E+03  0.7546771E-02  0.1122709E+00
          2   -1    0    0  502    0 -0.00000000000E+00  0.00000000000E+00  0.55010439949E+03  0.55010439949E+03  0.00000000000E+00 0. -1.
         21   -1    0    0  503  502  0.00000000000E+00 -0.00000000000E+00 -0.10172506479E+03  0.10172506479E+03  0.00000000000E+00 0. -1.
         24    2    1    2    0    0  0.15491635486E+03  0.45776234935E+02  0.21129490374E+03  0.27803097924E+03  0.81000915974E+02 0.  0.
         23    2    1    2    0    0 -0.25891452249E+02 -0.19012204277E+02  0.30971583133E+02  0.10213473439E+03  0.91871833527E+02 0.  0.
        -11    1    3    3    0    0  0.32553611714E+01  0.20101685281E+02  0.54812271958E+01  0.21088361223E+02  0.00000000000E+00 0.  1.
         12    1    3    3    0    0  0.15166099368E+03  0.25674549654E+02  0.20581367654E+03  0.25694261802E+03  0.00000000000E+00 0. -1.
        -11    1    4    4    0    0 -0.92625912094E+01 -0.31411500736E+02  0.58872518474E+02  0.67368029553E+02  0.00000000000E+00 0.  1.
         11    1    4    4    0    0 -0.16628861039E+02  0.12399296459E+02 -0.27900935341E+02  0.34766704834E+02  0.00000000000E+00 0. -1.
         21    1    1    2  503  501  0.10908847856E+02  0.23204515909E+02  0.15436755109E+02  0.29929014825E+02  0.00000000000E+00 0.  1.
          1    1    1    2  501    0 -0.13993375046E+03 -0.49968546567E+02  0.19067609272E+03  0.24173473582E+03  0.00000000000E+00 0. -1.
<scales pt_clust_5="13000.00000" pt_clust_6="13000.00000" pt_clust_7="13000.00000" pt_clust_8="13000.00000" pt_clust_9="25.64084" pt_clust_10="13000.00000"></scales>
<clustering>
<clus scale="   25.641">  2  9  1 -1</clus>
<clus scale="   81.001">  5  6 -1 -1</clus>
<clus scale="   91.872">  7  8 -1 -1</clus>
<clus scale="  143.787">  7 10 -1 -1</clus>
<clus scale="  186.230">  1  5  2 -1</clus>
<clus scale="   25.641">  2  5  1 -1</clus>
</clustering>
</event>
<event>
10    4  0.7508634E-005  0.2208904E+03  0.7546771E-02  0.1165565E+00
         21   -1    0    0  501  502  0.00000000000E+00  0.00000000000E+00  0.30132722023E+02  0.30132722023E+02  0.00000000000E+00 0. -1.
          2   -1    0    0  503    0 -0.00000000000E+00 -0.00000000000E+00 -0.10191723763E+04  0.10191723763E+04  0.00000000000E+00 0. -1.
         24    2    1    2    0    0 -0.27679172301E+02 -0.49128514859E+02 -0.24342406694E+03  0.26235521791E+03  0.79970222242E+02 0.  0.
         23    2    1    2    0    0 -0.44437865200E+02  0.94902923145E+02 -0.44594910755E+03  0.46710527404E+03  0.91298640860E+02 0.  0.
        -11    1    3    3    0    0 -0.42932919712E+02 -0.70767236375E+01 -0.17702079412E+03  0.18229009069E+03  0.00000000000E+00 0.  1.
         12    1    3    3    0    0  0.15253747411E+02 -0.42051791222E+02 -0.66403272818E+02  0.80065127215E+02  0.00000000000E+00 0. -1.
        -13    1    4    4    0    0  0.26019261627E+02  0.44915914679E+02 -0.19042434962E+03  0.19737242536E+03  0.00000000000E+00 0.  1.
         13    1    4    4    0    0 -0.70457126827E+02  0.49987008466E+02 -0.25552475794E+03  0.26973284868E+03  0.00000000000E+00 0. -1.
         21    1    1    2  503  502 -0.10302264882E+02 -0.19670440565E+02 -0.35322928809E+02  0.41722562162E+02  0.00000000000E+00 0. -1.
          1    1    1    2  501    0  0.82419302383E+02 -0.26103967720E+02 -0.26434355097E+03  0.27812204421E+03  0.00000000000E+00 0. -1.
<scales pt_clust_5="13000.00000" pt_clust_6="13000.00000" pt_clust_7="13000.00000" pt_clust_8="13000.00000" pt_clust_9="22.20502" pt_clust_10="13000.00000"></scales>
<clustering>
<clus scale="   22.205">  1  9  2 -1</clus>
<clus scale="   79.970">  5  6 -1 -1</clus>
<clus scale="   91.299">  7  8 -1 -1</clus>
<clus scale="   85.644">  7 10 -1 -1</clus>
<clus scale="  102.546">  2  5  1 -1</clus>
<clus scale="   22.205">  1  5  2 -1</clus>
</clustering>
</event>
<event>
10    4  0.7508634E-005  0.3477924E+03  0.7546771E-02  0.1078884E+00
         21   -1    0    0  501  502  0.00000000000E+00  0.00000000000E+00  0.28013569401E+03  0.28013569401E+03  0.00000000000E+00 0.  1.
          2   -1    0    0  503    0 -0.00000000000E+00 -0.00000000000E+00 -0.42202530271E+03  0.42202530271E+03  0.00000000000E+00 0. -1.
         24    2    1    2    0    0  0.25227707973E+03 -0.24807687657E+02 -0.31024594870E+02  0.26788698543E+03  0.80881179205E+02 0.  0.
         23    2    1    2    0    0 -0.70614650320E+02 -0.54253111383E+02  0.41159391289E+02  0.13410074550E+03  0.91428034643E+02 0.  0.
        -11    1    3    3    0    0  0.68331946740E+02  0.19299879906E+02  0.16397084402E+02  0.72873895783E+02  0.00000000000E+00 0.  1.
         12    1    3    3    0    0  0.18394513299E+03 -0.44107567564E+02 -0.47421679271E+02  0.19501308964E+03  0.00000000000E+00 0. -1.
        -13    1    4    4    0    0 -0.91252029960E+02 -0.44046904097E+02  0.20957949743E+02  0.10347124427E+03  0.00000000000E+00 0.  1.
         13    1    4    4    0    0  0.20637379640E+02 -0.10206207286E+02  0.20201441546E+02  0.30629501238E+02  0.00000000000E+00 0. -1.
         21    1    1    2  503  502 -0.77004449934E+02  0.14855613628E+01  0.24465111770E+02  0.80811100080E+02  0.00000000000E+00 0. -1.
          1    1    1    2  501    0 -0.10465797948E+03  0.77575237677E+02 -0.17648951689E+03  0.21936216570E+03  0.00000000000E+00 0. -1.
<scales pt_clust_5="13000.00000" pt_clust_6="13000.00000" pt_clust_7="13000.00000" pt_clust_8="13000.00000" pt_clust_9="77.01878" pt_clust_10="13000.00000"></scales>
<clustering>
<clus scale="   77.019">  1  9  2 -1</clus>
<clus scale="   80.881">  5  6 -1 -1</clus>
<clus scale="   91.428">  7  8 -1 -1</clus>
<clus scale="  136.251">  7 10 -1 -1</clus>
<clus scale="  228.351">  2  5  1 -1</clus>
<clus scale="   77.019">  1  5  2 -1</clus>
</clustering>
</event>
<event>
10    4  0.7508634E-005  0.2408388E+03  0.7546771E-02  0.1149991E+00
         -1   -1    0    0    0  501 -0.00000000000E+00  0.00000000000E+00  0.39352185021E+03  0.39352185021E+03  0.00000000000E+00 0.  1.
         21   -1    0    0  501  502  0.00000000000E+00 -0.00000000000E+00 -0.13175285379E+03  0.13175285379E+03  0.00000000000E+00 0.  1.
         24    2    1    2    0    0 -0.29545025804E+02 -0.69100214761E+02 -0.43867258363E+01  0.11051352557E+03  0.80908885430E+02 0.  0.
         23    2    1    2    0    0 -0.97185559461E+02  0.19805772604E+02  0.13537282387E+03  0.19178472678E+03  0.92834683116E+02 0.  0.
        -13    1    3    3    0    0 -0.30246490323E+02 -0.26535215056E+00 -0.24358689019E+02  0.38836404563E+02  0.00000000000E+00 0.  1.
         14    1    3    3    0    0  0.70146451943E+00 -0.68834862611E+02  0.19971963183E+02  0.71677121011E+02  0.00000000000E+00 0. -1.
        -11    1    4    4    0    0  0.48730561691E+01 -0.19982787045E+02  0.46077261479E+02  0.50459612364E+02  0.00000000000E+00 0.  1.
         11    1    4    4    0    0 -0.10205861563E+03  0.39788559649E+02  0.89295562386E+02  0.14132511442E+03  0.00000000000E+00 0. -1.
         21    1    1    2  503  502  0.44346574482E+02 -0.19665308716E+02 -0.61801401615E+01  0.48903345158E+02  0.00000000000E+00 0.  1.
         -2    1    1    2    0  503  0.82384010782E+02  0.68959750873E+02  0.13696303855E+03  0.17407310649E+03  0.00000000000E+00 0.  1.
<scales pt_clust_5="13000.00000" pt_clust_6="13000.00000" pt_clust_7="13000.00000" pt_clust_8="13000.00000" pt_clust_9="48.51127" pt_clust_10="13000.00000"></scales>
<clustering>
<clus scale="   48.511">  2  9  1 -1</clus>
<clus scale="   80.909">  5  6 -1 -1</clus>
<clus scale="   92.835">  7  8 -1 -1</clus>
<clus scale="  111.514">  7 10 -1 -1</clus>
<clus scale="  113.855">  1  5  2 -1</clus>
<clus scale="   48.511">  2  5  1 -1</clus>
</clustering>
</event>
<event>
10    4  0.7508634E-005  0.2880353E+03  0.7546771E-02  0.1122191E+00
          2   -1    0    0  502    0 -0.00000000000E+00  0.00000000000E+00  0.13840349299E+04  0.13840349299E+04  0.00000000000E+00 0. -1.
         21   -1    0    0  503  502  0.00000000000E+00 -0.00000000000E+00 -0.46849715649E+02  0.46849715649E+02  0.00000000000E+00 0.  1.
         24    2    1    2    0    0 -0.96375642186E+02  0.16446723265E+02  0.46929978158E+03  0.48594200478E+03  0.79615249212E+02 0.  0.
         23    2    1    2    0    0 -0.16420178900E+02  0.42904817361E+02  0.14447780329E+03  0.17631174198E+03  0.90008605638E+02 0.  0.
        -11    1    3    3    0    0 -0.14268200682E+02  0.38262208357E+02  0.13723468678E+03  0.14318148412E+03  0.00000000000E+00 0.  1.
         12    1    3    3    0    0 -0.82107441504E+02 -0.21815485091E+02  0.33206509480E+03  0.34276052066E+03  0.00000000000E+00 0. -1.
        -13    1    4    4    0    0 -0.23942288579E+02  0.30639430568E+01 -0.21009870947E+01  0.24228806744E+02  0.00000000000E+00 0.  1.
         13    1    4    4    0    0  0.75221096795E+01  0.39840874304E+02  0.14657879039E+03  0.15208293524E+03  0.00000000000E+00 0. -1.
         21    1    1    2  503  501 -0.14631132581E+02  0.46329225858E+02  0.33193579580E+02  0.58841150010E+02  0.00000000000E+00 0.  1.
          1    1    1    2  501    0  0.12742695367E+03 -0.10568076648E+03  0.69021404977E+03  0.70978974875E+03  0.00000000000E+00 0. -1.
<scales pt_clust_5="13000.00000" pt_clust_6="13000.00000" pt_clust_7="13000.00000" pt_clust_8="13000.00000" pt_clust_9="48.58464" pt_clust_10="13000.00000"></scales>
<clustering>
<clus scale="   48.585">  2  9  1 -1</clus>
<clus scale="   79.615">  5  6 -1 -1</clus>
<clus scale="   90.009">  7  8 -1 -1</clus>
<clus scale="  130.770">  1  5  2 -1</clus>
<clus scale="   88.608">  7 10 -1 -1</clus>
<clus scale="   48.585">  2  5  1 -1</clus>
</clustering>
</event>
<event>
10    4  0.7508634E-005  0.6722020E+03  0.7546771E-02  0.1017002E+00
         21   -1    0    0  501  502  0.00000000000E+00  0.00000000000E+00  0.14750442046E+03  0.14750442046E+03  0.00000000000E+00 0.  1.
          2   -1    0    0  503    0 -0.00000000000E+00 -0.00000000000E+00 -0.17134708283E+04  0.17134708283E+04  0.00000000000E+00 0. -1.
         24    2    1    2    0    0 -0.15420545124E+03 -0.46196741156E+02 -0.45011266568E+03  0.48469818916E+03  0.80109067441E+02 0.  0.
         23    2    1    2    0    0 -0.80469395228E+02 -0.21083467510E+03 -0.15461988987E+03  0.28651207965E+03  0.85177917604E+02 0.  0.
        -11    1    3    3    0    0 -0.41991537909E+02 -0.49977779912E+02 -0.13004593530E+03  0.14550949463E+03  0.00000000000E+00 0.  1.
         12    1    3    3    0    0 -0.11221391333E+03  0.37810387555E+01 -0.32006673038E+03  0.33918869453E+03  0.00000000000E+00 0. -1.
        -13    1    4    4    0    0  0.86966601545E+01 -0.83210795505E+02 -0.37465957917E+02  0.91669877218E+02  0.00000000000E+00 0. -1.
         13    1    4    4    0    0 -0.89166055383E+02 -0.12762387959E+03 -0.11715393196E+03  0.19484220243E+03  0.00000000000E+00 0.  1.
         21    1    1    2  503  502 -0.49978941053E+02 -0.46747999814E+02 -0.30528841838E+03  0.31286464874E+03  0.00000000000E+00 0. -1.
          1    1    1    2  501    0  0.28465378752E+03  0.30377941607E+03 -0.65594543386E+03  0.77690033117E+03  0.00000000000E+00 0. -1.
<scales pt_clust_5="13000.00000" pt_clust_6="13000.00000" pt_clust_7="13000.00000" pt_clust_8="13000.00000" pt_clust_9="68.43446" pt_clust_10="13000.00000"></scales>
<clustering>
<clus scale="   68.434">  1  9  2 -1</clus>
<clus scale="   80.109">  5  6 -1 -1</clus>
<clus scale="   85.178">  7  8 -1 -1</clus>
<clus scale="  186.476">  2  5  1 -1</clus>
<clus scale="  301.955">  7 10 -1 -1</clus>
<clus scale="   68.434">  1  5  2 -1</clus>
</clustering>
</event>
<event>
10    4  0.7508634E-005  0.3411540E+03  0.7546771E-02  0.1095168E+00
          2   -1    0    0  502    0 -0.00000000000E+00  0.00000000000E+00  0.46368380154E+03  0.46368380154E+03  0.00000000000E+00 0. -1.
         21   -1    0    0  503  502  0.00000000000E+00 -0.00000000000E+00 -0.51877024568E+03  0.51877024568E+03  0.00000000000E+00 0. -1.
         24    2    1    2    0    0  0.49617312073E+02  0.12523797489E+03  0.21618512342E+03  0.26713646495E+03  0.80495063864E+02 0.  0.
         23    2    1    2    0    0  0.13996841285E+02  0.20269945945E+02  0.12240374706E+03  0.15500965095E+03  0.91861484414E+02 0.  0.
        -13    1    3    3    0    0 -0.12553817503E+02  0.27093525456E+02  0.93583142011E+02  0.98231674750E+02  0.00000000000E+00 0.  1.
         14    1    3    3    0    0  0.62171129576E+02  0.98144449434E+02  0.12260198141E+03  0.16890479020E+03  0.00000000000E+00 0. -1.
        -11    1    4    4    0    0 -0.27371216119E+02  0.24228702824E+02  0.14402859406E+02  0.39289386244E+02  0.00000000000E+00 0.  1.
         11    1    4    4    0    0  0.41368057404E+02 -0.39587568781E+01  0.10800088766E+03  0.11572026471E+03  0.00000000000E+00 0. -1.
         21    1    1    2  503  501 -0.17004737169E+03 -0.20234411914E+03 -0.33332189211E+03  0.42539714964E+03  0.00000000000E+00 0. -1.
          1    1    1    2  501    0  0.10643321833E+03  0.56836198303E+02 -0.60353422515E+02  0.13491078167E+03  0.00000000000E+00 0. -1.
<scales pt_clust_5="13000.00000" pt_clust_6="13000.00000" pt_clust_7="13000.00000" pt_clust_8="13000.00000" pt_clust_9="237.97310" pt_clust_10="13000.00000"></scales>
<clustering>
<clus scale="   80.495">  5  6 -1 -1</clus>
<clus scale="   91.861">  7  8 -1 -1</clus>
<clus scale="  120.658">  7 10 -1 -1</clus>
<clus scale="  156.926">  1  5  2 -1</clus>
<clus scale="  237.973">  2  9  1 -1</clus>
<clus scale="  237.973">  2  5  1 -1</clus>
</clustering>
</event>
<event>
10    4  0.7508634E-005  0.7287450E+03  0.7546771E-02  0.9878417E-01
          2   -1    0    0  502    0 -0.00000000000E+00  0.00000000000E+00  0.14017503454E+04  0.14017503454E+04  0.00000000000E+00 0. -1.
         21   -1    0    0  503  502  0.00000000000E+00 -0.00000000000E+00 -0.23113645210E+03  0.23113645210E+03  0.00000000000E+00 0. -1.
         24    2    1    2    0    0  0.74985964676E+02  0.34158029139E+03  0.33092292318E+03  0.48816433220E+03  0.80588111938E+02 0.  0.
         23    2    1    2    0    0 -0.64604978470E+02  0.17003973702E+03  0.17460052332E+03  0.26816791776E+03  0.91331122650E+02 0.  0.
        -11    1    3    3    0    0  0.91174926781E+02  0.28428817226E+03  0.26331835476E+03  0.39808188619E+03  0.00000000000E+00 0.  1.
         12    1    3    3    0    0 -0.16188962104E+02  0.57292119131E+02  0.67604568415E+02  0.90082446010E+02  0.00000000000E+00 0. -1.
        -13    1    4    4    0    0 -0.48277115589E+02  0.97509352553E+02  0.42951396686E+02  0.11697681908E+03  0.00000000000E+00 0.  1.
         13    1    4    4    0    0 -0.16327862881E+02  0.72530384466E+02  0.13164912663E+03  0.15119109868E+03  0.00000000000E+00 0. -1.
         21    1    1    2  503  501  0.26494562782E+02  0.12482381905E+02  0.40009032318E+00  0.29290472637E+02  0.00000000000E+00 0. -1.
          1    1    1    2  501    0 -0.36875548989E+02 -0.52410241031E+03  0.66469035648E+03  0.84726407489E+03  0.00000000000E+00 0. -1.
<scales pt_clust_5="13000.00000" pt_clust_6="13000.00000" pt_clust_7="13000.00000" pt_clust_8="13000.00000" pt_clust_9="29.28774" pt_clust_10="13000.00000"></scales>
<clustering>
<clus scale="   29.288">  2  9  1 -1</clus>
<clus scale="   80.588">  5  6 -1 -1</clus>
<clus scale="   91.331">  7  8 -1 -1</clus>
<clus scale="  365.299">  1  5  2 -1</clus>
<clus scale="  257.323">  7 10 -1 -1</clus>
<clus scale="   29.288">  2  5  1 -1</clus>
</clustering>
</event>
<event>
10    4  0.7508634E-005  0.3092449E+03  0.7546771E-02  0.1103455E+00
          2   -1    0    0  502    0 -0.00000000000E+00  0.00000000000E+00  0.95219632315E+03  0.95219632315E+03  0.00000000000E+00 0. -1.
         21   -1    0    0  503  502  0.00000000000E+00 -0.00000000000E+00 -0.10497270850E+03  0.10497270850E+03  0.00000000000E+00 0. -1.
         24    2    1    2    0    0 -0.88515997192E+02  0.10011918933E+03  0.25029083547E+03  0.29517047329E+03  0.81370585289E+02 0.  0.
         23    2    1    2    0    0 -0.13539604485E+01 -0.79252474612E+02  0.56030381340E+02  0.13463623053E+03  0.93299105018E+02 0.  0.
        -13    1    3    3    0    0 -0.46191673834E+02  0.99810857985E+02  0.20828521425E+03  0.23553897465E+03  0.00000000000E+00 0.  1.
         14    1    3    3    0    0 -0.42324323358E+02  0.30833134343E+00  0.42005621220E+02  0.59631498640E+02  0.00000000000E+00 0. -1.
        -11    1    4    4    0    0 -0.38723579043E+02 -0.37512352897E+02  0.57194719659E+02  0.78599797396E+02  0.00000000000E+00 0.  1.
         11    1    4    4    0    0  0.37369618594E+02 -0.41740121715E+02 -0.11643383193E+01  0.56036433134E+02  0.00000000000E+00 0. -1.
         21    1    1    2  503  501  0.49113544976E+02  0.92672411165E+02  0.40182839876E+02  0.11231641337E+03  0.00000000000E+00 0. -1.
          1    1    1    2  501    0  0.40756412665E+02 -0.11353912588E+03  0.50071955797E+03  0.51504591447E+03  0.00000000000E+00 0. -1.
<scales pt_clust_5="13000.00000" pt_clust_6="13000.00000" pt_clust_7="13000.00000" pt_clust_8="13000.00000" pt_clust_9="104.88239" pt_clust_10="13000.00000"></scales>
<clustering>
<clus scale="   81.371">  5  6 -1 -1</clus>
<clus scale="   93.299">  7  8 -1 -1</clus>
<clus scale="  104.882">  2  9  1 -1</clus>
<clus scale="  113.577">  7 10 -1 -1</clus>
<clus scale="  169.877">  1  5  2 -1</clus>
<clus scale="  104.882">  2  5  1 -1</clus>
</clustering>
</event>
<event>
10    4  0.7508634E-005  0.2313144E+03  0.7546771E-02  0.1158189E+00
         21   -1    0    0  503  502  0.00000000000E+00  0.00000000000E+00  0.11220037242E+03  0.11220037242E+03  0.00000000000E+00 0. -1.
          2   -1    0    0  502    0 -0.00000000000E+00 -0.00000000000E+00 -0.10799086865E+04  0.10799086865E+04  0.00000000000E+00 0. -1.
         24    2    1    2    0    0 -0.47513441549E+01  0.58673566128E+02 -0.35642256318E+03  0.37092860467E+03  0.84177334164E+02 0.  0.
         23    2    1    2    0    0  0.40141996354E+02  0.47416661616E+02 -0.41843829983E+03  0.43207347822E+03  0.87961128626E+02 0.  0.
        -11    1    3    3    0    0  0.18532588457E+02  0.57542727181E+02 -0.33084078136E+03  0.33631866570E+03  0.00000000000E+00 0.  1.
         12    1    3    3    0    0 -0.23283932612E+02  0.11308389473E+01 -0.25581781814E+02  0.34609938968E+02  0.00000000000E+00 0. -1.
        -13    1    4    4    0    0 -0.23737730160E+02  0.62420071576E+01 -0.47910875604E+02  0.53832095330E+02  0.00000000000E+00 0.  1.
         13    1    4    4    0    0  0.63879726513E+02  0.41174654458E+02 -0.37052742422E+03  0.37824138289E+03  0.00000000000E+00 0. -1.
         21    1    1    2  503  501 -0.32797213234E+02  0.15826578535E+02  0.81288110069E+02  0.89072412242E+02  0.00000000000E+00 0. -1.
          1    1    1    2  501    0 -0.25934389648E+01 -0.12191680628E+03 -0.27413556110E+03  0.30003456374E+03  0.00000000000E+00 0. -1.
<scales pt_clust_5="13000.00000" pt_clust_6="13000.00000" pt_clust_7="13000.00000" pt_clust_8="13000.00000" pt_clust_9="36.41617" pt_clust_10="13000.00000"></scales>
<clustering>
<clus scale="   36.416">  1  9  2 -1</clus>
<clus scale="   84.177">  5  6 -1 -1</clus>
<clus scale="   87.961">  7  8 -1 -1</clus>
<clus scale="  105.966">  2  5  1 -1</clus>
<clus scale="   93.198">  7 10 -1 -1</clus>
<clus scale="   36.416">  1  5  2 -1</clus>
</clustering>
</event>
<event>
10    4  0.7508634E-005  0.1863390E+03  0.7546771E-02  0.1192516E+00
         21   -1    0    0  501  502  0.00000000000E+00  0.00000000000E+00  0.69883116848E+03  0.69883116848E+03  0.00000000000E+00 0.  1.
         -1   -1    0    0    0  501 -0.00000000000E+00 -0.00000000000E+00 -0.45548460103E+02  0.45548460103E+02  0.00000000000E+00 0.  1.
         24    2    1    2    0    0  0.43152274361E+02 -0.23880354766E+02  0.30825280032E+03  0.32297148579E+03  0.82815467166E+02 0.  0.
         23    2    1    2    0    0  0.29401798545E+02  0.59230740582E+02  0.73489879358E+02  0.13559050776E+03  0.92796966752E+02 0.  0.
        -11    1    3    3    0    0  0.67287734911E+02 -0.17258812373E+02  0.25206627130E+03  0.26146302034E+03  0.00000000000E+00 0.  1.
         12    1    3    3    0    0 -0.24135460550E+02 -0.66215423927E+01  0.56186529013E+02  0.61508465451E+02  0.00000000000E+00 0. -1.
        -13    1    4    4    0    0  0.16536828555E+02  0.82298447815E+02  0.69288650978E+02  0.10884584680E+03  0.00000000000E+00 0.  1.
         13    1    4    4    0    0  0.12864969990E+02 -0.23067707233E+02  0.42012283801E+01  0.26744660957E+02  0.00000000000E+00 0. -1.
         21    1    1    2  503  502 -0.22463033611E+02 -0.10528055741E+02  0.14999341479E+03  0.15203108997E+03  0.00000000000E+00 0. -1.
         -2    1    1    2    0  503 -0.50091039295E+02 -0.24822330075E+02  0.12154661391E+03  0.13378654507E+03  0.00000000000E+00 0.  1.
<scales pt_clust_5="13000.00000" pt_clust_6="13000.00000" pt_clust_7="13000.00000" pt_clust_8="13000.00000" pt_clust_9="24.80782" pt_clust_10="13000.00000"></scales>
<clustering>
<clus scale="   24.808">  1  9  2 -1</clus>
<clus scale="   82.815">  5  6 -1 -1</clus>
<clus scale="   92.797">  7  8 -1 -1</clus>
<clus scale="   61.684">  7 10 -1 -1</clus>
<clus scale="   93.101">  2  5  1 -1</clus>
<clus scale="   24.808">  1  5  2 -1</clus>
</clustering>
</event>
<event>
10    4  0.7508634E-005  0.2452685E+03  0.7546771E-02  0.1141361E+00
         21   -1    0    0  501  502  0.00000000000E+00  0.00000000000E+00  0.13697542990E+03  0.13697542990E+03  0.00000000000E+00 0. -1.
          2   -1    0    0  503    0 -0.00000000000E+00 -0.00000000000E+00 -0.98936620550E+03  0.98936620550E+03  0.00000000000E+00 0. -1.
         24    2    1    2    0    0 -0.11019040098E+03  0.33700076578E+02  0.42934568574E+02  0.14620378381E+03  0.79085710418E+02 0.  0.
         23    2    1    2    0    0  0.12428557973E+03  0.55514673080E+02 -0.75336089453E+03  0.77164496652E+03  0.96718833185E+02 0.  0.
        -13    1    3    3    0    0 -0.20891178712E+02  0.24601688966E+02 -0.18716497328E+02  0.37309405251E+02  0.00000000000E+00 0.  1.
         14    1    3    3    0    0 -0.89299222270E+02  0.90983876123E+01  0.61651065902E+02  0.10889437856E+03  0.00000000000E+00 0. -1.
        -13    1    4    4    0    0 -0.26208200486E+01  0.30593201072E+02 -0.74587874201E+02  0.80660793620E+02  0.00000000000E+00 0.  1.
         13    1    4    4    0    0  0.12690639978E+03  0.24921472008E+02 -0.67877302033E+03  0.69098417290E+03  0.00000000000E+00 0. -1.
         21    1    1    2  503  502  0.56127258815E+01 -0.23560548522E+02  0.20772771139E+02  0.31907838524E+02  0.00000000000E+00 0. -1.
          1    1    1    2  501    0 -0.19707904633E+02 -0.65654201136E+02 -0.16273722078E+03  0.17658504654E+03  0.00000000000E+00 0. -1.
<scales pt_clust_5="13000.00000" pt_clust_6="13000.00000" pt_clust_7="13000.00000" pt_clust_8="13000.00000" pt_clust_9="24.21987" pt_clust_10="13000.00000"></scales>
<clustering>
<clus scale="   24.220">  1  9  2 -1</clus>
<clus scale="   79.086">  5  6 -1 -1</clus>
<clus scale="   96.719">  7  8 -1 -1</clus>
<clus scale="   69.864">  7 10 -1 -1</clus>
<clus scale="  132.462">  2  5  1 -1</clus>
<clus scale="   24.220">  1  5  2 -1</clus>
</clustering>
</event>
<event>
10    4  0.7508634E-005  0.2496239E+03  0.7546771E-02  0.1143785E+00
         21   -1    0    0  503  502  0.00000000000E+00  0.00000000000E+00  0.84702833152E+02  0.84702833152E+02  0.00000000000E+00 0.  1.
          2   -1    0    0  502    0 -0.00000000000E+00 -0.00000000000E+00 -0.92239633908E+03  0.92239633908E+03  0.00000000000E+00 0. -1.
         24    2    1    2    0    0 -0.84379391676E+02 -0.11937966276E+02 -0.61025409080E+03  0.62138917322E+03  0.80324669224E+02 0.  0.
         23    2    1    2    0    0  0.12677126086E+03 -0.18243911141E+02 -0.66882920084E+02  0.17078840576E+03  0.91058012649E+02 0.  0.
        -11    1    3    3    0    0 -0.39664463467E+02 -0.24421837959E+02 -0.11664272246E+03  0.12559944480E+03  0.00000000000E+00 0.  1.
         12    1    3    3    0    0 -0.44714928209E+02  0.12483871683E+02 -0.49361136834E+03  0.49578972843E+03  0.00000000000E+00 0. -1.
        -11    1    4    4    0    0  0.14373472371E+02 -0.34662371431E+02 -0.38380872075E+02  0.53676512950E+02  0.00000000000E+00 0. -1.
         11    1    4    4    0    0  0.11239778849E+03  0.16418460290E+02 -0.28502048009E+02  0.11711189281E+03  0.00000000000E+00 0.  1.
         21    1    1    2  503  501 -0.20110006795E+02 -0.98617348022E+01  0.19147463695E+02  0.29466787279E+02  0.00000000000E+00 0.  1.
          1    1    1    2  501    0 -0.22281862391E+02  0.40043612220E+02 -0.17970395874E+03  0.18545480597E+03  0.00000000000E+00 0. -1.
<scales pt_clust_5="13000.00000" pt_clust_6="13000.00000" pt_clust_7="13000.00000" pt_clust_8="13000.00000" pt_clust_9="22.39791" pt_clust_10="13000.00000"></scales>
<clustering>
<clus scale="   22.398">  1  9  2 -1</clus>
<clus scale="   80.325">  5  6 -1 -1</clus>
<clus scale="   91.058">  7  8 -1 -1</clus>
<clus scale="   45.893">  7 10 -1 -1</clus>
<clus scale="  118.546">  2  5  1 -1</clus>
<clus scale="   22.398">  1  5  2 -1</clus>
</clustering>
</event>
<event>
10    4  0.7508634E-005  0.5925840E+03  0.7546771E-02  0.9943625E-01
          2   -1    0    0  503    0 -0.00000000000E+00  0.00000000000E+00  0.14773676821E+04  0.14773676821E+04  0.00000000000E+00 0. -1.
         21   -1    0    0  501  502  0.00000000000E+00 -0.00000000000E+00 -0.33222794608E+03  0.33222794608E+03  0.00000000000E+00 0. -1.
         24    2    1    2    0    0  0.51802358588E+03 -0.20916897720E+03  0.30407759715E+03  0.64123956689E+03  0.81393491817E+02 0.  0.
         23    2    1    2    0    0 -0.15089081098E+03  0.13940022224E+03  0.42742626683E+03  0.48328819295E+03  0.93133265120E+02 0.  0.
        -13    1    3    3    0    0  0.50716772607E+02 -0.13757051202E+02  0.57484135935E+02  0.77883716948E+02  0.00000000000E+00 0.  1.
         14    1    3    3    0    0  0.46730681327E+03 -0.19541192600E+03  0.24659346121E+03  0.56335584994E+03  0.00000000000E+00 0. -1.
        -13    1    4    4    0    0 -0.79772311465E+02  0.11613222215E+03  0.20610000118E+03  0.24965481206E+03  0.00000000000E+00 0. -1.
         13    1    4    4    0    0 -0.71118499515E+02  0.23268000095E+02  0.22132626565E+03  0.23363338090E+03  0.00000000000E+00 0.  1.
         21    1    1    2  503  502 -0.15493807762E+02  0.16581137271E+02 -0.76333319597E+02  0.79635217541E+02  0.00000000000E+00 0. -1.
          1    1    1    2  501    0 -0.35163896714E+03  0.53187617689E+02  0.48996919160E+03  0.60543265075E+03  0.00000000000E+00 0. -1.
<scales pt_clust_5="13000.00000" pt_clust_6="13000.00000" pt_clust_7="13000.00000" pt_clust_8="13000.00000" pt_clust_9="22.69344" pt_clust_10="13000.00000"></scales>
<clustering>
<clus scale="   22.693">  2  9  1 -1</clus>
<clus scale="   81.393">  5  6 -1 -1</clus>
<clus scale="   93.133">  7  8 -1 -1</clus>
<clus scale="  359.695">  7 10 -1 -1</clus>
<clus scale="  551.098">  1  5  2 -1</clus>
<clus scale="   22.693">  2  5  1 -1</clus>
</clustering>
</event>
<event>
10    4  0.7508634E-005  0.7449286E+03  0.7546771E-02  0.1025266E+00
         21   -1    0    0  501  502  0.00000000000E+00  0.00000000000E+00  0.18109492402E+03  0.18109492402E+03  0.00000000000E+00 0. -1.
          2   -1    0    0  503    0 -0.00000000000E+00 -0.00000000000E+00 -0.21768008246E+04  0.21768008246E+04  0.00000000000E+00 0. -1.
         24    2    1    2    0    0  0.23418510133E+02 -0.51332104150E+02 -0.90137231128E+02  0.13347631090E+03  0.80670896883E+02 0.  0.
         23    2    1    2    0    0  0.30002270581E+03  0.44089860467E+02 -0.15434430776E+04  0.15755135015E+04  0.89826052935E+02 0.  0.
        -11    1    3    3    0    0  0.23933801327E+02  0.49149045309E+00 -0.76109184541E+02  0.79785188978E+02  0.00000000000E+00 0.  1.
         12    1    3    3    0    0 -0.51529119486E+00 -0.51823594603E+02 -0.14028046587E+02  0.53691121926E+02  0.00000000000E+00 0. -1.
        -11    1    4    4    0    0  0.49737325746E+02 -0.23319535296E+02 -0.20692423056E+03  0.21409166142E+03  0.00000000000E+00 0.  1.
         11    1    4    4    0    0  0.25028538007E+03  0.67409395763E+02 -0.13365188471E+04  0.13614218401E+04  0.00000000000E+00 0. -1.
         21    1    1    2  503  502 -0.90170243727E+01 -0.63623472653E+02  0.79468130589E+02  0.10219802728E+03  0.00000000000E+00 0. -1.
          1    1    1    2  501    0 -0.31442419157E+03  0.70865716336E+02 -0.44159372238E+03  0.54670790889E+03  0.00000000000E+00 0. -1.
<scales pt_clust_5="13000.00000" pt_clust_6="13000.00000" pt_clust_7="13000.00000" pt_clust_8="13000.00000" pt_clust_9="64.25926" pt_clust_10="13000.00000"></scales>
<clustering>
<clus scale="   64.259">  1  9  2 -1</clus>
<clus scale="   80.671">  5  6 -1 -1</clus>
<clus scale="   89.826">  7  8 -1 -1</clus>
<clus scale="  106.752">  2  5  1 -1</clus>
<clus scale="  314.898">  7 10 -1 -1</clus>
<clus scale="   64.259">  1  5  2 -1</clus>
</clustering>
</event>
<event>
10    4  0.7508634E-005  0.4892930E+03  0.7546771E-02  0.1067360E+00
          2   -1    0    0  503    0 -0.00000000000E+00  0.00000000000E+00  0.19303119436E+04  0.19303119436E+04  0.00000000000E+00 0. -1.
         21   -1    0    0  501  502  0.00000000000E+00 -0.00000000000E+00 -0.21444271413E+03  0.21444271413E+03  0.00000000000E+00 0. -1.
         24    2    1    2    0    0  0.11352497130E+01 -0.42820255929E+02 -0.24118198526E+02  0.10899263306E+03  0.97277147628E+02 0.  0.
         23    2    1    2    0    0  0.62372202984E+02 -0.16619871470E+03  0.42233134203E+03  0.46667584383E+03  0.88939733964E+02 0.  0.
        -11    1    3    3    0    0 -0.39933743221E+02 -0.40555043547E+02 -0.34520305199E+02  0.66566259289E+02  0.00000000000E+00 0.  1.
         12    1    3    3    0    0  0.41068992934E+02 -0.22652123818E+01  0.10402106673E+02  0.42426373767E+02  0.00000000000E+00 0. -1.
        -11    1    4    4    0    0  0.19803264962E+01 -0.68642299469E+02  0.25285153077E+03  0.26201065548E+03  0.00000000000E+00 0. -1.
         11    1    4    4    0    0  0.60391876488E+02 -0.97556415229E+02  0.16947981126E+03  0.20466518835E+03  0.00000000000E+00 0.  1.
         21    1    1    2  503  502 -0.52953318601E+01 -0.19617798459E+02 -0.11517853810E+03  0.11695723233E+03  0.00000000000E+00 0. -1.
          1    1    1    2  501    0 -0.58212120837E+02  0.22863676909E+03  0.14328346241E+04  0.14521289485E+04  0.00000000000E+00 0. -1.
<scales pt_clust_5="13000.00000" pt_clust_6="13000.00000" pt_clust_7="13000.00000" pt_clust_8="13000.00000" pt_clust_9="20.31991" pt_clust_10="13000.00000"></scales>
<clustering>
<clus scale="   20.320">  2  9  1 -1</clus>
<clus scale="   88.940">  7  8 -1 -1</clus>
<clus scale="   97.277">  5  6 -1 -1</clus>
<clus scale="  112.318">  1  5  2 -1</clus>
<clus scale="  194.036">  7 10 -1 -1</clus>
<clus scale="   20.320">  2  5  1 -1</clus>
</clustering>
</event>
<event>
10    4  0.7508634E-005  0.5295323E+03  0.7546771E-02  0.1059087E+00
          2   -1    0    0  503    0 -0.00000000000E+00  0.00000000000E+00  0.21346532320E+04  0.21346532320E+04  0.00000000000E+00 0. -1.
         21   -1    0    0  501  502  0.00000000000E+00 -0.00000000000E+00 -0.15775942809E+03  0.15775942809E+03  0.00000000000E+00 0. -1.
         24    2    1    2    0    0  0.70201837863E+01 -0.55146725669E+02  0.69981495430E+03  0.70864692558E+03  0.96690488351E+02 0.  0.
         23    2    1    2    0    0  0.25408784132E+03 -0.10867595288E+03  0.54087808002E+03  0.61424863115E+03  0.91548837149E+02 0.  0.
        -13    1    3    3    0    0  0.28512545918E+02  0.19024260216E+02  0.20717603047E+03  0.20999236975E+03  0.00000000000E+00 0.  1.
         14    1    3    3    0    0 -0.21492362132E+02 -0.74170985885E+02  0.49263892383E+03  0.49865455583E+03  0.00000000000E+00 0. -1.
        -11    1    4    4    0    0  0.32401985929E+02 -0.45853453323E+02  0.67711866483E+02  0.87962064189E+02  0.00000000000E+00 0.  1.
         11    1    4    4    0    0  0.22168585539E+03 -0.62822499552E+02  0.47316621354E+03  0.52628656696E+03  0.00000000000E+00 0. -1.
         21    1    1    2  503  502 -0.72402333960E+02  0.10341695112E+03 -0.66525993920E+02  0.14269853401E+03  0.00000000000E+00 0. -1.
          1    1    1    2  501    0 -0.18870569114E+03  0.60405727427E+02  0.80272676348E+03  0.82681856932E+03  0.00000000000E+00 0. -1.
<scales pt_clust_5="13000.00000" pt_clust_6="13000.00000" pt_clust_7="13000.00000" pt_clust_8="13000.00000" pt_clust_9="124.93433" pt_clust_10="13000.00000"></scales>
<clustering>
<clus scale="   91.549">  7  8 -1 -1</clus>
<clus scale="   96.690">  5  6 -1 -1</clus>
<clus scale="  111.532">  1  5  2 -1</clus>
<clus scale="  124.934">  2  9  1 -1</clus>
<clus scale="  210.645">  7 10 -1 -1</clus>
<clus scale="  124.934">  2  5  1 -1</clus>
</clustering>
</event>
<event>
10    4  0.7508634E-005  0.5959436E+03  0.7546771E-02  0.1051360E+00
         21   -1    0    0  501  502  0.00000000000E+00  0.00000000000E+00  0.18464580268E+03  0.18464580268E+03  0.00000000000E+00 0. -1.
          2   -1    0    0  503    0 -0.00000000000E+00 -0.00000000000E+00 -0.11842305125E+04  0.11842305125E+04  0.00000000000E+00 0. -1.
         24    2    1    2    0    0  0.39655725485E+02 -0.38275717853E+02 -0.18506991946E+03  0.20897347437E+03  0.79883857954E+02 0.  0.
         23    2    1    2    0    0  0.10904073220E+03 -0.23859854260E+03 -0.34094461850E+03  0.44071484269E+03  0.95745464009E+02 0.  0.
        -13    1    3    3    0    0  0.41317919886E+02 -0.15544039794E+01 -0.15800571710E+03  0.16332603379E+03  0.00000000000E+00 0.  1.
         14    1    3    3    0    0 -0.16621944015E+01 -0.36721313873E+02 -0.27064202357E+02  0.45647440586E+02  0.00000000000E+00 0. -1.
        -11    1    4    4    0    0  0.82085074932E+02 -0.11123819767E+03 -0.23595821391E+03  0.27347426727E+03  0.00000000000E+00 0.  1.
         11    1    4    4    0    0  0.26955657266E+02 -0.12736034493E+03 -0.10498640459E+03  0.16724057542E+03  0.00000000000E+00 0. -1.
         21    1    1    2  503  502  0.21438089891E+02  0.17291946024E+02  0.79966376472E+02  0.84576737118E+02  0.00000000000E+00 0. -1.
          1    1    1    2  501    0 -0.17013454757E+03  0.25958231443E+03 -0.55353654837E+03  0.63461126103E+03  0.00000000000E+00 0. -1.
<scales pt_clust_5="13000.00000" pt_clust_6="13000.00000" pt_clust_7="13000.00000" pt_clust_8="13000.00000" pt_clust_9="27.54275" pt_clust_10="13000.00000"></scales>
<clustering>
<clus scale="   27.543">  1  9  2 -1</clus>
<clus scale="   79.884">  5  6 -1 -1</clus>
<clus scale="   95.745">  7  8 -1 -1</clus>
<clus scale="   97.331">  2  5  1 -1</clus>
<clus scale="  279.631">  7 10 -1 -1</clus>
<clus scale="   27.543">  1  5  2 -1</clus>
</clustering>
</event>
<event>
10    4  0.7508634E-005  0.1593758E+03  0.7546771E-02  0.1214314E+00
          2   -1    0    0  502    0 -0.00000000000E+00  0.00000000000E+00  0.70296179780E+03  0.70296179780E+03  0.00000000000E+00 0. -1.
         21   -1    0    0  503  502  0.00000000000E+00 -0.00000000000E+00 -0.67182451207E+02  0.67182451207E+02  0.00000000000E+00 0. -1.
         24    2    1    2    0    0  0.70592824831E+02  0.20662475849E+02  0.21475203465E+03  0.24099468080E+03  0.80930309290E+02 0.  0.
         23    2    1    2    0    0  0.34875557979E+02 -0.28775806122E+01  0.36237265670E+03  0.37437744179E+03  0.87292276769E+02 0.  0.
        -11    1    3    3    0    0  0.16517135833E+02  0.25422593871E+02  0.16367165716E+03  0.16645580619E+03  0.00000000000E+00 0.  1.
         12    1    3    3    0    0  0.54075688998E+02 -0.47601180219E+01  0.51080377486E+02  0.74538874611E+02  0.00000000000E+00 0. -1.
        -13    1    4    4    0    0  0.62559793801E+02 -0.84095791902E+01  0.28777089617E+03  0.29461252096E+03  0.00000000000E+00 0. -1.
         13    1    4    4    0    0 -0.27684235822E+02  0.55319985779E+01  0.74601760529E+02  0.79764920832E+02  0.00000000000E+00 0.  1.
         21    1    1    2  503  501 -0.58802376349E+02 -0.17790173983E+01 -0.19819849685E+02  0.62078263577E+02  0.00000000000E+00 0. -1.
          1    1    1    2  501    0 -0.46666006460E+02 -0.16005877839E+02  0.78474504935E+02  0.92693862845E+02  0.00000000000E+00 0. -1.
<scales pt_clust_5="13000.00000" pt_clust_6="13000.00000" pt_clust_7="13000.00000" pt_clust_8="13000.00000" pt_clust_9="58.82928" pt_clust_10="13000.00000"></scales>
<clustering>
<clus scale="   58.829">  2  9  1 -1</clus>
<clus scale="   80.930">  5  6 -1 -1</clus>
<clus scale="   87.292">  7  8 -1 -1</clus>
<clus scale="   64.737">  7 10 -1 -1</clus>
<clus scale="   92.933">  1  5  2 -1</clus>
<clus scale="   58.829">  2  5  1 -1</clus>
</clustering>
</event>
<event>
10    4  0.7508634E-005  0.1987660E+03  0.7546771E-02  0.1169961E+00
          2   -1    0    0  502    0 -0.00000000000E+00  0.00000000000E+00  0.29232802287E+03  0.29232802287E+03  0.00000000000E+00 0. -1.
         21   -1    0    0  503  502  0.00000000000E+00 -0.00000000000E+00 -0.11646171114E+03  0.11646171114E+03  0.00000000000E+00 0. -1.
         24    2    1    2    0    0  0.79327691259E+02 -0.68196012827E+02  0.44725017894E+02  0.13916437896E+03  0.80142487988E+02 0.  0.
         23    2    1    2    0    0 -0.45964635190E+02 -0.39444113806E+02  0.56851572505E+02  0.12286072073E+03  0.90521100297E+02 0.  0.
        -11    1    3    3    0    0  0.55007896354E+02 -0.37897173627E+02  0.66808768076E+02  0.94474736952E+02  0.00000000000E+00 0.  1.
         12    1    3    3    0    0  0.24319794905E+02 -0.30298839200E+02 -0.22083750182E+02  0.44689642012E+02  0.00000000000E+00 0. -1.
        -11    1    4    4    0    0 -0.64130466047E+02 -0.84301244443E+01  0.12679798165E+02  0.65913283601E+02  0.00000000000E+00 0. -1.
         11    1    4    4    0    0  0.18165830857E+02 -0.31013989362E+02  0.44171774339E+02  0.56947437126E+02  0.00000000000E+00 0.  1.
         21    1    1    2  503  501  0.87246594211E+01  0.32367315399E+02  0.91702287502E+00  0.33535111735E+02  0.00000000000E+00 0. -1.
          1    1    1    2  501    0 -0.42087715490E+02  0.75272811234E+02  0.73372698458E+02  0.11322952259E+03  0.00000000000E+00 0. -1.
<scales pt_clust_5="13000.00000" pt_clust_6="13000.00000" pt_clust_7="13000.00000" pt_clust_8="13000.00000" pt_clust_9="33.52257" pt_clust_10="13000.00000"></scales>
<clustering>
<clus scale="   33.523">  2  9  1 -1</clus>
<clus scale="   80.142">  5  6 -1 -1</clus>
<clus scale="   90.521">  7  8 -1 -1</clus>
<clus scale="   91.134">  7 10 -1 -1</clus>
<clus scale="  127.230">  1  5  2 -1</clus>
<clus scale="   33.523">  2  5  1 -1</clus>
</clustering>
</event>
<event>
10    4  0.7508634E-005  0.1659458E+03  0.7546771E-02  0.1199187E+00
          2   -1    0    0  503    0 -0.00000000000E+00  0.00000000000E+00  0.13778261458E+04  0.13778261458E+04  0.00000000000E+00 0. -1.
         21   -1    0    0  501  502  0.00000000000E+00 -0.00000000000E+00 -0.31833404825E+02  0.31833404825E+02  0.00000000000E+00 0.  1.
         24    2    1    2    0    0 -0.29244489891E+02 -0.72435689396E+02  0.95295526862E+03  0.95944838958E+03  0.79468855415E+02 0.  0.
         23    2    1    2    0    0  0.13898376987E+02  0.98215046213E+02  0.23691155822E+03  0.27170970828E+03  0.88655056071E+02 0.  0.
        -13    1    3    3    0    0  0.24783066169E+02 -0.26527208822E+02  0.20968099603E+03  0.21280040713E+03  0.00000000000E+00 0.  1.
         14    1    3    3    0    0 -0.54027556060E+02 -0.45908480573E+02  0.74327427259E+03  0.74664798245E+03  0.00000000000E+00 0. -1.
        -11    1    4    4    0    0 -0.74342931426E+01  0.80444520936E+02  0.22901112731E+03  0.24284292473E+03  0.00000000000E+00 0. -1.
         11    1    4    4    0    0  0.21332670130E+02  0.17770525277E+02  0.79004309169E+01  0.28866783544E+02  0.00000000000E+00 0.  1.
         21    1    1    2  503  502 -0.21066787581E+02 -0.18183369255E+02  0.13174333063E+02  0.30789730562E+02  0.00000000000E+00 0.  1.
          1    1    1    2  501    0  0.36412900485E+02 -0.75959875620E+01  0.14295158111E+03  0.14771172225E+03  0.00000000000E+00 0. -1.
<scales pt_clust_5="13000.00000" pt_clust_6="13000.00000" pt_clust_7="13000.00000" pt_clust_8="13000.00000" pt_clust_9="27.82884" pt_clust_10="13000.00000"></scales>
<clustering>
<clus scale="   27.829">  2  9  1 -1</clus>
<clus scale="   79.469">  5  6 -1 -1</clus>
<clus scale="   88.655">  7  8 -1 -1</clus>
<clus scale="   35.522">  7 10 -1 -1</clus>
<clus scale="  113.921">  1  5  2 -1</clus>
<clus scale="   27.829">  2  5  1 -1</clus>
</clustering>
</event>
<event>
10    4  0.7508634E-005  0.1840751E+03  0.7546771E-02  0.1199913E+00
          2   -1    0    0  503    0 -0.00000000000E+00  0.00000000000E+00  0.10412867584E+04  0.10412867584E+04  0.00000000000E+00 0. -1.
         21   -1    0    0  501  502  0.00000000000E+00 -0.00000000000E+00 -0.12300581464E+03  0.12300581464E+03  0.00000000000E+00 0. -1.
         24    2    1    2    0    0 -0.16366165382E+02  0.29970194052E+02  0.93394044804E+03  0.93757048625E+03  0.75017280045E+02 0.  0.
         23    2    1    2    0    0 -0.34158990308E+02  0.16316932500E+02  0.40469004369E+02  0.10891349448E+03  0.93762092875E+02 0.  0.
        -11    1    3    3    0    0 -0.71742467593E+01  0.26770640797E+02  0.10570988612E+03  0.10928273902E+03  0.00000000000E+00 0.  1.
         12    1    3    3    0    0 -0.91919186226E+01  0.31995532549E+01  0.82823056192E+03  0.82828774723E+03  0.00000000000E+00 0. -1.
        -11    1    4    4    0    0  0.16267231173E+02  0.15026062994E+02 -0.20227363690E+02  0.29992526085E+02  0.00000000000E+00 0.  1.
         11    1    4    4    0    0 -0.50426221481E+02  0.12908695059E+01  0.60696368059E+02  0.78920968396E+02  0.00000000000E+00 0. -1.
         21    1    1    2  503  502  0.30367336208E+02 -0.27041529854E+02  0.13471695596E+02  0.42835803102E+02  0.00000000000E+00 0. -1.
          1    1    1    2  501    0  0.20157819482E+02 -0.19245596698E+02 -0.69600204290E+02  0.74972789168E+02  0.00000000000E+00 0. -1.
<scales pt_clust_5="13000.00000" pt_clust_6="13000.00000" pt_clust_7="13000.00000" pt_clust_8="13000.00000" pt_clust_9="40.66226" pt_clust_10="13000.00000"></scales>
<clustering>
<clus scale="   40.662">  2  9  1 -1</clus>
<clus scale="   75.017">  5  6 -1 -1</clus>
<clus scale="   82.160">  1  5  2 -1</clus>
<clus scale="   93.762">  7  8 -1 -1</clus>
<clus scale="   46.566">  7 10 -1 -1</clus>
<clus scale="   40.662">  2  5  1 -1</clus>
</clustering>
</event>
<event>
10    4  0.7508634E-005  0.3821126E+03  0.7546771E-02  0.1052525E+00
         -1   -1    0    0    0  501 -0.00000000000E+00  0.00000000000E+00  0.57887119210E+03  0.57887119210E+03  0.00000000000E+00 0.  1.
         21   -1    0    0  503  502  0.00000000000E+00 -0.00000000000E+00 -0.27004834771E+03  0.27004834771E+03  0.00000000000E+00 0.  1.
         24    2    1    2    0    0  0.34188523044E+03  0.12315842585E+02  0.23942063955E+03  0.42533125545E+03  0.80915038435E+02 0.  0.
         23    2    1    2    0    0 -0.53415673782E+02 -0.11372704293E+02  0.30875420492E+02  0.89652709251E+02  0.64044859879E+02 0.  0.
        -11    1    3    3    0    0  0.28152982976E+03 -0.21085104542E+02  0.18597958192E+03  0.33807104515E+03  0.00000000000E+00 0.  1.
         12    1    3    3    0    0  0.60355400684E+02  0.33400947126E+02  0.53441057630E+02  0.87260210298E+02  0.00000000000E+00 0. -1.
        -13    1    4    4    0    0 -0.19026127513E+02  0.23581666833E+02 -0.23972087031E+01  0.30394656575E+02  0.00000000000E+00 0.  1.
         13    1    4    4    0    0 -0.34389546269E+02 -0.34954371125E+02  0.33272629195E+02  0.59258052676E+02  0.00000000000E+00 0. -1.
         21    1    1    2  503  501  0.16671647974E+02 -0.19895005313E+02  0.39947347681E+01  0.26262387334E+02  0.00000000000E+00 0.  1.
         -2    1    1    2    0  502 -0.30514120463E+03  0.18951867021E+02  0.34532049575E+02  0.30767318778E+03  0.00000000000E+00 0.  1.
<scales pt_clust_5="13000.00000" pt_clust_6="13000.00000" pt_clust_7="13000.00000" pt_clust_8="13000.00000" pt_clust_9="25.95679" pt_clust_10="13000.00000"></scales>
<clustering>
<clus scale="   25.957">  2  9  1 -1</clus>
<clus scale="   64.045">  7  8 -1 -1</clus>
<clus scale="   80.915">  5  6 -1 -1</clus>
<clus scale="  296.468">  7 10 -1 -1</clus>
<clus scale="  357.195">  1  5  2 -1</clus>
<clus scale="   25.957">  2  5  1 -1</clus>
</clustering>
</event>
<event>
10    4  0.7508634E-005  0.1489647E+03  0.7546771E-02  0.1220465E+00
         21   -1    0    0  503  502  0.00000000000E+00  0.00000000000E+00  0.18917861679E+03  0.18917861679E+03  0.00000000000E+00 0. -1.
         -3   -1    0    0    0  501 -0.00000000000E+00 -0.00000000000E+00 -0.19201129730E+03  0.19201129730E+03  0.00000000000E+00 0.  1.
         24    2    1    2    0    0  0.44475049603E+02  0.46549731226E+02 -0.50342814278E+02  0.11401585735E+03  0.79500372724E+02 0.  0.
         23    2    1    2    0    0 -0.32834850235E+02 -0.11248881009E+02 -0.59131594104E+02  0.11553037731E+03  0.92984181167E+02 0.  0.
        -13    1    3    3    0    0  0.20375118670E+02  0.81693551981E+01  0.20422428924E+02  0.29982652123E+02  0.00000000000E+00 0.  1.
         14    1    3    3    0    0  0.24099930933E+02  0.38380376028E+02 -0.70765243203E+02  0.84033205226E+02  0.00000000000E+00 0. -1.
        -11    1    4    4    0    0 -0.59691869230E+02 -0.59223169447E+00 -0.12995113887E+02  0.61092904461E+02  0.00000000000E+00 0.  1.
         11    1    4    4    0    0  0.26857018995E+02 -0.10656649314E+02 -0.46136480217E+02  0.54437472854E+02  0.00000000000E+00 0. -1.
         21    1    1    2  503  501 -0.22833110691E+02  0.64036391112E+01  0.10583137203E+03  0.10845569069E+03  0.00000000000E+00 0. -1.
         -4    1    1    2    0  502  0.11192911323E+02 -0.41704489329E+02  0.81035583466E+00  0.43187988731E+02  0.00000000000E+00 0.  1.
<scales pt_clust_5="13000.00000" pt_clust_6="13000.00000" pt_clust_7="13000.00000" pt_clust_8="13000.00000" pt_clust_9="23.71408" pt_clust_10="13000.00000"></scales>
<clustering>
<clus scale="   23.714">  1  9  2 -1</clus>
<clus scale="   79.500">  5  6 -1 -1</clus>
<clus scale="   92.984">  7  8 -1 -1</clus>
<clus scale="   40.307">  7 10 -1 -1</clus>
<clus scale="   99.965">  2  5  1 -1</clus>
<clus scale="   23.714">  1  5  2 -1</clus>
</clustering>
</event>
<event>
10    4  0.7508634E-005  0.3580364E+03  0.7546771E-02  0.1068726E+00
          2   -1    0    0  502    0 -0.00000000000E+00  0.00000000000E+00  0.18916146872E+04  0.18916146872E+04  0.00000000000E+00 0. -1.
         21   -1    0    0  503  502  0.00000000000E+00 -0.00000000000E+00 -0.70604772370E+02  0.70604772370E+02  0.00000000000E+00 0. -1.
         24    2    1    2    0    0 -0.57394556479E+02  0.26912223016E+03  0.72502659268E+03  0.77965791667E+03  0.80510850577E+02 0.  0.
         23    2    1    2    0    0 -0.26486413428E+02 -0.23195232304E+03  0.63324079793E+03  0.68106766351E+03  0.91410304975E+02 0.  0.
        -13    1    3    3    0    0 -0.14737477036E+02  0.92769353922E+02  0.15287884951E+03  0.17943045696E+03  0.00000000000E+00 0.  1.
         14    1    3    3    0    0 -0.42657079443E+02  0.17635287624E+03  0.57214774317E+03  0.60022745971E+03  0.00000000000E+00 0. -1.
        -13    1    4    4    0    0 -0.33747106258E+02 -0.12433114341E+03  0.45350757872E+03  0.47145118979E+03  0.00000000000E+00 0.  1.
         13    1    4    4    0    0  0.72606928300E+01 -0.10762117963E+03  0.17973321921E+03  0.20961647371E+03  0.00000000000E+00 0. -1.
         21    1    1    2  503  501  0.82628015476E+01 -0.20844952103E+02 -0.84730312154E+01  0.23970360356E+02  0.00000000000E+00 0. -1.
          1    1    1    2  501    0  0.75618168360E+02 -0.16324955015E+02  0.47121555540E+03  0.47752351899E+03  0.00000000000E+00 0. -1.
<scales pt_clust_5="13000.00000" pt_clust_6="13000.00000" pt_clust_7="13000.00000" pt_clust_8="13000.00000" pt_clust_9="22.42289" pt_clust_10="13000.00000"></scales>
<clustering>
<clus scale="   22.423">  2  9  1 -1</clus>
<clus scale="   80.511">  5  6 -1 -1</clus>
<clus scale="   91.410">  7  8 -1 -1</clus>
<clus scale="   78.091">  7 10 -1 -1</clus>
<clus scale="  276.076">  1  5  2 -1</clus>
<clus scale="   22.423">  2  5  1 -1</clus>
</clustering>
</event>
<event>
10    4  0.7508634E-005  0.2601564E+03  0.7546771E-02  0.1148081E+00
          2   -1    0    0  502    0 -0.00000000000E+00  0.00000000000E+00  0.16479101169E+03  0.16479101169E+03  0.00000000000E+00 0. -1.
         21   -1    0    0  503  502  0.00000000000E+00 -0.00000000000E+00 -0.28778057647E+03  0.28778057647E+03  0.00000000000E+00 0.  1.
         24    2    1    2    0    0 -0.39914256772E+02  0.20986976570E+02  0.37022949119E+02  0.98991210596E+02  0.79968493387E+02 0.  0.
         23    2    1    2    0    0  0.12175377075E+03  0.35933591969E+02 -0.12548714226E+03  0.20116257832E+03  0.92758591628E+02 0.  0.
        -13    1    3    3    0    0 -0.12807218256E+02 -0.22623104643E+02  0.39833589791E+02  0.47566212575E+02  0.00000000000E+00 0.  1.
         14    1    3    3    0    0 -0.27107038516E+02  0.43610081213E+02 -0.28106406718E+01  0.51424998021E+02  0.00000000000E+00 0. -1.
        -11    1    4    4    0    0  0.44123900143E+02  0.59598485171E+02 -0.44357948921E+02  0.86409059890E+02  0.00000000000E+00 0.  1.
         11    1    4    4    0    0  0.77629870606E+02 -0.23664893202E+02 -0.81129193343E+02  0.11475351843E+03  0.00000000000E+00 0. -1.
         21    1    1    2  503  501 -0.34881514963E+02  0.19014691476E+02 -0.47800737443E+02  0.62154557984E+02  0.00000000000E+00 0. -1.
          1    1    1    2  501    0 -0.46957999014E+02 -0.75935260015E+02  0.13275365799E+02  0.90263241256E+02  0.00000000000E+00 0. -1.
<scales pt_clust_5="13000.00000" pt_clust_6="13000.00000" pt_clust_7="13000.00000" pt_clust_8="13000.00000" pt_clust_9="39.72755" pt_clust_10="13000.00000"></scales>
<clustering>
<clus scale="   39.728">  2  9  1 -1</clus>
<clus scale="   79.968">  5  6 -1 -1</clus>
<clus scale="   92.759">  7  8 -1 -1</clus>
<clus scale="   89.881">  7 10 -1 -1</clus>
<clus scale="   94.516">  1  5  2 -1</clus>
<clus scale="   39.728">  2  5  1 -1</clus>
</clustering>
</event>
<event>
10    4  0.7508634E-005  0.2319840E+03  0.7546771E-02  0.1160184E+00
          2   -1    0    0  503    0 -0.00000000000E+00  0.00000000000E+00  0.43253857292E+03  0.43253857292E+03  0.00000000000E+00 0. -1.
         21   -1    0    0  501  502  0.00000000000E+00 -0.00000000000E+00 -0.13600911006E+03  0.13600911006E+03  0.00000000000E+00 0. -1.
         24    2    1    2    0    0 -0.57715833963E+02 -0.14992820943E+02  0.89709216107E+02  0.13454880420E+03  0.80620934555E+02 0.  0.
         23    2    1    2    0    0  0.32535494577E+02 -0.46256742163E+02 -0.35816459367E+01  0.10843987172E+03  0.92456113854E+02 0.  0.
        -11    1    3    3    0    0 -0.73001370869E+02 -0.29780156914E+02  0.67375971448E+02  0.10370910964E+03  0.00000000000E+00 0.  1.
         12    1    3    3    0    0  0.15285536906E+02  0.14787335971E+02  0.22333244659E+02  0.30839694561E+02  0.00000000000E+00 0. -1.
        -11    1    4    4    0    0  0.61783473309E+02 -0.43557346329E+02 -0.14743510108E+02  0.77018251627E+02  0.00000000000E+00 0. -1.
         11    1    4    4    0    0 -0.29247978732E+02 -0.26993958342E+01  0.11161864171E+02  0.31421620097E+02  0.00000000000E+00 0.  1.
         21    1    1    2  503  502  0.11576985962E+03 -0.58169780064E+01  0.17013225055E+03  0.20586762812E+03  0.00000000000E+00 0. -1.
          1    1    1    2  501    0 -0.90589520233E+02  0.67066541113E+02  0.40269642138E+02  0.11969137893E+03  0.00000000000E+00 0. -1.
<scales pt_clust_5="13000.00000" pt_clust_6="13000.00000" pt_clust_7="13000.00000" pt_clust_8="13000.00000" pt_clust_9="83.19875" pt_clust_10="13000.00000"></scales>
<clustering>
<clus scale="   80.621">  5  6 -1 -1</clus>
<clus scale="   92.456">  7  8 -1 -1</clus>
<clus scale="  100.278">  1  5  2 -1</clus>
<clus scale="   83.199">  2  9  1 -1</clus>
<clus scale="   88.281">  7 10 -1 -1</clus>
<clus scale="   83.199">  2  5  1 -1</clus>
</clustering>
</event>
<event>
10    4  0.7508634E-005  0.3857443E+03  0.7546771E-02  0.1083052E+00
          2   -1    0    0  503    0 -0.00000000000E+00  0.00000000000E+00  0.78242801413E+03  0.78242801413E+03  0.00000000000E+00 0. -1.
         21   -1    0    0  501  502  0.00000000000E+00 -0.00000000000E+00 -0.25514144415E+03  0.25514144415E+03  0.00000000000E+00 0.  1.
         24    2    1    2    0    0 -0.12715083969E+03  0.85121488651E+01  0.38423401481E+02  0.15595049053E+03  0.81267490432E+02 0.  0.
         23    2    1    2    0    0 -0.99091061586E+02  0.64499007486E+02  0.15847507769E+03  0.22032668149E+03  0.97212838007E+02 0.  0.
        -13    1    3    3    0    0 -0.13585454841E+03 -0.44894585215E+00  0.25977676372E+02  0.13831666402E+03  0.00000000000E+00 0.  1.
         14    1    3    3    0    0  0.87037087132E+01  0.89610947173E+01  0.12445725108E+02  0.17633826509E+02  0.00000000000E+00 0. -1.
        -13    1    4    4    0    0 -0.72532212289E+02 -0.82526234436E+01  0.97257070347E+02  0.12160577842E+03  0.00000000000E+00 0.  1.
         13    1    4    4    0    0 -0.26558849297E+02  0.72751630930E+02  0.61218007342E+02  0.98720903064E+02  0.00000000000E+00 0. -1.
         21    1    1    2  503  502  0.75451487695E+01 -0.63612457204E+02 -0.13365371675E+03  0.14821197651E+03  0.00000000000E+00 0.  1.
          1    1    1    2  501    0  0.21869675251E+03 -0.93986991472E+01  0.46404180756E+03  0.51308030976E+03  0.00000000000E+00 0. -1.
<scales pt_clust_5="13000.00000" pt_clust_6="13000.00000" pt_clust_7="13000.00000" pt_clust_8="13000.00000" pt_clust_9="64.05836" pt_clust_10="13000.00000"></scales>
<clustering>
<clus scale="   64.058">  2  9  1 -1</clus>
<clus scale="   81.267">  5  6 -1 -1</clus>
<clus scale="   97.213">  7  8 -1 -1</clus>
<clus scale="  149.620">  1  5  2 -1</clus>
<clus scale="  135.457">  7 10 -1 -1</clus>
<clus scale="   64.058">  2  5  1 -1</clus>
</clustering>
</event>
<event>
10    4  0.7508634E-005  0.3324778E+03  0.7546771E-02  0.1091783E+00
         21   -1    0    0  503  502  0.00000000000E+00  0.00000000000E+00  0.61710128729E+02  0.61710128729E+02  0.00000000000E+00 0. -1.
          2   -1    0    0  502    0 -0.00000000000E+00 -0.00000000000E+00 -0.32788900837E+04  0.32788900837E+04  0.00000000000E+00 0. -1.
         24    2    1    2    0    0  0.14959327169E+03  0.50619701226E+02 -0.22323459242E+04  0.22399250878E+04  0.94633886605E+02 0.  0.
         23    2    1    2    0    0 -0.19928618124E+03  0.81744977281E+02 -0.79260601882E+03  0.82608304127E+03  0.88270417763E+02 0.  0.
        -11    1    3    3    0    0  0.48001491883E+01  0.21956581589E+02 -0.10082202353E+03  0.10329672471E+03  0.00000000000E+00 0.  1.
         12    1    3    3    0    0  0.14479312250E+03  0.28663119637E+02 -0.21315239007E+04  0.21366283631E+04  0.00000000000E+00 0. -1.
        -13    1    4    4    0    0 -0.19885829310E+03  0.55714054982E+02 -0.71497192564E+03  0.74419992684E+03  0.00000000000E+00 0. -1.
         13    1    4    4    0    0 -0.42788814355E+00  0.26030922299E+02 -0.77634093180E+02  0.81883114425E+02  0.00000000000E+00 0.  1.
         21    1    1    2  503  501  0.23903212605E+02 -0.36282619451E+02  0.13978776608E+02  0.45642066589E+02  0.00000000000E+00 0. -1.
          1    1    1    2  501    0  0.25789696951E+02 -0.96082059056E+02 -0.20620678855E+03  0.22895001678E+03  0.00000000000E+00 0. -1.
<scales pt_clust_5="13000.00000" pt_clust_6="13000.00000" pt_clust_7="13000.00000" pt_clust_8="13000.00000" pt_clust_9="43.44873" pt_clust_10="13000.00000"></scales>
<clustering>
<clus scale="   43.449">  1  9  2 -1</clus>
<clus scale="   88.270">  7  8 -1 -1</clus>
<clus scale="   94.634">  5  6 -1 -1</clus>
<clus scale="  114.288">  7 10 -1 -1</clus>
<clus scale="  185.300">  2  5  1 -1</clus>
<clus scale="   43.449">  1  5  2 -1</clus>
</clustering>
</event>
<event>
10    4  0.7508634E-005  0.3623557E+03  0.7546771E-02  0.1095208E+00
         21   -1    0    0  501  502  0.00000000000E+00  0.00000000000E+00  0.18433248976E+03  0.18433248976E+03  0.00000000000E+00 0. -1.
          2   -1    0    0  503    0 -0.00000000000E+00 -0.00000000000E+00 -0.61200100954E+03  0.61200100954E+03  0.00000000000E+00 0. -1.
         24    2    1    2    0    0  0.98749179887E+02  0.37046404160E+02 -0.24999570335E+03  0.28280609527E+03  0.79734554877E+02 0.  0.
         23    2    1    2    0    0  0.11969255705E+03  0.12393641550E+02 -0.12836943711E+03  0.19788328435E+03  0.90549275400E+02 0.  0.
        -13    1    3    3    0    0  0.53510593426E+02 -0.98256590437E+01 -0.55616911387E+02  0.77802108048E+02  0.00000000000E+00 0.  1.
         14    1    3    3    0    0  0.45238586461E+02  0.46872063204E+02 -0.19437879196E+03  0.20500398723E+03  0.00000000000E+00 0. -1.
        -11    1    4    4    0    0  0.93502516874E+02  0.30071254174E+01 -0.34063991710E+02  0.99559625332E+02  0.00000000000E+00 0. -1.
         11    1    4    4    0    0  0.26190040176E+02  0.93865161329E+01 -0.94305445404E+02  0.98323659016E+02  0.00000000000E+00 0.  1.
         21    1    1    2  503  502 -0.40888860870E+02  0.62603169813E+02  0.43049342357E+02  0.86280366778E+02  0.00000000000E+00 0. -1.
          1    1    1    2  501    0 -0.17755287607E+03 -0.11204321552E+03 -0.92352721668E+02  0.22936375290E+03  0.00000000000E+00 0. -1.
<scales pt_clust_5="13000.00000" pt_clust_6="13000.00000" pt_clust_7="13000.00000" pt_clust_8="13000.00000" pt_clust_9="74.77336" pt_clust_10="13000.00000"></scales>
<clustering>
<clus scale="   74.773">  1  9  2 -1</clus>
<clus scale="   79.735">  5  6 -1 -1</clus>
<clus scale="   90.549">  7  8 -1 -1</clus>
<clus scale="  130.826">  2  5  1 -1</clus>
<clus scale="  161.094">  7 10 -1 -1</clus>
<clus scale="   74.773">  1  5  2 -1</clus>
</clustering>
</event>
<event>
10    4  0.7508634E-005  0.7130597E+03  0.7546771E-02  0.9845407E-01
         21   -1    0    0  503  502  0.00000000000E+00  0.00000000000E+00  0.30634174228E+03  0.30634174228E+03  0.00000000000E+00 0.  1.
         -1   -1    0    0    0  501 -0.00000000000E+00 -0.00000000000E+00 -0.15867544847E+04  0.15867544847E+04  0.00000000000E+00 0.  1.
         24    2    1    2    0    0 -0.42641820319E+03 -0.11417122703E+03 -0.38629601709E+03  0.59188458195E+03  0.78963234732E+02 0.  0.
         23    2    1    2    0    0 -0.27090792130E+02  0.10124080760E+03 -0.33106710384E+01  0.13897434438E+03  0.91210173293E+02 0.  0.
        -13    1    3    3    0    0 -0.33454388838E+03 -0.98739501175E+02 -0.34282971114E+03  0.48908211293E+03  0.00000000000E+00 0.  1.
         14    1    3    3    0    0 -0.91874314811E+02 -0.15431725855E+02 -0.43466305950E+02  0.10280246903E+03  0.00000000000E+00 0. -1.
        -13    1    4    4    0    0 -0.13861244135E+01  0.32967489480E+02 -0.44344510224E+02  0.55273974803E+02  0.00000000000E+00 0. -1.
         13    1    4    4    0    0 -0.25704667717E+02  0.68273318122E+02  0.41033839185E+02  0.83700369581E+02  0.00000000000E+00 0.  1.
         21    1    1    2  503  501  0.22941510639E+02  0.35495472456E+02  0.85273080490E+02  0.95172158384E+02  0.00000000000E+00 0. -1.
         -2    1    1    2    0  502  0.43056748468E+03 -0.22565053028E+02 -0.97607913483E+03  0.10670651423E+04  0.00000000000E+00 0.  1.
<scales pt_clust_5="13000.00000" pt_clust_6="13000.00000" pt_clust_7="13000.00000" pt_clust_8="13000.00000" pt_clust_9="42.26395" pt_clust_10="13000.00000"></scales>
<clustering>
<clus scale="   42.264">  1  9  2 -1</clus>
<clus scale="   78.963">  5  6 -1 -1</clus>
<clus scale="   91.210">  7  8 -1 -1</clus>
<clus scale="  433.988">  2  5  1 -1</clus>
<clus scale="  116.554">  7 10 -1 -1</clus>
<clus scale="   42.264">  1  5  2 -1</clus>
</clustering>
</event>
<event>
10    4  0.7508634E-005  0.2384772E+03  0.7546771E-02  0.1160293E+00
         21   -1    0    0  501  502  0.00000000000E+00  0.00000000000E+00  0.25358917472E+02  0.25358917472E+02  0.00000000000E+00 0.  1.
          2   -1    0    0  503    0 -0.00000000000E+00 -0.00000000000E+00 -0.12940541694E+04  0.12940541694E+04  0.00000000000E+00 0. -1.
         24    2    1    2    0    0 -0.42533764102E+02  0.21367265744E+02 -0.40360443971E+03  0.41454402132E+03  0.81758918307E+02 0.  0.
         23    2    1    2    0    0  0.87719653594E+02 -0.46423632444E+02 -0.32562905122E+03  0.35322605076E+03  0.94257480674E+02 0.  0.
        -11    1    3    3    0    0  0.14489312325E+02  0.33260330728E+02 -0.14689169598E+03  0.15130551913E+03  0.00000000000E+00 0.  1.
         12    1    3    3    0    0 -0.57023076427E+02 -0.11893064984E+02 -0.25671274373E+03  0.26323850219E+03  0.00000000000E+00 0. -1.
        -11    1    4    4    0    0  0.41227758566E+02  0.30588720911E+01 -0.24199612884E+03  0.24550195752E+03  0.00000000000E+00 0. -1.
         11    1    4    4    0    0  0.46491895028E+02 -0.49482504535E+02 -0.83632922384E+02  0.10772409324E+03  0.00000000000E+00 0.  1.
         21    1    1    2  503  502  0.15783874240E+02 -0.15803459305E+02 -0.32738163003E+02  0.39631645548E+02  0.00000000000E+00 0.  1.
          1    1    1    2  501    0 -0.60969763731E+02  0.40859826005E+02 -0.50672359802E+03  0.51201136927E+03  0.00000000000E+00 0. -1.
<scales pt_clust_5="13000.00000" pt_clust_6="13000.00000" pt_clust_7="13000.00000" pt_clust_8="13000.00000" pt_clust_9="22.33562" pt_clust_10="13000.00000"></scales>
<clustering>
<clus scale="   22.336">  1  9  2 -1</clus>
<clus scale="   81.759">  5  6 -1 -1</clus>
<clus scale="   92.074">  2  5  1 -1</clus>
<clus scale="   94.257">  7  8 -1 -1</clus>
<clus scale="   93.340">  7 10 -1 -1</clus>
<clus scale="   22.336">  1  5  2 -1</clus>
</clustering>
</event>
<event>
10    4  0.7508634E-005  0.2290387E+03  0.7546771E-02  0.1163828E+00
          4   -1    0    0  502    0 -0.00000000000E+00  0.00000000000E+00  0.28964313316E+03  0.28964313316E+03  0.00000000000E+00 0. -1.
         21   -1    0    0  503  502  0.00000000000E+00 -0.00000000000E+00 -0.13262812675E+03  0.13262812675E+03  0.00000000000E+00 0.  1.
         24    2    1    2    0    0  0.45335342719E+02  0.26953645876E+02  0.83263225872E+02  0.12871505277E+03  0.82782894982E+02 0.  0.
         23    2    1    2    0    0  0.47086889065E+02  0.54522822138E+02  0.90709237818E+02  0.14840988268E+03  0.92776151007E+02 0.  0.
        -13    1    3    3    0    0 -0.20916818277E+01  0.38282965607E+02  0.82044315402E+01  0.39208076788E+02  0.00000000000E+00 0.  1.
         14    1    3    3    0    0  0.47427024546E+02 -0.11329319731E+02  0.75058794332E+02  0.89506975982E+02  0.00000000000E+00 0. -1.
        -13    1    4    4    0    0  0.62551522474E+02  0.69337728786E+02  0.84929898122E+02  0.12622797310E+03  0.00000000000E+00 0.  1.
         13    1    4    4    0    0 -0.15464633409E+02 -0.14814906648E+02  0.57793396961E+01  0.22181909583E+02  0.00000000000E+00 0. -1.
         21    1    1    2  503  501 -0.84498594279E+01 -0.24892475867E+02 -0.33461606487E+02  0.42552492147E+02  0.00000000000E+00 0.  1.
          3    1    1    2  501    0 -0.83972372356E+02 -0.56583992147E+02  0.16504149207E+02  0.10259383231E+03  0.00000000000E+00 0. -1.
<scales pt_clust_5="13000.00000" pt_clust_6="13000.00000" pt_clust_7="13000.00000" pt_clust_8="13000.00000" pt_clust_9="26.28755" pt_clust_10="13000.00000"></scales>
<clustering>
<clus scale="   26.288">  2  9  1 -1</clus>
<clus scale="   82.783">  5  6 -1 -1</clus>
<clus scale="   92.776">  7  8 -1 -1</clus>
<clus scale="   95.752">  1  5  2 -1</clus>
<clus scale="   92.560">  7 10 -1 -1</clus>
<clus scale="   26.288">  2  5  1 -1</clus>
</clustering>
</event>
<event>
10    4  0.7508634E-005  0.3759699E+03  0.7546771E-02  0.1086865E+00
          2   -1    0    0  502    0 -0.00000000000E+00  0.00000000000E+00  0.83489032813E+03  0.83489032813E+03  0.00000000000E+00 0. -1.
         21   -1    0    0  503  502  0.00000000000E+00 -0.00000000000E+00 -0.12256920868E+03  0.12256920868E+03  0.00000000000E+00 0.  1.
         24    2    1    2    0    0  0.94045431953E+02 -0.41620261081E+02  0.20593659856E+03  0.24448280063E+03  0.82372129830E+02 0.  0.
         23    2    1    2    0    0 -0.24561654760E+03 -0.99139315171E+01  0.23894763861E+03  0.35562406769E+03  0.94587150459E+02 0.  0.
        -13    1    3    3    0    0 -0.40659643484E+01 -0.32433617734E+02  0.61263738429E+02  0.69438586332E+02  0.00000000000E+00 0.  1.
         14    1    3    3    0    0  0.98111396302E+02 -0.91866433464E+01  0.14467286013E+03  0.17504421429E+03  0.00000000000E+00 0. -1.
        -11    1    4    4    0    0 -0.11916924684E+03 -0.10083065503E+02  0.53133815751E+02  0.13086703167E+03  0.00000000000E+00 0.  1.
         11    1    4    4    0    0 -0.12644730076E+03  0.16913398552E+00  0.18581382286E+03  0.22475703602E+03  0.00000000000E+00 0. -1.
         21    1    1    2  503  501  0.72413309858E+02 -0.50229831310E+02  0.41935941554E+02  0.97597882109E+02  0.00000000000E+00 0.  1.
          1    1    1    2  501    0  0.79157805790E+02  0.10176402391E+03  0.22550094073E+03  0.25975478638E+03  0.00000000000E+00 0. -1.
<scales pt_clust_5="13000.00000" pt_clust_6="13000.00000" pt_clust_7="13000.00000" pt_clust_8="13000.00000" pt_clust_9="88.12902" pt_clust_10="13000.00000"></scales>
<clustering>
<clus scale="   82.372">  5  6 -1 -1</clus>
<clus scale="   88.129">  2  9  1 -1</clus>
<clus scale="   94.587">  7  8 -1 -1</clus>
<clus scale="  130.767">  7 10 -1 -1</clus>
<clus scale="  145.962">  1  5  2 -1</clus>
<clus scale="   88.129">  2  5  1 -1</clus>
</clustering>
</event>
<event>
10    4  0.7508634E-005  0.2712266E+03  0.7546771E-02  0.1126822E+00
         21   -1    0    0  501  502  0.00000000000E+00  0.00000000000E+00  0.38143279024E+03  0.38143279024E+03  0.00000000000E+00 0.  1.
          2   -1    0    0  503    0 -0.00000000000E+00 -0.00000000000E+00 -0.15441286086E+04  0.15441286086E+04  0.00000000000E+00 0. -1.
         24    2    1    2    0    0 -0.58795170171E+02 -0.11211917045E+03 -0.48198102212E+03  0.50179746596E+03  0.58884724206E+02 0.  0.
         23    2    1    2    0    0  0.11516770503E+02  0.12476057211E+02 -0.26766963301E+03  0.28238467364E+03  0.88350345000E+02 0.  0.
        -13    1    3    3    0    0 -0.68567589412E+02 -0.76697255862E+02 -0.35441463376E+03  0.36904432796E+03  0.00000000000E+00 0.  1.
         14    1    3    3    0    0  0.97724192411E+01 -0.35421914590E+02 -0.12756638836E+03  0.13275313800E+03  0.00000000000E+00 0. -1.
        -11    1    4    4    0    0  0.45791337109E+02  0.80463333337E+00 -0.89100991037E+02  0.10018223691E+03  0.00000000000E+00 0.  1.
         11    1    4    4    0    0 -0.34274566605E+02  0.11671423877E+02 -0.17856864198E+03  0.18220243673E+03  0.00000000000E+00 0. -1.
         21    1    1    2  503  502 -0.12621143377E+03 -0.10132085784E+03  0.32171080068E+03  0.36012925669E+03  0.00000000000E+00 0.  1.
          1    1    1    2  501    0  0.17348983344E+03  0.20096397108E+03 -0.73475596389E+03  0.78125000252E+03  0.00000000000E+00 0. -1.
<scales pt_clust_5="13000.00000" pt_clust_6="13000.00000" pt_clust_7="13000.00000" pt_clust_8="13000.00000" pt_clust_9="163.97038" pt_clust_10="13000.00000"></scales>
<clustering>
<clus scale="   58.885">  5  6 -1 -1</clus>
<clus scale="   88.350">  7  8 -1 -1</clus>
<clus scale="  139.624">  2  5  1 -1</clus>
<clus scale="  163.970">  1  9  2 -1</clus>
<clus scale="   89.312">  7 10 -1 -1</clus>
<clus scale="  163.970">  1  5  2 -1</clus>
</clustering>
</event>
<event>
10    4  0.7508634E-005  0.3626247E+03  0.7546771E-02  0.1113262E+00
          2   -1    0    0  503    0 -0.00000000000E+00  0.00000000000E+00  0.87437117394E+03  0.87437117394E+03  0.00000000000E+00 0. -1.
         21   -1    0    0  501  502  0.00000000000E+00 -0.00000000000E+00 -0.62407775660E+02  0.62407775660E+02  0.00000000000E+00 0.  1.
         24    2    1    2    0    0  0.27366358890E+02  0.12727269281E+02  0.13769677446E+03  0.16090518226E+03  0.77583342278E+02 0.  0.
         23    2    1    2    0    0 -0.15982340632E+03  0.10372045285E+01  0.19765775989E+03  0.26845131326E+03  0.86330299130E+02 0.  0.
        -13    1    3    3    0    0  0.53660338990E+02  0.15145711114E+02  0.80690017279E+02  0.98080086838E+02  0.00000000000E+00 0.  1.
         14    1    3    3    0    0 -0.26293980100E+02 -0.24184418330E+01  0.57006757181E+02  0.62825095421E+02  0.00000000000E+00 0. -1.
        -11    1    4    4    0    0 -0.14427722380E+03  0.21070515993E+02  0.19422137442E+03  0.24286174304E+03  0.00000000000E+00 0.  1.
         11    1    4    4    0    0 -0.15546182516E+02 -0.20033311464E+02  0.34363854719E+01  0.25589570222E+02  0.00000000000E+00 0. -1.
         21    1    1    2  503  502 -0.13306139219E+02 -0.14960977181E+02  0.20792756723E+02  0.28865600830E+02  0.00000000000E+00 0.  1.
          1    1    1    2  501    0  0.14576318664E+03  0.11965033716E+01  0.45581610721E+03  0.47855685325E+03  0.00000000000E+00 0. -1.
<scales pt_clust_5="13000.00000" pt_clust_6="13000.00000" pt_clust_7="13000.00000" pt_clust_8="13000.00000" pt_clust_9="20.02209" pt_clust_10="13000.00000"></scales>
<clustering>
<clus scale="   20.022">  2  9  1 -1</clus>
<clus scale="   77.583">  5  6 -1 -1</clus>
<clus scale="   82.009">  1  5  2 -1</clus>
<clus scale="   86.330">  7  8 -1 -1</clus>
<clus scale="  158.839">  7 10 -1 -1</clus>
<clus scale="   20.022">  2  5  1 -1</clus>
</clustering>
</event>
<event>
10    4  0.7508634E-005  0.3041970E+03  0.7546771E-02  0.1091416E+00
          2   -1    0    0  503    0 -0.00000000000E+00  0.00000000000E+00  0.43129329873E+03  0.43129329873E+03  0.00000000000E+00 0. -1.
         21   -1    0    0  501  502  0.00000000000E+00 -0.00000000000E+00 -0.34399446446E+03  0.34399446446E+03  0.00000000000E+00 0. -1.
         24    2    1    2    0    0  0.15355665180E+03  0.15462622720E+03  0.63234851135E+02  0.23933866039E+03  0.76127738109E+02 0.  0.
         23    2    1    2    0    0 -0.31876657240E+02 -0.74461081794E+01  0.59915153942E+02  0.11457169000E+03  0.92006959916E+02 0.  0.
        -11    1    3    3    0    0  0.13443001824E+02  0.44825373899E+02 -0.82332559397E+01  0.47516470267E+02  0.00000000000E+00 0.  1.
         12    1    3    3    0    0  0.14011364998E+03  0.10980085330E+03  0.71468107075E+02  0.19182219013E+03  0.00000000000E+00 0. -1.
        -11    1    4    4    0    0  0.15539529423E+02 -0.33890236799E+02  0.44661365196E+02  0.58177853744E+02  0.00000000000E+00 0.  1.
         11    1    4    4    0    0 -0.47416186664E+02  0.26444128620E+02  0.15253788746E+02  0.56393836253E+02  0.00000000000E+00 0. -1.
         21    1    1    2  503  502  0.39317715628E+02  0.24953495269E+00 -0.16372528721E+03  0.16838026815E+03  0.00000000000E+00 0. -1.
          1    1    1    2  501    0 -0.16099771019E+03 -0.14742965398E+03  0.12787411641E+03  0.25299714466E+03  0.00000000000E+00 0. -1.
<scales pt_clust_5="13000.00000" pt_clust_6="13000.00000" pt_clust_7="13000.00000" pt_clust_8="13000.00000" pt_clust_9="39.31851" pt_clust_10="13000.00000"></scales>
<clustering>
<clus scale="   39.319">  2  9  1 -1</clus>
<clus scale="   76.128">  5  6 -1 -1</clus>
<clus scale="   92.007">  7  8 -1 -1</clus>
<clus scale="  208.254">  7 10 -1 -1</clus>
<clus scale="  244.287">  1  5  2 -1</clus>
<clus scale="   39.319">  2  5  1 -1</clus>
</clustering>
</event>
<event>
10    4  0.7508634E-005  0.5198626E+03  0.7546771E-02  0.1056539E+00
         21   -1    0    0  501  502  0.00000000000E+00  0.00000000000E+00  0.37583173683E+03  0.37583173683E+03  0.00000000000E+00 0. -1.
          2   -1    0    0  503    0 -0.00000000000E+00 -0.00000000000E+00 -0.91609799961E+03  0.91609799961E+03  0.00000000000E+00 0. -1.
         24    2    1    2    0    0  0.33286942298E+02 -0.10752614142E+03 -0.13178626716E+03  0.19226618605E+03  0.83239260379E+02 0.  0.
         23    2    1    2    0    0  0.19732691064E+03  0.13726966955E+03 -0.44441630934E+03  0.51316888242E+03  0.89752849745E+02 0.  0.
        -13    1    3    3    0    0 -0.51334564216E+00 -0.75779401639E+02 -0.12388712060E+03  0.14522671891E+03  0.00000000000E+00 0.  1.
         14    1    3    3    0    0  0.33800287940E+02 -0.31746739785E+02 -0.78991465617E+01  0.47039467134E+02  0.00000000000E+00 0. -1.
        -13    1    4    4    0    0  0.81967100379E+02  0.77008561854E+02 -0.29103131234E+03  0.31200664882E+03  0.00000000000E+00 0.  1.
         13    1    4    4    0    0  0.11535981026E+03  0.60261107693E+02 -0.15338499699E+03  0.20116223360E+03  0.00000000000E+00 0. -1.
         21    1    1    2  503  502 -0.10313292196E+02  0.67011571659E+02  0.25331421563E+03  0.26223082689E+03  0.00000000000E+00 0. -1.
          1    1    1    2  501    0 -0.22030056074E+03 -0.96755099782E+02 -0.21737790190E+03  0.32426384108E+03  0.00000000000E+00 0. -1.
<scales pt_clust_5="13000.00000" pt_clust_6="13000.00000" pt_clust_7="13000.00000" pt_clust_8="13000.00000" pt_clust_9="67.80055" pt_clust_10="13000.00000"></scales>
<clustering>
<clus scale="   67.801">  1  9  2 -1</clus>
<clus scale="   83.239">  5  6 -1 -1</clus>
<clus scale="   89.753">  7  8 -1 -1</clus>
<clus scale="  126.622">  2  5  1 -1</clus>
<clus scale="  235.503">  7 10 -1 -1</clus>
<clus scale="   67.801">  1  5  2 -1</clus>
</clustering>
</event>
<event>
10    4  0.7508634E-005  0.2056778E+03  0.7546771E-02  0.1156869E+00
          2   -1    0    0  503    0 -0.00000000000E+00  0.00000000000E+00  0.43695150991E+03  0.43695150991E+03  0.00000000000E+00 0. -1.
         21   -1    0    0  501  502  0.00000000000E+00 -0.00000000000E+00 -0.14406752357E+03  0.14406752357E+03  0.00000000000E+00 0. -1.
         24    2    1    2    0    0 -0.10580969036E+03 -0.86990362153E+02  0.29052550381E+03  0.33201159992E+03  0.84045347506E+02 0.  0.
         23    2    1    2    0    0  0.21226940771E+02 -0.99939824990E+00  0.45825713655E+01  0.93208806307E+02  0.90638291034E+02 0.  0.
        -13    1    3    3    0    0 -0.74904946065E+02 -0.87542309316E+02  0.15572605040E+03  0.19371373116E+03  0.00000000000E+00 0.  1.
         14    1    3    3    0    0 -0.30904744299E+02  0.55194716298E+00  0.13479945341E+03  0.13829786877E+03  0.00000000000E+00 0. -1.
        -13    1    4    4    0    0 -0.19988249002E+02  0.16743945546E+02  0.31492579224E+02  0.40886090016E+02  0.00000000000E+00 0.  1.
         13    1    4    4    0    0  0.41215189774E+02 -0.17743343796E+02 -0.26910007859E+02  0.52322716291E+02  0.00000000000E+00 0. -1.
         21    1    1    2  503  502  0.45598250789E+02  0.74960524016E+01  0.35957758556E+02  0.58552127861E+02  0.00000000000E+00 0. -1.
          1    1    1    2  501    0  0.38984498804E+02  0.80493708002E+02 -0.38181847391E+02  0.97246499398E+02  0.00000000000E+00 0. -1.
<scales pt_clust_5="13000.00000" pt_clust_6="13000.00000" pt_clust_7="13000.00000" pt_clust_8="13000.00000" pt_clust_9="46.21032" pt_clust_10="13000.00000"></scales>
<clustering>
<clus scale="   46.210">  2  9  1 -1</clus>
<clus scale="   84.045">  5  6 -1 -1</clus>
<clus scale="   90.638">  7  8 -1 -1</clus>
<clus scale="  104.801">  7 10 -1 -1</clus>
<clus scale="  155.459">  1  5  2 -1</clus>
<clus scale="   46.210">  2  5  1 -1</clus>
</clustering>
</event>
<event>
10    4  0.7508634E-005  0.1383182E+03  0.7546771E-02  0.1242508E+00
         -3   -1    0    0    0  501 -0.00000000000E+00  0.00000000000E+00  0.58592112921E+03  0.58592112921E+03  0.00000000000E+00 0.  1.
         21   -1    0    0  501  502  0.00000000000E+00 -0.00000000000E+00 -0.29037076918E+02  0.29037076918E+02  0.00000000000E+00 0.  1.
         24    2    1    2    0    0  0.42458414831E+01  0.15225406321E+01  0.20366264100E+03  0.21819002970E+03  0.78154158046E+02 0.  0.
         23    2    1    2    0    0  0.30670508591E+02 -0.15310858980E+02  0.18082946956E+03  0.20645796775E+03  0.93544069222E+02 0.  0.
        -13    1    3    3    0    0  0.96116891350E+01 -0.37566981591E+02  0.97010313725E+02  0.10447326760E+03  0.00000000000E+00 0.  1.
         14    1    3    3    0    0 -0.53658476518E+01  0.39089522223E+02  0.10665232728E+03  0.11371676210E+03  0.00000000000E+00 0. -1.
        -13    1    4    4    0    0  0.52474369956E+02 -0.32479561598E+02  0.75390693103E+02  0.97428117248E+02  0.00000000000E+00 0.  1.
         13    1    4    4    0    0 -0.21803861365E+02  0.17168702618E+02  0.10543877645E+03  0.10902985050E+03  0.00000000000E+00 0. -1.
         21    1    1    2  503  502  0.72400834262E+00  0.37528308029E+02  0.72971402166E+02  0.82059268981E+02  0.00000000000E+00 0.  1.
         -4    1    1    2    0  503 -0.35640358417E+02 -0.23739989681E+02  0.99420539561E+02  0.10825093969E+03  0.00000000000E+00 0.  1.
<scales pt_clust_5="13000.00000" pt_clust_6="13000.00000" pt_clust_7="13000.00000" pt_clust_8="13000.00000" pt_clust_9="37.53529" pt_clust_10="13000.00000"></scales>
<clustering>
<clus scale="   37.535">  2  9  1 -1</clus>
<clus scale="   78.154">  5  6 -1 -1</clus>
<clus scale="   79.297">  1  5  2 -1</clus>
<clus scale="   93.544">  7  8 -1 -1</clus>
<clus scale="   36.629">  7 10 -1 -1</clus>
<clus scale="   37.535">  2  5  1 -1</clus>
</clustering>
</event>
<event>
10    4  0.7508634E-005  0.2429996E+03  0.7546771E-02  0.1149269E+00
          2   -1    0    0  502    0 -0.00000000000E+00  0.00000000000E+00  0.86140593344E+03  0.86140593344E+03  0.00000000000E+00 0. -1.
         21   -1    0    0  503  502  0.00000000000E+00 -0.00000000000E+00 -0.12998074969E+03  0.12998074969E+03  0.00000000000E+00 0.  1.
         24    2    1    2    0    0  0.38708326038E+02 -0.66792927076E+02  0.59207542819E+03  0.60253329888E+03  0.80829660269E+02 0.  0.
         23    2    1    2    0    0  0.65821709799E+01  0.10042878798E+03  0.23461696481E+03  0.27100294488E+03  0.90929695507E+02 0.  0.
        -13    1    3    3    0    0  0.35485827699E+02 -0.17215704755E+02  0.93361733978E+02  0.10135106230E+03  0.00000000000E+00 0.  1.
         14    1    3    3    0    0  0.32224983388E+01 -0.49577222322E+02  0.49871369421E+03  0.50118223658E+03  0.00000000000E+00 0. -1.
        -11    1    4    4    0    0  0.26794151658E+02  0.38985003423E+01  0.16711930192E+02  0.31818445574E+02  0.00000000000E+00 0. -1.
         11    1    4    4    0    0 -0.20211980679E+02  0.96530287638E+02  0.21790503462E+03  0.23918449930E+03  0.00000000000E+00 0.  1.
         21    1    1    2  503  501 -0.85766956225E+01 -0.25062707200E+02 -0.62566619365E+02  0.67943217901E+02  0.00000000000E+00 0.  1.
          1    1    1    2  501    0 -0.36713801396E+02 -0.85731537038E+01 -0.32700589881E+02  0.49907221480E+02  0.00000000000E+00 0. -1.
<scales pt_clust_5="13000.00000" pt_clust_6="13000.00000" pt_clust_7="13000.00000" pt_clust_8="13000.00000" pt_clust_9="26.48960" pt_clust_10="13000.00000"></scales>
<clustering>
<clus scale="   26.490">  2  9  1 -1</clus>
<clus scale="   80.830">  5  6 -1 -1</clus>
<clus scale="   90.930">  7  8 -1 -1</clus>
<clus scale="   48.819">  7 10 -1 -1</clus>
<clus scale="  112.758">  1  5  2 -1</clus>
<clus scale="   26.490">  2  5  1 -1</clus>
</clustering>
</event>
<event>
10    4  0.7508634E-005  0.1478650E+03  0.7546771E-02  0.1207267E+00
          2   -1    0    0  502    0 -0.00000000000E+00  0.00000000000E+00  0.98832705659E+03  0.98832705659E+03  0.00000000000E+00 0. -1.
         21   -1    0    0  503  502  0.00000000000E+00 -0.00000000000E+00 -0.61042594790E+02  0.61042594790E+02  0.00000000000E+00 0. -1.
         24    2    1    2    0    0  0.83091114408E+02  0.60859230535E+02  0.27703225392E+03  0.31280530493E+03  0.10243197668E+03 0.  0.
         23    2    1    2    0    0 -0.59659595149E+02  0.32124606190E+02  0.37772865142E+03  0.39418655145E+03  0.90071336309E+02 0.  0.
        -11    1    3    3    0    0  0.77570093696E+02  0.33536538428E+02  0.27155020067E+03  0.28439643164E+03  0.00000000000E+00 0.  1.
         12    1    3    3    0    0  0.55210207115E+01  0.27322692108E+02  0.54820532474E+01  0.28408873288E+02  0.00000000000E+00 0. -1.
        -13    1    4    4    0    0 -0.27095640389E+02  0.61806320326E+02  0.25536850945E+03  0.26413494766E+03  0.00000000000E+00 0.  1.
         13    1    4    4    0    0 -0.32563954760E+02 -0.29681714136E+02  0.12236014197E+03  0.13005160378E+03  0.00000000000E+00 0. -1.
         21    1    1    2  503  501  0.78984507145E+01 -0.91738177022E+02  0.28556469009E+02  0.96404100376E+02  0.00000000000E+00 0. -1.
          1    1    1    2  501    0 -0.31329969974E+02 -0.12456597033E+01  0.24396708745E+03  0.24597369462E+03  0.00000000000E+00 0. -1.
<scales pt_clust_5="13000.00000" pt_clust_6="13000.00000" pt_clust_7="13000.00000" pt_clust_8="13000.00000" pt_clust_9="92.07757" pt_clust_10="13000.00000"></scales>
<clustering>
<clus scale="   90.071">  7  8 -1 -1</clus>
<clus scale="   31.355">  7 10 -1 -1</clus>
<clus scale="   92.078">  2  9  1 -1</clus>
<clus scale="  102.432">  5  6 -1 -1</clus>
<clus scale="  135.239">  1  5  2 -1</clus>
<clus scale="   92.078">  2  5  1 -1</clus>
</clustering>
</event>
<event>
10    4  0.7508634E-005  0.2390825E+03  0.7546771E-02  0.1159961E+00
         -1   -1    0    0    0  501 -0.00000000000E+00  0.00000000000E+00  0.35969508225E+03  0.35969508225E+03  0.00000000000E+00 0.  1.
         21   -1    0    0  503  502  0.00000000000E+00 -0.00000000000E+00 -0.22656841466E+03  0.22656841466E+03  0.00000000000E+00 0.  1.
         24    2    1    2    0    0  0.32178272648E+02 -0.37397629622E+02  0.89942435266E+02  0.12872191367E+03  0.77753877501E+02 0.  0.
         23    2    1    2    0    0 -0.13557337148E+02  0.37652636532E+02  0.74528746784E+02  0.12313827782E+03  0.89481724044E+02 0.  0.
        -11    1    3    3    0    0  0.25407451979E+02  0.10100488470E+02  0.64214897160E+00  0.27349055536E+02  0.00000000000E+00 0.  1.
         12    1    3    3    0    0  0.67708206693E+01 -0.47498118093E+02  0.89300286295E+02  0.10137285814E+03  0.00000000000E+00 0. -1.
        -11    1    4    4    0    0  0.37283138869E+02  0.26683096409E+02  0.38486530227E+02  0.59860112652E+02  0.00000000000E+00 0. -1.
         11    1    4    4    0    0 -0.50840476017E+02  0.10969540123E+02  0.36042216558E+02  0.63278165164E+02  0.00000000000E+00 0.  1.
         21    1    1    2  503  501  0.14353921841E+02  0.12546050878E+03 -0.12228052189E+03  0.17578083050E+03  0.00000000000E+00 0.  1.
         -2    1    1    2    0  502 -0.32974857341E+02 -0.12571551569E+03  0.90936007430E+02  0.15862247492E+03  0.00000000000E+00 0.  1.
<scales pt_clust_5="13000.00000" pt_clust_6="13000.00000" pt_clust_7="13000.00000" pt_clust_8="13000.00000" pt_clust_9="122.76090" pt_clust_10="13000.00000"></scales>
<clustering>
<clus scale="   77.754">  5  6 -1 -1</clus>
<clus scale="   89.482">  7  8 -1 -1</clus>
<clus scale="   92.085">  1  5  2 -1</clus>
<clus scale="  122.761">  2  9  1 -1</clus>
<clus scale="   74.477">  7 10 -1 -1</clus>
<clus scale="  122.761">  2  5  1 -1</clus>
</clustering>
</event>
<event>
10    4  0.7508634E-005  0.2764174E+03  0.7546771E-02  0.1123616E+00
          2   -1    0    0  503    0 -0.00000000000E+00  0.00000000000E+00  0.88116015850E+03  0.88116015850E+03  0.00000000000E+00 0. -1.
         21   -1    0    0  501  502  0.00000000000E+00 -0.00000000000E+00 -0.57877823166E+02  0.57877823166E+02  0.00000000000E+00 0.  1.
         24    2    1    2    0    0  0.11194842943E+03  0.23323766910E+01  0.18252897258E+03  0.22910340959E+03  0.81447256690E+02 0.  0.
         23    2    1    2    0    0  0.18670501176E+02 -0.43844307067E+02  0.10613524399E+03  0.14670400297E+03  0.89367016246E+02 0.  0.
        -11    1    3    3    0    0  0.93422087012E+02 -0.18515506878E+02  0.17651935376E+03  0.20057316019E+03  0.00000000000E+00 0.  1.
         12    1    3    3    0    0  0.18526342418E+02  0.20847883569E+02  0.60096188241E+01  0.28530249405E+02  0.00000000000E+00 0. -1.
        -13    1    4    4    0    0  0.28810578945E+02 -0.44083272325E+01 -0.38726301339E+01  0.29402041975E+02  0.00000000000E+00 0.  1.
         13    1    4    4    0    0 -0.10140077770E+02 -0.39435979834E+02  0.11000787413E+03  0.11730196099E+03  0.00000000000E+00 0. -1.
         21    1    1    2  503  502  0.11224529174E+02  0.18669483022E+02  0.22403611233E+02  0.31248383123E+02  0.00000000000E+00 0.  1.
          1    1    1    2  501    0 -0.14184345978E+03  0.22842447353E+02  0.51221450753E+03  0.53198218599E+03  0.00000000000E+00 0. -1.
<scales pt_clust_5="13000.00000" pt_clust_6="13000.00000" pt_clust_7="13000.00000" pt_clust_8="13000.00000" pt_clust_9="21.78393" pt_clust_10="13000.00000"></scales>
<clustering>
<clus scale="   21.784">  2  9  1 -1</clus>
<clus scale="   81.447">  5  6 -1 -1</clus>
<clus scale="   89.367">  7  8 -1 -1</clus>
<clus scale="  142.220">  7 10 -1 -1</clus>
<clus scale="  142.809">  1  5  2 -1</clus>
<clus scale="   21.784">  2  5  1 -1</clus>
</clustering>
</event>
<event>
10    4  0.7508634E-005  0.2337939E+03  0.7546771E-02  0.1176021E+00
          2   -1    0    0  503    0 -0.00000000000E+00  0.00000000000E+00  0.20531910488E+03  0.20531910488E+03  0.00000000000E+00 0. -1.
         21   -1    0    0  501  502  0.00000000000E+00 -0.00000000000E+00 -0.15844203752E+04  0.15844203752E+04  0.00000000000E+00 0.  1.
         24    2    1    2    0    0  0.24877815132E+01  0.32807464389E+01  0.12608187260E+03  0.14330384644E+03  0.67988244964E+02 0.  0.
         23    2    1    2    0    0 -0.16888622577E+03 -0.26933656623E+01 -0.11743291832E+03  0.22387458450E+03  0.88314935335E+02 0.  0.
        -13    1    3    3    0    0  0.23729619225E+02 -0.23359752041E+02  0.51784701447E+02  0.61566453105E+02  0.00000000000E+00 0.  1.
         14    1    3    3    0    0 -0.21241837712E+02  0.26640498480E+02  0.74297171148E+02  0.81737393335E+02  0.00000000000E+00 0. -1.
        -13    1    4    4    0    0 -0.73217563428E+02  0.14162623397E+02 -0.42149801049E+01  0.74693758462E+02  0.00000000000E+00 0. -1.
         13    1    4    4    0    0 -0.95668662347E+02 -0.16855989060E+02 -0.11321793822E+03  0.14918082604E+03  0.00000000000E+00 0.  1.
         21    1    1    2  503  502  0.18903313018E+03 -0.38465531084E+02 -0.13522146851E+04  0.13659054418E+04  0.00000000000E+00 0.  1.
          1    1    1    2  501    0 -0.22634685920E+02  0.37878150308E+02 -0.35535539554E+02  0.56655607391E+02  0.00000000000E+00 0. -1.
<scales pt_clust_5="13000.00000" pt_clust_6="13000.00000" pt_clust_7="13000.00000" pt_clust_8="13000.00000" pt_clust_9="193.08024" pt_clust_10="13000.00000"></scales>
<clustering>
<clus scale="   67.988">  5  6 -1 -1</clus>
<clus scale="   68.113">  1  5  2 -1</clus>
<clus scale="   88.315">  7  8 -1 -1</clus>
<clus scale="   44.360">  7 10 -1 -1</clus>
<clus scale="  193.080">  2  9  1 -1</clus>
<clus scale="  193.080">  2  5  1 -1</clus>
</clustering>
</event>
<event>
10    4  0.7508634E-005  0.3598947E+03  0.7546771E-02  0.1099357E+00
         21   -1    0    0  503  502  0.00000000000E+00  0.00000000000E+00  0.26794737914E+03  0.26794737914E+03  0.00000000000E+00 0. -1.
          2   -1    0    0  502    0 -0.00000000000E+00 -0.00000000000E+00 -0.33646760844E+03  0.33646760844E+03  0.00000000000E+00 0. -1.
         24    2    1    2    0    0 -0.69581080159E+02  0.51257067921E+02 -0.37659405141E+01  0.11668262540E+03  0.78306060010E+02 0.  0.
         23    2    1    2    0    0 -0.39685335580E+02 -0.14436700969E+03  0.33975417843E+02  0.17991809992E+03  0.93805300034E+02 0.  0.
        -11    1    3    3    0    0 -0.38575194605E+02  0.20006699410E+02 -0.40458828615E+02  0.59373651336E+02  0.00000000000E+00 0.  1.
         12    1    3    3    0    0 -0.31005885553E+02  0.31250368511E+02  0.36692888101E+02  0.57308974063E+02  0.00000000000E+00 0. -1.
        -11    1    4    4    0    0  0.90426577625E+00 -0.92508670075E+02  0.58712274408E+02  0.10957099480E+03  0.00000000000E+00 0.  1.
         11    1    4    4    0    0 -0.40589601357E+02 -0.51858339613E+02 -0.24736856565E+02  0.70347105117E+02  0.00000000000E+00 0. -1.
         21    1    1    2  503  501  0.15060729855E+02  0.38559747243E+02  0.84836066133E+02  0.94397234113E+02  0.00000000000E+00 0.  1.
          1    1    1    2  501    0  0.94205685884E+02  0.54550194524E+02 -0.18356577276E+03  0.21341702815E+03  0.00000000000E+00 0. -1.
<scales pt_clust_5="13000.00000" pt_clust_6="13000.00000" pt_clust_7="13000.00000" pt_clust_8="13000.00000" pt_clust_9="41.39661" pt_clust_10="13000.00000"></scales>
<clustering>
<clus scale="   41.397">  1  9  2 -1</clus>
<clus scale="   78.306">  5  6 -1 -1</clus>
<clus scale="   93.805">  7  8 -1 -1</clus>
<clus scale="  111.589">  7 10 -1 -1</clus>
<clus scale="  119.835">  2  5  1 -1</clus>
<clus scale="   41.397">  1  5  2 -1</clus>
</clustering>
</event>
<event>
10    4  0.7508634E-005  0.4228128E+03  0.7546771E-02  0.1090993E+00
          2   -1    0    0  503    0 -0.00000000000E+00  0.00000000000E+00  0.13290013892E+04  0.13290013892E+04  0.00000000000E+00 0. -1.
         21   -1    0    0  501  502  0.00000000000E+00 -0.00000000000E+00 -0.82252798755E+02  0.82252798755E+02  0.00000000000E+00 0. -1.
         24    2    1    2    0    0 -0.48805092025E+02  0.46377728104E+01  0.27330924452E+02  0.98217214983E+02  0.80598982272E+02 0.  0.
         23    2    1    2    0    0 -0.63651287349E+02 -0.62285030122E+02  0.94171968230E+02  0.15850877927E+03  0.91245614398E+02 0.  0.
        -11    1    3    3    0    0  0.25966182627E+01  0.32619772259E+02 -0.19409011599E+01  0.32780467751E+02  0.00000000000E+00 0.  1.
         12    1    3    3    0    0 -0.51401710288E+02 -0.27981999449E+02  0.29271825612E+02  0.65436747232E+02  0.00000000000E+00 0. -1.
        -13    1    4    4    0    0 -0.55775203306E+02 -0.43488649444E+02  0.11131126395E+03  0.13187999627E+03  0.00000000000E+00 0.  1.
         13    1    4    4    0    0 -0.78760840428E+01 -0.18796380678E+02 -0.17139295717E+02  0.26628783001E+02  0.00000000000E+00 0. -1.
         21    1    1    2  503  502  0.13288650541E+02 -0.36738212226E+02  0.26317754314E+02  0.47105293364E+02  0.00000000000E+00 0. -1.
          1    1    1    2  501    0  0.99167728833E+02  0.94385469538E+02  0.10989279435E+04  0.11074229004E+04  0.00000000000E+00 0. -1.
<scales pt_clust_5="13000.00000" pt_clust_6="13000.00000" pt_clust_7="13000.00000" pt_clust_8="13000.00000" pt_clust_9="39.06769" pt_clust_10="13000.00000"></scales>
<clustering>
<clus scale="   39.068">  2  9  1 -1</clus>
<clus scale="   80.599">  5  6 -1 -1</clus>
<clus scale="   91.246">  7  8 -1 -1</clus>
<clus scale="   91.995">  1  5  2 -1</clus>
<clus scale="  102.216">  7 10 -1 -1</clus>
<clus scale="   39.068">  2  5  1 -1</clus>
</clustering>
</event>
<event>
10    4  0.7508634E-005  0.2417289E+03  0.7546771E-02  0.1162756E+00
          4   -1    0    0  502    0 -0.00000000000E+00  0.00000000000E+00  0.32512057945E+03  0.32512057945E+03  0.00000000000E+00 0. -1.
         21   -1    0    0  503  502  0.00000000000E+00 -0.00000000000E+00 -0.14434432713E+03  0.14434432713E+03  0.00000000000E+00 0.  1.
         24    2    1    2    0    0  0.13691306040E+02  0.28477022332E+02  0.26294002023E+02  0.90765826950E+02  0.80923841590E+02 0.  0.
         23    2    1    2    0    0  0.19630511492E+02 -0.36688170623E+02 -0.20446456447E+02  0.92522526796E+02  0.80068605199E+02 0.  0.
        -13    1    3    3    0    0  0.20217746681E+02  0.54541767645E+02  0.26441225855E+02  0.63896010231E+02  0.00000000000E+00 0.  1.
         14    1    3    3    0    0 -0.65264406403E+01 -0.26064745314E+02 -0.14722383223E+00  0.26869816720E+02  0.00000000000E+00 0. -1.
        -11    1    4    4    0    0 -0.26366909770E+02 -0.34008882301E+02 -0.17166946420E+02  0.46330573659E+02  0.00000000000E+00 0.  1.
         11    1    4    4    0    0  0.45997421262E+02 -0.26792883221E+01 -0.32795100268E+01  0.46191953137E+02  0.00000000000E+00 0. -1.
         21    1    1    2  503  501 -0.43679188523E+02 -0.22339116086E+02 -0.43385446590E+02  0.65492019310E+02  0.00000000000E+00 0.  1.
          3    1    1    2  501    0  0.10357370991E+02  0.30550264377E+02  0.21831415334E+03  0.22068453352E+03  0.00000000000E+00 0. -1.
<scales pt_clust_5="13000.00000" pt_clust_6="13000.00000" pt_clust_7="13000.00000" pt_clust_8="13000.00000" pt_clust_9="49.06024" pt_clust_10="13000.00000"></scales>
<clustering>
<clus scale="   49.060">  2  9  1 -1</clus>
<clus scale="   80.069">  7  8 -1 -1</clus>
<clus scale="   31.798">  7 10 -1 -1</clus>
<clus scale="   80.924">  5  6 -1 -1</clus>
<clus scale="   83.495">  1  5  2 -1</clus>
<clus scale="   49.060">  2  5  1 -1</clus>
</clustering>
</event>
<event>
10    4  0.7508634E-005  0.4100313E+03  0.7546771E-02  0.1069234E+00
         21   -1    0    0  501  502  0.00000000000E+00  0.00000000000E+00  0.31745193973E+03  0.31745193973E+03  0.00000000000E+00 0.  1.
         -3   -1    0    0    0  501 -0.00000000000E+00 -0.00000000000E+00 -0.79469775763E+03  0.79469775763E+03  0.00000000000E+00 0.  1.
         24    2    1    2    0    0 -0.57024534976E+01 -0.16594129114E+03 -0.46677684084E+03  0.50218870421E+03  0.82120919440E+02 0.  0.
         23    2    1    2    0    0 -0.12817791913E+02 -0.93574719876E+02 -0.16860810720E+03  0.21344446037E+03  0.90605297086E+02 0.  0.
        -11    1    3    3    0    0  0.25320116144E+02 -0.14448318653E+03 -0.35084129747E+03  0.38027110787E+03  0.00000000000E+00 0.  1.
         12    1    3    3    0    0 -0.31022569641E+02 -0.21458104618E+02 -0.11593554337E+03  0.12191759634E+03  0.00000000000E+00 0. -1.
        -13    1    4    4    0    0 -0.26047341003E+02 -0.37496205000E+02 -0.14351041184E+03  0.15059770141E+03  0.00000000000E+00 0. -1.
         13    1    4    4    0    0  0.13229549090E+02 -0.56078514876E+02 -0.25097695360E+02  0.62846758963E+02  0.00000000000E+00 0.  1.
         21    1    1    2  503  502  0.34619137601E+01  0.36789251912E+02  0.16902406976E+03  0.17301609769E+03  0.00000000000E+00 0.  1.
         -4    1    1    2    0  503  0.15058331650E+02  0.22272675911E+03 -0.10884939609E+02  0.22350043509E+03  0.00000000000E+00 0.  1.
<scales pt_clust_5="13000.00000" pt_clust_6="13000.00000" pt_clust_7="13000.00000" pt_clust_8="13000.00000" pt_clust_9="36.95178" pt_clust_10="13000.00000"></scales>
<clustering>
<clus scale="   36.952">  1  9  2 -1</clus>
<clus scale="   82.121">  5  6 -1 -1</clus>
<clus scale="   90.605">  7  8 -1 -1</clus>
<clus scale="  181.250">  2  5  1 -1</clus>
<clus scale="  177.290">  7 10 -1 -1</clus>
<clus scale="   36.952">  1  5  2 -1</clus>
</clustering>
</event>
<event>
10    4  0.7508634E-005  0.2507228E+03  0.7546771E-02  0.1130510E+00
         21   -1    0    0  503  502  0.00000000000E+00  0.00000000000E+00  0.25665647196E+03  0.25665647196E+03  0.00000000000E+00 0.  1.
          4   -1    0    0  502    0 -0.00000000000E+00 -0.00000000000E+00 -0.21199896786E+03  0.21199896786E+03  0.00000000000E+00 0. -1.
         24    2    1    2    0    0 -0.44195711097E+02  0.13215967504E+03 -0.53546977844E+02  0.16951212553E+03  0.80297205924E+02 0.  0.
         23    2    1    2    0    0 -0.67842518377E+02 -0.91195729780E+02  0.63873122351E+02  0.15590962029E+03  0.85491318341E+02 0.  0.
        -13    1    3    3    0    0 -0.49407712067E+01  0.11077386455E+03 -0.56999911101E+02  0.12467658222E+03  0.00000000000E+00 0.  1.
         14    1    3    3    0    0 -0.39254939891E+02  0.21385810490E+02  0.34529332570E+01  0.44835543313E+02  0.00000000000E+00 0. -1.
        -13    1    4    4    0    0 -0.49193592968E+02 -0.75371184140E+02  0.84845138406E+02  0.12369123857E+03  0.00000000000E+00 0.  1.
         13    1    4    4    0    0 -0.18648925409E+02 -0.15824545640E+02 -0.20972016054E+02  0.32218381725E+02  0.00000000000E+00 0. -1.
         21    1    1    2  503  501  0.19388306221E+02  0.87513591957E+01  0.31549985068E+02  0.38051205811E+02  0.00000000000E+00 0. -1.
          3    1    1    2  501    0  0.92649923253E+02 -0.49715304455E+02  0.27813745234E+01  0.10518248818E+03  0.00000000000E+00 0. -1.
<scales pt_clust_5="13000.00000" pt_clust_6="13000.00000" pt_clust_7="13000.00000" pt_clust_8="13000.00000" pt_clust_9="21.27188" pt_clust_10="13000.00000"></scales>
<clustering>
<clus scale="   21.272">  1  9  2 -1</clus>
<clus scale="   80.297">  5  6 -1 -1</clus>
<clus scale="   85.491">  7  8 -1 -1</clus>
<clus scale="  108.374">  7 10 -1 -1</clus>
<clus scale="  161.415">  2  5  1 -1</clus>
<clus scale="   21.272">  1  5  2 -1</clus>
</clustering>
</event>
<event>
10    4  0.7508634E-005  0.2539703E+03  0.7546771E-02  0.1122886E+00
         21   -1    0    0  503  502  0.00000000000E+00  0.00000000000E+00  0.27530519055E+03  0.27530519055E+03  0.00000000000E+00 0.  1.
          2   -1    0    0  502    0 -0.00000000000E+00 -0.00000000000E+00 -0.10550582551E+04  0.10550582551E+04  0.00000000000E+00 0. -1.
         24    2    1    2    0    0 -0.12394995446E+03  0.12056237381E+03 -0.85076321935E+03  0.87190470672E+03  0.80751996940E+02 0.  0.
         23    2    1    2    0    0 -0.15300289066E+02 -0.63328755682E+02 -0.58168378881E+02  0.12553374414E+03  0.90169454219E+02 0.  0.
        -13    1    3    3    0    0 -0.64500773718E+02  0.10826266755E+03 -0.48326195437E+03  0.49942293854E+03  0.00000000000E+00 0.  1.
         14    1    3    3    0    0 -0.59449180746E+02  0.12299706253E+02 -0.36750126498E+03  0.37248176818E+03  0.00000000000E+00 0. -1.
        -11    1    4    4    0    0 -0.19627647504E+02 -0.84843494575E+02 -0.35675115507E+02  0.94108325799E+02  0.00000000000E+00 0. -1.
         11    1    4    4    0    0  0.43273584374E+01  0.21514738892E+02 -0.22493263374E+02  0.31425418340E+02  0.00000000000E+00 0.  1.
         21    1    1    2  503  501  0.17145117814E+02 -0.24556125225E+02  0.19021468545E+03  0.19255800402E+03  0.00000000000E+00 0.  1.
          1    1    1    2  501    0  0.12210512572E+03 -0.32677492900E+02 -0.61036151742E+02  0.14036699073E+03  0.00000000000E+00 0. -1.
<scales pt_clust_5="13000.00000" pt_clust_6="13000.00000" pt_clust_7="13000.00000" pt_clust_8="13000.00000" pt_clust_9="29.94926" pt_clust_10="13000.00000"></scales>
<clustering>
<clus scale="   29.949">  1  9  2 -1</clus>
<clus scale="   80.752">  5  6 -1 -1</clus>
<clus scale="   90.169">  7  8 -1 -1</clus>
<clus scale="  137.534">  7 10 -1 -1</clus>
<clus scale="  187.491">  2  5  1 -1</clus>
<clus scale="   29.949">  1  5  2 -1</clus>
</clustering>
</event>
<event>
10    4  0.7508634E-005  0.2988706E+03  0.7546771E-02  0.1132630E+00
          2   -1    0    0  502    0 -0.00000000000E+00  0.00000000000E+00  0.12421988319E+04  0.12421988319E+04  0.00000000000E+00 0. -1.
         21   -1    0    0  503  502  0.00000000000E+00 -0.00000000000E+00 -0.41032123256E+02  0.41032123256E+02  0.00000000000E+00 0.  1.
         24    2    1    2    0    0 -0.41434046448E+02  0.21934067003E+02  0.29945315217E+03  0.31366212199E+03  0.80708443955E+02 0.  0.
         23    2    1    2    0    0 -0.93228328392E+02  0.40938208223E+02  0.24112069069E+03  0.27907524464E+03  0.96831537144E+02 0.  0.
        -13    1    3    3    0    0  0.17750978131E+02  0.26272401913E+02  0.13942764480E+03  0.14298742763E+03  0.00000000000E+00 0.  1.
         14    1    3    3    0    0 -0.59185024578E+02 -0.43383349095E+01  0.16002550737E+03  0.17067469436E+03  0.00000000000E+00 0. -1.
        -11    1    4    4    0    0 -0.41872994524E+02 -0.21058233018E+02  0.15160236964E+03  0.15868230944E+03  0.00000000000E+00 0. -1.
         11    1    4    4    0    0 -0.51355333869E+02  0.61996441240E+02  0.89518321050E+02  0.12039293520E+03  0.00000000000E+00 0.  1.
         21    1    1    2  503  501  0.11702385083E+02 -0.42014906795E+02  0.46058794901E+02  0.63431938306E+02  0.00000000000E+00 0.  1.
          1    1    1    2  501    0  0.12295998976E+03 -0.20857368431E+02  0.61453407091E+03  0.62706165024E+03  0.00000000000E+00 0. -1.
<scales pt_clust_5="13000.00000" pt_clust_6="13000.00000" pt_clust_7="13000.00000" pt_clust_8="13000.00000" pt_clust_9="43.61420" pt_clust_10="13000.00000"></scales>
<clustering>
<clus scale="   43.614">  2  9  1 -1</clus>
<clus scale="   80.708">  5  6 -1 -1</clus>
<clus scale="   90.475">  1  5  2 -1</clus>
<clus scale="   96.832">  7  8 -1 -1</clus>
<clus scale="   99.584">  7 10 -1 -1</clus>
<clus scale="   43.614">  2  5  1 -1</clus>
</clustering>
</event>
<event>
10    4  0.7508634E-005  0.3717577E+03  0.7546771E-02  0.1106661E+00
         21   -1    0    0  501  502  0.00000000000E+00  0.00000000000E+00  0.20584010359E+03  0.20584010359E+03  0.00000000000E+00 0.  1.
          2   -1    0    0  503    0 -0.00000000000E+00 -0.00000000000E+00 -0.54248467499E+03  0.54248467499E+03  0.00000000000E+00 0. -1.
         24    2    1    2    0    0  0.38782213629E+02  0.24373970446E+02 -0.25990856454E+03  0.27541307935E+03  0.78751202080E+02 0.  0.
         23    2    1    2    0    0 -0.14996655615E+03 -0.83726231015E+02 -0.40577550998E+02  0.19915895882E+03  0.92291405387E+02 0.  0.
        -13    1    3    3    0    0 -0.23693889282E-01  0.42165326040E+02 -0.17937665927E+03  0.18426584375E+03  0.00000000000E+00 0.  1.
         14    1    3    3    0    0  0.38805907518E+02 -0.17791355594E+02 -0.80531905266E+02  0.91147235602E+02  0.00000000000E+00 0. -1.
        -11    1    4    4    0    0 -0.30818966535E+02 -0.11510595148E+00 -0.43811542087E+02  0.53565596867E+02  0.00000000000E+00 0.  1.
         11    1    4    4    0    0 -0.11914758961E+03 -0.83611125064E+02  0.32339910891E+01  0.14559336195E+03  0.00000000000E+00 0. -1.
         21    1    1    2  503  502 -0.21302640087E+01 -0.79490841541E+02  0.26627075348E+02  0.83859007001E+02  0.00000000000E+00 0.  1.
          1    1    1    2  501    0  0.11331460653E+03  0.13884310211E+03 -0.62785531211E+02  0.18989373340E+03  0.00000000000E+00 0. -1.
<scales pt_clust_5="13000.00000" pt_clust_6="13000.00000" pt_clust_7="13000.00000" pt_clust_8="13000.00000" pt_clust_9="79.51938" pt_clust_10="13000.00000"></scales>
<clustering>
<clus scale="   78.751">  5  6 -1 -1</clus>
<clus scale="   79.519">  1  9  2 -1</clus>
<clus scale="   90.048">  2  5  1 -1</clus>
<clus scale="   92.291">  7  8 -1 -1</clus>
<clus scale="  171.174">  7 10 -1 -1</clus>
<clus scale="   79.519">  1  5  2 -1</clus>
</clustering>
</event>
<event>
10    4  0.7508634E-005  0.2851230E+03  0.7546771E-02  0.1134595E+00
          2   -1    0    0  503    0 -0.00000000000E+00  0.00000000000E+00  0.15948548995E+04  0.15948548995E+04  0.00000000000E+00 0. -1.
         21   -1    0    0  501  502  0.00000000000E+00 -0.00000000000E+00 -0.47991335675E+02  0.47991335675E+02  0.00000000000E+00 0. -1.
         24    2    1    2    0    0 -0.52034008072E+02  0.32833652924E+02  0.34506903643E+03  0.35816638096E+03  0.73654122718E+02 0.  0.
         23    2    1    2    0    0 -0.63598871100E+02  0.53615828068E+02  0.54174046283E+03  0.55586186100E+03  0.92629401487E+02 0.  0.
        -11    1    3    3    0    0 -0.17793748489E+02 -0.23845333520E+02  0.10661187822E+03  0.11068563589E+03  0.00000000000E+00 0.  1.
         12    1    3    3    0    0 -0.34240259583E+02  0.56678986444E+02  0.23845715821E+03  0.24748074507E+03  0.00000000000E+00 0. -1.
        -11    1    4    4    0    0 -0.76672070081E+02  0.13636348715E+02  0.41731381858E+03  0.42451782002E+03  0.00000000000E+00 0.  1.
         11    1    4    4    0    0  0.13073198981E+02  0.39979479353E+02  0.12442664425E+03  0.13134404097E+03  0.00000000000E+00 0. -1.
         21    1    1    2  503  502 -0.44658282366E+01  0.25704851475E+02 -0.17635152118E+02  0.31490976508E+02  0.00000000000E+00 0. -1.
          1    1    1    2  501    0  0.12009870741E+03 -0.11215433247E+03  0.67768921672E+03  0.69732701673E+03  0.00000000000E+00 0. -1.
<scales pt_clust_5="13000.00000" pt_clust_6="13000.00000" pt_clust_7="13000.00000" pt_clust_8="13000.00000" pt_clust_9="26.08990" pt_clust_10="13000.00000"></scales>
<clustering>
<clus scale="   26.090">  2  9  1 -1</clus>
<clus scale="   73.654">  5  6 -1 -1</clus>
<clus scale="   92.629">  7  8 -1 -1</clus>
<clus scale="   99.325">  1  5  2 -1</clus>
<clus scale="  121.727">  7 10 -1 -1</clus>
<clus scale="   26.090">  2  5  1 -1</clus>
</clustering>
</event>
<event>
10    4  0.7508634E-005  0.3233960E+03  0.7546771E-02  0.1118359E+00
          2   -1    0    0  503    0 -0.00000000000E+00  0.00000000000E+00  0.26363178876E+03  0.26363178876E+03  0.00000000000E+00 0. -1.
         21   -1    0    0  501  502  0.00000000000E+00 -0.00000000000E+00 -0.38311729202E+03  0.38311729202E+03  0.00000000000E+00 0. -1.
         24    2    1    2    0    0  0.48746953852E+02 -0.42852149784E+02  0.15282018145E+02  0.10282258515E+03  0.78271142114E+02 0.  0.
         23    2    1    2    0    0  0.40839848851E+02 -0.37399663005E+02 -0.31294414319E+02  0.10229157177E+03  0.80109907252E+02 0.  0.
        -13    1    3    3    0    0  0.10483337201E+02 -0.53435606940E+02  0.27873300405E+02  0.61173403725E+02  0.00000000000E+00 0.  1.
         14    1    3    3    0    0  0.38263616651E+02  0.10583457156E+02 -0.12591282261E+02  0.41649181427E+02  0.00000000000E+00 0. -1.
        -11    1    4    4    0    0  0.54142161319E+02  0.21127595062E+01 -0.87194390584E+01  0.54880470138E+02  0.00000000000E+00 0.  1.
         11    1    4    4    0    0 -0.13302312468E+02 -0.39512422511E+02 -0.22574975261E+02  0.47411101629E+02  0.00000000000E+00 0. -1.
         21    1    1    2  503  502 -0.13442802555E+03 -0.14613174459E+03 -0.47162028837E+02  0.20408242893E+03  0.00000000000E+00 0. -1.
          1    1    1    2  501    0  0.44841222852E+02  0.22638355738E+03 -0.56311078250E+02  0.23755249494E+03  0.00000000000E+00 0. -1.
<scales pt_clust_5="13000.00000" pt_clust_6="13000.00000" pt_clust_7="13000.00000" pt_clust_8="13000.00000" pt_clust_9="199.55427" pt_clust_10="13000.00000"></scales>
<clustering>
<clus scale="   78.271">  5  6 -1 -1</clus>
<clus scale="   80.110">  7  8 -1 -1</clus>
<clus scale="  101.681">  1  5  2 -1</clus>
<clus scale="  199.554">  2  9  1 -1</clus>
<clus scale="  109.310">  7 10 -1 -1</clus>
<clus scale="  199.554">  2  5  1 -1</clus>
</clustering>
</event>
<event>
10    4  0.7508634E-005  0.2721269E+03  0.7546771E-02  0.1145660E+00
         21   -1    0    0  501  502  0.00000000000E+00  0.00000000000E+00  0.13481636267E+03  0.13481636267E+03  0.00000000000E+00 0.  1.
          2   -1    0    0  503    0 -0.00000000000E+00 -0.00000000000E+00 -0.65958846386E+03  0.65958846386E+03  0.00000000000E+00 0. -1.
         24    2    1    2    0    0 -0.15230875620E+02  0.31931856329E+02 -0.41619884519E+03  0.42544994976E+03  0.80836612967E+02 0.  0.
         23    2    1    2    0    0 -0.54450913561E+02 -0.12168602223E+02  0.39434027472E+02  0.11408821772E+03  0.91367948609E+02 0.  0.
        -13    1    3    3    0    0  0.33147499703E+02  0.18753995551E+02 -0.17601526054E+03  0.18008842559E+03  0.00000000000E+00 0.  1.
         14    1    3    3    0    0 -0.48378375323E+02  0.13177860778E+02 -0.24018358464E+03  0.24536152418E+03  0.00000000000E+00 0. -1.
        -11    1    4    4    0    0 -0.53254754456E+02 -0.40034302443E+02  0.10398455465E+01  0.66632541022E+02  0.00000000000E+00 0.  1.
         11    1    4    4    0    0 -0.11961591043E+01  0.27865700221E+02  0.38394181925E+02  0.47455676701E+02  0.00000000000E+00 0. -1.
         21    1    1    2  503  502  0.28790568900E+02 -0.24873733930E+02  0.44183413304E+02  0.58307576767E+02  0.00000000000E+00 0.  1.
          1    1    1    2  501    0  0.40891220281E+02  0.51104798236E+01 -0.19219069678E+03  0.19655908228E+03  0.00000000000E+00 0. -1.
<scales pt_clust_5="13000.00000" pt_clust_6="13000.00000" pt_clust_7="13000.00000" pt_clust_8="13000.00000" pt_clust_9="38.04733" pt_clust_10="13000.00000"></scales>
<clustering>
<clus scale="   38.047">  1  9  2 -1</clus>
<clus scale="   80.837">  5  6 -1 -1</clus>
<clus scale="   87.488">  2  5  1 -1</clus>
<clus scale="   91.368">  7  8 -1 -1</clus>
<clus scale="   42.419">  7 10 -1 -1</clus>
<clus scale="   38.047">  1  5  2 -1</clus>
</clustering>
</event>
<event>
10    4  0.7508634E-005  0.2098094E+03  0.7546771E-02  0.1154530E+00
          2   -1    0    0  502    0 -0.00000000000E+00  0.00000000000E+00  0.84901852453E+03  0.84901852453E+03  0.00000000000E+00 0. -1.
         21   -1    0    0  503  502  0.00000000000E+00 -0.00000000000E+00 -0.14919785796E+03  0.14919785796E+03  0.00000000000E+00 0. -1.
         24    2    1    2    0    0 -0.13657026096E+03  0.20301809903E+03  0.77735182442E+02  0.27081961154E+03  0.86213216450E+02 0.  0.
         23    2    1    2    0    0 -0.31704429642E+02 -0.94020997756E+02  0.40946432268E+03  0.43108440646E+03  0.91255767286E+02 0.  0.
        -13    1    3    3    0    0 -0.19118759455E+01  0.63462524039E+02  0.49601781345E+01  0.63684775214E+02  0.00000000000E+00 0.  1.
         14    1    3    3    0    0 -0.13465838502E+03  0.13955557500E+03  0.72775004307E+02  0.20713483633E+03  0.00000000000E+00 0. -1.
        -11    1    4    4    0    0 -0.28812611247E+01 -0.24931631238E+02  0.14287451345E+02  0.28879390018E+02  0.00000000000E+00 0.  1.
         11    1    4    4    0    0 -0.28823168518E+02 -0.69089366518E+02  0.39517687134E+03  0.40220501644E+03  0.00000000000E+00 0. -1.
         21    1    1    2  503  501  0.11657763953E+03 -0.97148915149E+02  0.14063074271E+03  0.20689432942E+03  0.00000000000E+00 0. -1.
          1    1    1    2  501    0  0.51697051080E+02 -0.11848186130E+02  0.71990418733E+02  0.89418035062E+02  0.00000000000E+00 0. -1.
<scales pt_clust_5="13000.00000" pt_clust_6="13000.00000" pt_clust_7="13000.00000" pt_clust_8="13000.00000" pt_clust_9="151.75064" pt_clust_10="13000.00000"></scales>
<clustering>
<clus scale="   86.213">  5  6 -1 -1</clus>
<clus scale="   91.256">  7  8 -1 -1</clus>
<clus scale="   53.037">  7 10 -1 -1</clus>
<clus scale="  151.751">  2  9  1 -1</clus>
<clus scale="  154.715">  1  5  2 -1</clus>
<clus scale="  151.751">  2  5  1 -1</clus>
</clustering>
</event>
<event>
10    4  0.7508634E-005  0.5054979E+03  0.7546771E-02  0.1068205E+00
          2   -1    0    0  503    0 -0.00000000000E+00  0.00000000000E+00  0.60365954153E+03  0.60365954153E+03  0.00000000000E+00 0. -1.
         21   -1    0    0  501  502  0.00000000000E+00 -0.00000000000E+00 -0.21165942314E+03  0.21165942314E+03  0.00000000000E+00 0.  1.
         24    2    1    2    0    0  0.58202739277E+01  0.53675221266E+02  0.61085989181E+02  0.11457898419E+03  0.80510499801E+02 0.  0.
         23    2    1    2    0    0  0.20929456935E+03 -0.16836857605E+03 -0.56319431790E+01  0.28362022684E+03  0.90865395645E+02 0.  0.
        -13    1    3    3    0    0  0.15582226712E+02  0.72662193101E+02  0.39259374941E+02  0.84047002423E+02  0.00000000000E+00 0.  1.
         14    1    3    3    0    0 -0.97619527844E+01 -0.18986971836E+02  0.21826614241E+02  0.30531981771E+02  0.00000000000E+00 0. -1.
        -13    1    4    4    0    0  0.54032167398E+02 -0.78976557473E+02 -0.35356122854E+02  0.10201385772E+03  0.00000000000E+00 0. -1.
         13    1    4    4    0    0  0.15526240196E+03 -0.89392018579E+02  0.29724179675E+02  0.18160636912E+03  0.00000000000E+00 0.  1.
         21    1    1    2  503  502 -0.63920937049E+02  0.35894601732E+02  0.13048860397E+03  0.14967158847E+03  0.00000000000E+00 0. -1.
          1    1    1    2  501    0 -0.15119390623E+03  0.78798753054E+02  0.20605746842E+03  0.26744816517E+03  0.00000000000E+00 0. -1.
<scales pt_clust_5="13000.00000" pt_clust_6="13000.00000" pt_clust_7="13000.00000" pt_clust_8="13000.00000" pt_clust_9="73.30971" pt_clust_10="13000.00000"></scales>
<clustering>
<clus scale="   73.310">  2  9  1 -1</clus>
<clus scale="   80.510">  5  6 -1 -1</clus>
<clus scale="   90.865">  7  8 -1 -1</clus>
<clus scale="   99.512">  1  5  2 -1</clus>
<clus scale="  201.693">  7 10 -1 -1</clus>
<clus scale="   73.310">  2  5  1 -1</clus>
</clustering>
</event>
<event>
10    4  0.7508634E-005  0.3649193E+03  0.7546771E-02  0.1088298E+00
         21   -1    0    0  503  502  0.00000000000E+00  0.00000000000E+00  0.22677732035E+03  0.22677732035E+03  0.00000000000E+00 0. -1.
          2   -1    0    0  502    0 -0.00000000000E+00 -0.00000000000E+00 -0.38793936140E+03  0.38793936140E+03  0.00000000000E+00 0. -1.
         24    2    1    2    0    0 -0.90850567566E+02  0.81031032837E+02  0.61924264791E+02  0.15849677629E+03  0.80416165137E+02 0.  0.
         23    2    1    2    0    0  0.18894132970E+03 -0.14394547164E+03 -0.14067269367E+03  0.29743248573E+03  0.11071653874E+03 0.  0.
        -11    1    3    3    0    0 -0.48323612218E+02  0.71042254670E+02  0.40880021020E+01  0.86016772827E+02  0.00000000000E+00 0.  1.
         12    1    3    3    0    0 -0.42526955349E+02  0.99887781666E+01  0.57836262689E+02  0.72480003465E+02  0.00000000000E+00 0. -1.
        -11    1    4    4    0    0  0.14132110009E+03 -0.40074924476E+02 -0.66817905007E+02  0.16137622294E+03  0.00000000000E+00 0. -1.
         11    1    4    4    0    0  0.47620229612E+02 -0.10387054716E+03 -0.73854788660E+02  0.13605626279E+03  0.00000000000E+00 0.  1.
         21    1    1    2  503  501 -0.71335238995E+00  0.25051143913E+02  0.10198313302E+01  0.25082040167E+02  0.00000000000E+00 0.  1.
          1    1    1    2  501    0 -0.97377409744E+02  0.37863294889E+02 -0.83433443503E+02  0.13370537956E+03  0.00000000000E+00 0. -1.
<scales pt_clust_5="13000.00000" pt_clust_6="13000.00000" pt_clust_7="13000.00000" pt_clust_8="13000.00000" pt_clust_9="25.06130" pt_clust_10="13000.00000"></scales>
<clustering>
<clus scale="   25.061">  1  9  2 -1</clus>
<clus scale="   80.416">  5  6 -1 -1</clus>
<clus scale="  110.717">  7  8 -1 -1</clus>
<clus scale="  105.660">  7 10 -1 -1</clus>
<clus scale="  153.668">  2  5  1 -1</clus>
<clus scale="   25.061">  1  5  2 -1</clus>
</clustering>
</event>
<event>
10    4  0.7508634E-005  0.1798640E+03  0.7546771E-02  0.1197456E+00
          2   -1    0    0  503    0 -0.00000000000E+00  0.00000000000E+00  0.82946260789E+03  0.82946260789E+03  0.00000000000E+00 0. -1.
         21   -1    0    0  501  502  0.00000000000E+00 -0.00000000000E+00 -0.36779987115E+03  0.36779987115E+03  0.00000000000E+00 0. -1.
         24    2    1    2    0    0  0.70139241275E+01  0.42879871221E+02  0.75221316483E+03  0.75791865096E+03  0.82025347551E+02 0.  0.
         23    2    1    2    0    0 -0.41969499661E+02 -0.27010806279E+02 -0.16067031155E+02  0.10502567664E+03  0.91001212657E+02 0.  0.
        -13    1    3    3    0    0  0.10485363668E+02  0.56796611270E+02  0.30177928624E+03  0.30725646536E+03  0.00000000000E+00 0.  1.
         14    1    3    3    0    0 -0.34714395410E+01 -0.13916740049E+02  0.45043387859E+03  0.45066218560E+03  0.00000000000E+00 0. -1.
        -11    1    4    4    0    0 -0.36814368794E+02 -0.58952671756E+02 -0.14411426562E+01  0.69518286436E+02  0.00000000000E+00 0. -1.
         11    1    4    4    0    0 -0.51551308675E+01  0.31941865477E+02 -0.14625888499E+02  0.35507390200E+02  0.00000000000E+00 0.  1.
         21    1    1    2  503  502 -0.41132708461E+02  0.13926414983E+02 -0.24283799295E+03  0.24669036373E+03  0.00000000000E+00 0. -1.
          1    1    1    2  501    0  0.76088283995E+02 -0.29795479924E+02 -0.31645403990E+02  0.87627787709E+02  0.00000000000E+00 0. -1.
<scales pt_clust_5="13000.00000" pt_clust_6="13000.00000" pt_clust_7="13000.00000" pt_clust_8="13000.00000" pt_clust_9="43.42631" pt_clust_10="13000.00000"></scales>
<clustering>
<clus scale="   43.426">  2  9  1 -1</clus>
<clus scale="   82.025">  5  6 -1 -1</clus>
<clus scale="   91.001">  7  8 -1 -1</clus>
<clus scale="   60.696">  7 10 -1 -1</clus>
<clus scale="   92.905">  1  5  2 -1</clus>
<clus scale="   43.426">  2  5  1 -1</clus>
</clustering>
</event>
<event>
10    4  0.7508634E-005  0.6676501E+03  0.7546771E-02  0.1044486E+00
         21   -1    0    0  503  502  0.00000000000E+00  0.00000000000E+00  0.37912713559E+03  0.37912713559E+03  0.00000000000E+00 0. -1.
          2   -1    0    0  502    0 -0.00000000000E+00 -0.00000000000E+00 -0.75190351496E+03  0.75190351496E+03  0.00000000000E+00 0. -1.
         24    2    1    2    0    0 -0.19505951123E+02 -0.24463358022E+02 -0.75671636257E+02  0.11326886486E+03  0.78260470208E+02 0.  0.
         23    2    1    2    0    0 -0.22494568519E+02  0.12714621799E+03 -0.61930941944E+03  0.64123977278E+03  0.10474790132E+03 0.  0.
        -13    1    3    3    0    0  0.12876487108E+02 -0.20284642937E+02  0.64644957198E+01  0.24880923702E+02  0.00000000000E+00 0.  1.
         14    1    3    3    0    0 -0.32382438232E+02 -0.41787150855E+01 -0.82136131977E+02  0.88387941156E+02  0.00000000000E+00 0. -1.
        -13    1    4    4    0    0 -0.48172928004E+02  0.13110512628E+03 -0.54062319602E+03  0.55837498619E+03  0.00000000000E+00 0. -1.
         13    1    4    4    0    0  0.25678359484E+02 -0.39589082961E+01 -0.78686223421E+02  0.82864786592E+02  0.00000000000E+00 0.  1.
         21    1    1    2  503  501 -0.54365815077E+02 -0.77177621839E+02  0.17299741145E+03  0.19707899820E+03  0.00000000000E+00 0. -1.
          1    1    1    2  501    0  0.96366334720E+02 -0.25505238125E+02  0.14920726487E+03  0.17944301471E+03  0.00000000000E+00 0. -1.
<scales pt_clust_5="13000.00000" pt_clust_6="13000.00000" pt_clust_7="13000.00000" pt_clust_8="13000.00000" pt_clust_9="94.97556" pt_clust_10="13000.00000"></scales>
<clustering>
<clus scale="   78.260">  5  6 -1 -1</clus>
<clus scale="   84.283">  2  5  1 -1</clus>
<clus scale="   94.976">  1  9  2 -1</clus>
<clus scale="  104.748">  7  8 -1 -1</clus>
<clus scale="  104.781">  7 10 -1 -1</clus>
<clus scale="   94.976">  1  5  2 -1</clus>
</clustering>
</event>
<event>
10    4  0.7508634E-005  0.3475548E+03  0.7546771E-02  0.1094681E+00
          2   -1    0    0  502    0 -0.00000000000E+00  0.00000000000E+00  0.35688850921E+03  0.35688850921E+03  0.00000000000E+00 0. -1.
         21   -1    0    0  503  502  0.00000000000E+00 -0.00000000000E+00 -0.24993319427E+03  0.24993319427E+03  0.00000000000E+00 0. -1.
         24    2    1    2    0    0  0.11886536102E+03 -0.57432367199E+02 -0.47412861093E+02  0.16136894485E+03  0.79777854767E+02 0.  0.
         23    2    1    2    0    0  0.76047433103E+02 -0.52704046883E+02  0.51660921697E+02  0.14013513052E+03  0.91695557888E+02 0.  0.
        -13    1    3    3    0    0  0.52215163406E+02 -0.32879259653E+01  0.15899297340E+02  0.54681088162E+02  0.00000000000E+00 0.  1.
         14    1    3    3    0    0  0.66650197614E+02 -0.54144441234E+02 -0.63312158432E+02  0.10668785668E+03  0.00000000000E+00 0. -1.
        -11    1    4    4    0    0  0.13738010520E+02  0.26064459137E+02  0.73839801902E+01  0.30374530886E+02  0.00000000000E+00 0.  1.
         11    1    4    4    0    0  0.62309422583E+02 -0.78768506020E+02  0.44276941506E+02  0.10976059964E+03  0.00000000000E+00 0. -1.
         21    1    1    2  503  501  0.20401981696E+00  0.23303511636E+02 -0.41519468251E+02  0.47612619361E+02  0.00000000000E+00 0. -1.
          1    1    1    2  501    0 -0.19511681394E+03  0.86832902446E+02  0.14422672259E+03  0.25770500876E+03  0.00000000000E+00 0. -1.
<scales pt_clust_5="13000.00000" pt_clust_6="13000.00000" pt_clust_7="13000.00000" pt_clust_8="13000.00000" pt_clust_9="23.30440" pt_clust_10="13000.00000"></scales>
<clustering>
<clus scale="   23.304">  2  9  1 -1</clus>
<clus scale="   79.778">  5  6 -1 -1</clus>
<clus scale="   91.696">  7  8 -1 -1</clus>
<clus scale="  150.321">  1  5  2 -1</clus>
<clus scale="  129.240">  7 10 -1 -1</clus>
<clus scale="   23.304">  2  5  1 -1</clus>
</clustering>
</event>
<event>
10    4  0.7508634E-005  0.2521897E+03  0.7546771E-02  0.1145086E+00
         -3   -1    0    0    0  501 -0.00000000000E+00  0.00000000000E+00  0.56461463493E+03  0.56461463493E+03  0.00000000000E+00 0.  1.
         21   -1    0    0  501  502  0.00000000000E+00 -0.00000000000E+00 -0.47581421421E+03  0.47581421421E+03  0.00000000000E+00 0. -1.
         24    2    1    2    0    0 -0.66271992426E+02  0.97994171384E+02  0.91003286073E+02  0.16544483368E+03  0.71383193460E+02 0.  0.
         23    2    1    2    0    0  0.55524572023E+02 -0.97800358497E+02  0.29279909973E+03  0.32687831428E+03  0.92033859675E+02 0.  0.
        -13    1    3    3    0    0 -0.81735241889E+02  0.80893909668E+02  0.78277405849E+02  0.13911084305E+03  0.00000000000E+00 0.  1.
         14    1    3    3    0    0  0.15463249463E+02  0.17100261716E+02  0.12725880225E+02  0.26333990624E+02  0.00000000000E+00 0. -1.
        -13    1    4    4    0    0  0.18041268318E+02 -0.83348958373E+02  0.10720923972E+03  0.13699035479E+03  0.00000000000E+00 0.  1.
         13    1    4    4    0    0  0.37483303706E+02 -0.14451400123E+02  0.18558986001E+03  0.18988795949E+03  0.00000000000E+00 0. -1.
         21    1    1    2  503  502 -0.60278305117E+01 -0.93747539077E+02 -0.39742498780E+03  0.40837673385E+03  0.00000000000E+00 0. -1.
         -4    1    1    2    0  503  0.16775250914E+02  0.93553726190E+02  0.10242302272E+03  0.13972896733E+03  0.00000000000E+00 0.  1.
<scales pt_clust_5="13000.00000" pt_clust_6="13000.00000" pt_clust_7="13000.00000" pt_clust_8="13000.00000" pt_clust_9="93.94113" pt_clust_10="13000.00000"></scales>
<clustering>
<clus scale="   71.383">  5  6 -1 -1</clus>
<clus scale="   92.034">  7  8 -1 -1</clus>
<clus scale="   93.941">  2  9  1 -1</clus>
<clus scale="   71.219">  7 10 -1 -1</clus>
<clus scale="  111.439">  1  5  2 -1</clus>
<clus scale="   93.941">  2  5  1 -1</clus>
</clustering>
</event>
<event>
10    4  0.7508634E-005  0.1984092E+03  0.7546771E-02  0.1173099E+00
         21   -1    0    0  501  502  0.00000000000E+00  0.00000000000E+00  0.23964808574E+03  0.23964808574E+03  0.00000000000E+00 0.  1.
          2   -1    0    0  503    0 -0.00000000000E+00 -0.00000000000E+00 -0.48834718300E+03  0.48834718300E+03  0.00000000000E+00 0. -1.
         24    2    1    2    0    0 -0.13242416330E+02  0.82064495635E+02 -0.28823552744E+03  0.31186439359E+03  0.85262756689E+02 0.  0.
         23    2    1    2    0    0 -0.19169767272E+02  0.81351432887E+02 -0.92134446012E+02  0.15411245922E+03  0.90974492766E+02 0.  0.
        -13    1    3    3    0    0  0.16607875318E+01  0.82707563211E+02 -0.28478075520E+03  0.29655248736E+03  0.00000000000E+00 0.  1.
         14    1    3    3    0    0 -0.14903203861E+02 -0.64306757576E+00 -0.34547722404E+01  0.15311906233E+02  0.00000000000E+00 0. -1.
        -13    1    4    4    0    0  0.15770715496E+02  0.23487206389E+02  0.11370773525E+02  0.30490307013E+02  0.00000000000E+00 0.  1.
         13    1    4    4    0    0 -0.34940482768E+02  0.57864226498E+02 -0.10350521954E+03  0.12362215220E+03  0.00000000000E+00 0. -1.
         21    1    1    2  503  502 -0.51143954813E+00 -0.14733323277E+03  0.15865332927E+03  0.21651379157E+03  0.00000000000E+00 0.  1.
          1    1    1    2  501    0  0.32923623150E+02 -0.16082695749E+02 -0.26982453089E+02  0.45504624365E+02  0.00000000000E+00 0. -1.
<scales pt_clust_5="13000.00000" pt_clust_6="13000.00000" pt_clust_7="13000.00000" pt_clust_8="13000.00000" pt_clust_9="134.74879" pt_clust_10="13000.00000"></scales>
<clustering>
<clus scale="   85.263">  5  6 -1 -1</clus>
<clus scale="   90.974">  7  8 -1 -1</clus>
<clus scale="   36.642">  7 10 -1 -1</clus>
<clus scale="  119.078">  2  5  1 -1</clus>
<clus scale="  134.749">  1  9  2 -1</clus>
<clus scale="  134.749">  1  5  2 -1</clus>
</clustering>
</event>
<event>
10    4  0.7508634E-005  0.5234111E+03  0.7546771E-02  0.1023383E+00
          2   -1    0    0  502    0 -0.00000000000E+00  0.00000000000E+00  0.81536196323E+03  0.81536196323E+03  0.00000000000E+00 0. -1.
         21   -1    0    0  503  502  0.00000000000E+00 -0.00000000000E+00 -0.48132351311E+03  0.48132351311E+03  0.00000000000E+00 0.  1.
         24    2    1    2    0    0 -0.75554181408E+02  0.28018402692E+03 -0.16586796498E+03  0.34377020608E+03  0.80338343981E+02 0.  0.
         23    2    1    2    0    0  0.12756340762E+03  0.20434524802E+02  0.11473428879E+03  0.19257939121E+03  0.85046294015E+02 0.  0.
        -11    1    3    3    0    0 -0.80888515190E+02  0.16299688478E+03 -0.82128273165E+02  0.19963964934E+03  0.00000000000E+00 0.  1.
         12    1    3    3    0    0  0.53343337817E+01  0.11718714214E+03 -0.83739691819E+02  0.14413055674E+03  0.00000000000E+00 0. -1.
        -11    1    4    4    0    0  0.10443067523E+03  0.44296851653E+01  0.38616038303E+02  0.11142973775E+03  0.00000000000E+00 0.  1.
         11    1    4    4    0    0  0.23132732391E+02  0.16004839636E+02  0.76118250487E+02  0.81149653461E+02  0.00000000000E+00 0. -1.
         21    1    1    2  503  501  0.61568302750E+02  0.46923279963E+02 -0.11630997592E+03  0.13971564194E+03  0.00000000000E+00 0.  1.
          1    1    1    2  501    0 -0.11357752897E+03 -0.34754183168E+03  0.50148210222E+03  0.62062023711E+03  0.00000000000E+00 0. -1.
<scales pt_clust_5="13000.00000" pt_clust_6="13000.00000" pt_clust_7="13000.00000" pt_clust_8="13000.00000" pt_clust_9="77.41092" pt_clust_10="13000.00000"></scales>
<clustering>
<clus scale="   77.411">  2  9  1 -1</clus>
<clus scale="   80.338">  5  6 -1 -1</clus>
<clus scale="   85.046">  7  8 -1 -1</clus>
<clus scale="  325.634">  1  5  2 -1</clus>
<clus scale="  162.463">  7 10 -1 -1</clus>
<clus scale="   77.411">  2  5  1 -1</clus>
</clustering>
</event>
<event>
10    4  0.7508634E-005  0.5997487E+03  0.7546771E-02  0.1037779E+00
         21   -1    0    0  501  502  0.00000000000E+00  0.00000000000E+00  0.30330127014E+03  0.30330127014E+03  0.00000000000E+00 0.  1.
          2   -1    0    0  503    0 -0.00000000000E+00 -0.00000000000E+00 -0.56686594958E+03  0.56686594958E+03  0.00000000000E+00 0. -1.
         24    2    1    2    0    0 -0.50024267896E+02 -0.91494121654E+02  0.33940253756E+02  0.13628850223E+03  0.80925974444E+02 0.  0.
         23    2    1    2    0    0  0.22285567768E+03  0.93302249340E+01  0.11466451476E+03  0.26700754370E+03  0.91615344118E+02 0.  0.
        -11    1    3    3    0    0 -0.43744078978E+02 -0.29603941129E+02  0.49256370610E+02  0.72222765259E+02  0.00000000000E+00 0.  1.
         12    1    3    3    0    0 -0.62801889177E+01 -0.61890180526E+02 -0.15316116854E+02  0.64065736972E+02  0.00000000000E+00 0. -1.
        -11    1    4    4    0    0  0.13056914798E+03  0.12321605294E+02  0.11536655238E+03  0.17466987654E+03  0.00000000000E+00 0.  1.
         11    1    4    4    0    0  0.92286529697E+02 -0.29913803603E+01 -0.70203762664E+00  0.92337667161E+02  0.00000000000E+00 0. -1.
         21    1    1    2  503  502 -0.57762327039E+02 -0.10189066702E+02 -0.54922028128E+02  0.80353796916E+02  0.00000000000E+00 0.  1.
          1    1    1    2  501    0 -0.11506908275E+03  0.92352963422E+02 -0.35724741982E+03  0.38651737687E+03  0.00000000000E+00 0. -1.
<scales pt_clust_5="13000.00000" pt_clust_6="13000.00000" pt_clust_7="13000.00000" pt_clust_8="13000.00000" pt_clust_9="58.65413" pt_clust_10="13000.00000"></scales>
<clustering>
<clus scale="   58.654">  1  9  2 -1</clus>
<clus scale="   80.926">  5  6 -1 -1</clus>
<clus scale="   91.615">  7  8 -1 -1</clus>
<clus scale="  141.268">  2  5  1 -1</clus>
<clus scale="  172.044">  7 10 -1 -1</clus>
<clus scale="   58.654">  1  5  2 -1</clus>
</clustering>
</event>
<event>
10    4  0.7508634E-005  0.2859697E+03  0.7546771E-02  0.1105939E+00
          2   -1    0    0  502    0 -0.00000000000E+00  0.00000000000E+00  0.83896951536E+03  0.83896951536E+03  0.00000000000E+00 0. -1.
         21   -1    0    0  503  502  0.00000000000E+00 -0.00000000000E+00 -0.12315291797E+03  0.12315291797E+03  0.00000000000E+00 0. -1.
         24    2    1    2    0    0  0.57914915919E+02 -0.17911300602E+03  0.14055144274E+03  0.24866950481E+03  0.81524279538E+02 0.  0.
         23    2    1    2    0    0  0.79853468898E+02  0.17129267394E+03  0.35069365202E+03  0.40870605485E+03  0.91306325451E+02 0.  0.
        -13    1    3    3    0    0  0.44507286829E+02 -0.11494263616E+03  0.13511245721E+03  0.18288817425E+03  0.00000000000E+00 0.  1.
         14    1    3    3    0    0  0.13407629090E+02 -0.64170369864E+02  0.54389855273E+01  0.65781330557E+02  0.00000000000E+00 0. -1.
        -13    1    4    4    0    0  0.19835905422E+02  0.59061287963E+02  0.42921058245E+02  0.75656566936E+02  0.00000000000E+00 0.  1.
         13    1    4    4    0    0  0.60017563476E+02  0.11223138598E+03  0.30777259377E+03  0.33304948791E+03  0.00000000000E+00 0. -1.
         21    1    1    2  503  501 -0.71440636409E+02 -0.75866187812E+01  0.18688788694E+01  0.71866640545E+02  0.00000000000E+00 0. -1.
          1    1    1    2  501    0 -0.66327748407E+02  0.15406950864E+02  0.22270262378E+03  0.23288023313E+03  0.00000000000E+00 0. -1.
<scales pt_clust_5="13000.00000" pt_clust_6="13000.00000" pt_clust_7="13000.00000" pt_clust_8="13000.00000" pt_clust_9="71.84234" pt_clust_10="13000.00000"></scales>
<clustering>
<clus scale="   71.842">  2  9  1 -1</clus>
<clus scale="   81.524">  5  6 -1 -1</clus>
<clus scale="   91.306">  7  8 -1 -1</clus>
<clus scale="   72.024">  7 10 -1 -1</clus>
<clus scale="  201.531">  1  5  2 -1</clus>
<clus scale="   71.842">  2  5  1 -1</clus>
</clustering>
</event>
<event>
10    4  0.7508634E-005  0.1148261E+03  0.7546771E-02  0.1264499E+00
          2   -1    0    0  503    0 -0.00000000000E+00  0.00000000000E+00  0.11587961117E+04  0.11587961117E+04  0.00000000000E+00 0. -1.
         21   -1    0    0  501  502  0.00000000000E+00 -0.00000000000E+00 -0.36870426376E+02  0.36870426376E+02  0.00000000000E+00 0.  1.
         24    2    1    2    0    0 -0.35042338214E+02 -0.10361917778E+02  0.94067168075E+03  0.94482933805E+03  0.80646960662E+02 0.  0.
         23    2    1    2    0    0  0.56071789770E+02 -0.19349943974E+02  0.10122004368E+03  0.14813417436E+03  0.90442083296E+02 0.  0.
        -11    1    3    3    0    0 -0.63900685627E+01  0.20128745013E+02  0.69128935865E+02  0.72282841158E+02  0.00000000000E+00 0.  1.
         12    1    3    3    0    0 -0.28652269651E+02 -0.30490662791E+02  0.87154274488E+03  0.87254649689E+03  0.00000000000E+00 0. -1.
        -13    1    4    4    0    0 -0.14987930884E+02 -0.29111839841E+02  0.50877679029E+02  0.60503516547E+02  0.00000000000E+00 0. -1.
         13    1    4    4    0    0  0.71059720653E+02  0.97618958664E+01  0.50342364653E+02  0.87630657815E+02  0.00000000000E+00 0.  1.
         21    1    1    2  503  502 -0.38374389520E+02  0.18350049711E+02  0.44483417319E+02  0.61547481767E+02  0.00000000000E+00 0.  1.
          1    1    1    2  501    0  0.17344937964E+02  0.11361812041E+02  0.35550543613E+02  0.41155543940E+02  0.00000000000E+00 0. -1.
<scales pt_clust_5="13000.00000" pt_clust_6="13000.00000" pt_clust_7="13000.00000" pt_clust_8="13000.00000" pt_clust_9="42.53608" pt_clust_10="13000.00000"></scales>
<clustering>
<clus scale="   42.536">  2  9  1 -1</clus>
<clus scale="   80.647">  5  6 -1 -1</clus>
<clus scale="   89.546">  1  5  2 -1</clus>
<clus scale="   90.442">  7  8 -1 -1</clus>
<clus scale="   13.046">  7 10 -1 -1</clus>
<clus scale="   42.536">  2  5  1 -1</clus>
</clustering>
</event>
<event>
10    4  0.7508634E-005  0.1094425E+04  0.7546771E-02  0.9716943E-01
         21   -1    0    0  503  502  0.00000000000E+00  0.00000000000E+00  0.26464614904E+03  0.26464614904E+03  0.00000000000E+00 0. -1.
          2   -1    0    0  502    0 -0.00000000000E+00 -0.00000000000E+00 -0.16312276292E+04  0.16312276292E+04  0.00000000000E+00 0. -1.
         24    2    1    2    0    0  0.10748974648E+03  0.13062242817E+03 -0.16333000289E+03  0.24847226326E+03  0.80283942513E+02 0.  0.
         23    2    1    2    0    0  0.34133227415E+03  0.11690201179E+03 -0.50945106707E+02  0.37378530593E+03  0.83344161751E+02 0.  0.
        -13    1    3    3    0    0  0.57923495965E+02  0.12330094267E+03 -0.10815000820E+03  0.17393871944E+03  0.00000000000E+00 0.  1.
         14    1    3    3    0    0  0.49566250514E+02  0.73214855034E+01 -0.55179994685E+02  0.74533543814E+02  0.00000000000E+00 0. -1.
        -13    1    4    4    0    0  0.23553170421E+03  0.72751642663E+02  0.42478105935E+01  0.24654822873E+03  0.00000000000E+00 0. -1.
         13    1    4    4    0    0  0.10580056994E+03  0.44150369128E+02 -0.55192917301E+02  0.12723707720E+03  0.00000000000E+00 0.  1.
         21    1    1    2  503  501 -0.27546424174E+01 -0.31704476671E+02 -0.19898280543E+02  0.37532698602E+02  0.00000000000E+00 0. -1.
          1    1    1    2  501    0 -0.44606737821E+03 -0.21581996329E+03 -0.11324080901E+04  0.12360835105E+04  0.00000000000E+00 0. -1.
<scales pt_clust_5="13000.00000" pt_clust_6="13000.00000" pt_clust_7="13000.00000" pt_clust_8="13000.00000" pt_clust_9="31.82392" pt_clust_10="13000.00000"></scales>
<clustering>
<clus scale="   31.824">  1  9  2 -1</clus>
<clus scale="   80.284">  5  6 -1 -1</clus>
<clus scale="   83.344">  7  8 -1 -1</clus>
<clus scale="  183.339">  2  5  1 -1</clus>
<clus scale="  375.025">  7 10 -1 -1</clus>
<clus scale="   31.824">  1  5  2 -1</clus>
</clustering>
</event>
<event>
10    4  0.7508634E-005  0.4138017E+03  0.7546771E-02  0.1054478E+00
         21   -1    0    0  503  502  0.00000000000E+00  0.00000000000E+00  0.22858404029E+03  0.22858404029E+03  0.00000000000E+00 0. -1.
          2   -1    0    0  502    0 -0.00000000000E+00 -0.00000000000E+00 -0.81054156392E+03  0.81054156392E+03  0.00000000000E+00 0. -1.
         24    2    1    2    0    0  0.13363510425E+03  0.22462259042E+03 -0.29529954724E+03  0.40256602699E+03  0.80894587396E+02 0.  0.
         23    2    1    2    0    0  0.72719269910E+02 -0.27311837351E+02 -0.20070421350E+03  0.23232315348E+03  0.87509071825E+02 0.  0.
        -13    1    3    3    0    0 -0.67221903124E-01  0.40448651696E+02 -0.19250584369E+02  0.44796014794E+02  0.00000000000E+00 0.  1.
         14    1    3    3    0    0  0.13370232616E+03  0.18417393873E+03 -0.27604896287E+03  0.35777001220E+03  0.00000000000E+00 0. -1.
        -11    1    4    4    0    0  0.92881839898E+02 -0.21972512560E+02 -0.15409267073E+03  0.18125776856E+03  0.00000000000E+00 0.  1.
         11    1    4    4    0    0 -0.20162569988E+02 -0.53393247914E+01 -0.46611542775E+02  0.51065384926E+02  0.00000000000E+00 0. -1.
         21    1    1    2  503  501 -0.30350564600E+01 -0.22638705057E+02  0.83867442144E+02  0.86922208820E+02  0.00000000000E+00 0. -1.
          1    1    1    2  501    0 -0.20331931770E+03 -0.17467204802E+03 -0.16982120504E+03  0.31731421492E+03  0.00000000000E+00 0. -1.
<scales pt_clust_5="13000.00000" pt_clust_6="13000.00000" pt_clust_7="13000.00000" pt_clust_8="13000.00000" pt_clust_9="22.84125" pt_clust_10="13000.00000"></scales>
<clustering>
<clus scale="   22.841">  1  9  2 -1</clus>
<clus scale="   80.895">  5  6 -1 -1</clus>
<clus scale="   87.509">  7  8 -1 -1</clus>
<clus scale="  266.116">  2  5  1 -1</clus>
<clus scale="  149.627">  7 10 -1 -1</clus>
<clus scale="   22.841">  1  5  2 -1</clus>
</clustering>
</event>
<event>
10    4  0.7508634E-005  0.1868518E+03  0.7546771E-02  0.1197755E+00
          2   -1    0    0  502    0 -0.00000000000E+00  0.00000000000E+00  0.45221396153E+03  0.45221396153E+03  0.00000000000E+00 0. -1.
         21   -1    0    0  503  502  0.00000000000E+00 -0.00000000000E+00 -0.71473814907E+03  0.71473814907E+03  0.00000000000E+00 0.  1.
         24    2    1    2    0    0  0.31962064536E+02 -0.26442496270E+01  0.19238513280E+03  0.21048066086E+03  0.79129663501E+02 0.  0.
         23    2    1    2    0    0  0.14192659102E+02  0.35234544242E+02  0.73492026741E+02  0.12166511737E+03  0.89209966434E+02 0.  0.
        -11    1    3    3    0    0  0.51581949336E+02  0.20048649665E+02  0.12789171034E+03  0.13935184041E+03  0.00000000000E+00 0.  1.
         12    1    3    3    0    0 -0.19619884801E+02 -0.22692899292E+02  0.64493422462E+02  0.71128820451E+02  0.00000000000E+00 0. -1.
        -13    1    4    4    0    0  0.31754263050E+02  0.12279525191E+02 -0.81928721088E+01  0.35017754271E+02  0.00000000000E+00 0.  1.
         13    1    4    4    0    0 -0.17561603948E+02  0.22955019051E+02  0.81684898849E+02  0.86647363104E+02  0.00000000000E+00 0. -1.
         21    1    1    2  503  501 -0.58161961349E+02  0.60519774636E+02 -0.66432835702E+03  0.66961005280E+03  0.00000000000E+00 0.  1.
          1    1    1    2  501    0  0.12007237711E+02 -0.93110069251E+02  0.13592700993E+03  0.16519627957E+03  0.00000000000E+00 0. -1.
<scales pt_clust_5="13000.00000" pt_clust_6="13000.00000" pt_clust_7="13000.00000" pt_clust_8="13000.00000" pt_clust_9="83.93722" pt_clust_10="13000.00000"></scales>
<clustering>
<clus scale="   79.130">  5  6 -1 -1</clus>
<clus scale="   83.937">  2  9  1 -1</clus>
<clus scale="   82.329">  1  5  2 -1</clus>
<clus scale="   89.210">  7  8 -1 -1</clus>
<clus scale="   70.970">  7 10 -1 -1</clus>
<clus scale="   83.937">  2  5  1 -1</clus>
</clustering>
</event>
<event>
10    4  0.7508634E-005  0.2842969E+03  0.7546771E-02  0.1141015E+00
          2   -1    0    0  502    0 -0.00000000000E+00  0.00000000000E+00  0.67359531548E+02  0.67359531548E+02  0.00000000000E+00 0. -1.
         21   -1    0    0  503  502  0.00000000000E+00 -0.00000000000E+00 -0.85830506387E+03  0.85830506387E+03  0.00000000000E+00 0. -1.
         24    2    1    2    0    0  0.30686620571E+02 -0.58040298988E+01 -0.49072499902E+02  0.98506971588E+02  0.79499419870E+02 0.  0.
         23    2    1    2    0    0  0.77827158835E+02 -0.95394633145E+02 -0.24959796888E+03  0.29345967322E+03  0.93071107494E+02 0.  0.
        -11    1    3    3    0    0  0.75945219272E+01  0.24561677132E+02  0.10496751329E+02  0.27769309233E+02  0.00000000000E+00 0.  1.
         12    1    3    3    0    0  0.23092098644E+02 -0.30365707030E+02 -0.59569251231E+02  0.70737662355E+02  0.00000000000E+00 0. -1.
        -11    1    4    4    0    0 -0.99968531434E+01 -0.50362705238E+02 -0.12028855219E+03  0.13078866518E+03  0.00000000000E+00 0.  1.
         11    1    4    4    0    0  0.87824011978E+02 -0.45031927907E+02 -0.12930941670E+03  0.16267100804E+03  0.00000000000E+00 0. -1.
         21    1    1    2  503  501  0.11799644452E+02  0.42873091242E+02 -0.27505246568E+03  0.27862374708E+03  0.00000000000E+00 0. -1.
          1    1    1    2  501    0 -0.12031342386E+03  0.58325571802E+02 -0.21722259787E+03  0.25507420354E+03  0.00000000000E+00 0. -1.
<scales pt_clust_5="13000.00000" pt_clust_6="13000.00000" pt_clust_7="13000.00000" pt_clust_8="13000.00000" pt_clust_9="44.46722" pt_clust_10="13000.00000"></scales>
<clustering>
<clus scale="   44.467">  2  9  1 -1</clus>
<clus scale="   79.499">  5  6 -1 -1</clus>
<clus scale="   85.768">  1  5  2 -1</clus>
<clus scale="   93.071">  7  8 -1 -1</clus>
<clus scale="  124.851">  7 10 -1 -1</clus>
<clus scale="   44.467">  2  5  1 -1</clus>
</clustering>
</event>
<event>
10    4  0.7508634E-005  0.5634586E+03  0.7546771E-02  0.1055635E+00
          2   -1    0    0  502    0 -0.00000000000E+00  0.00000000000E+00  0.46227524934E+03  0.46227524934E+03  0.00000000000E+00 0. -1.
         21   -1    0    0  503  502  0.00000000000E+00 -0.00000000000E+00 -0.11096220334E+04  0.11096220334E+04  0.00000000000E+00 0. -1.
         24    2    1    2    0    0 -0.62307952718E+02  0.11711657392E+02  0.58078571254E+02  0.11738973942E+03  0.79923629749E+02 0.  0.
         23    2    1    2    0    0 -0.27636137649E+03 -0.80178230503E+02  0.10593376407E+03  0.32009614663E+03  0.91844551570E+02 0.  0.
        -13    1    3    3    0    0 -0.21322981241E+02 -0.15917323050E+02 -0.13941383567E+02  0.30039854824E+02  0.00000000000E+00 0.  1.
         14    1    3    3    0    0 -0.40984971477E+02  0.27628980442E+02  0.72019954821E+02  0.87349884600E+02  0.00000000000E+00 0. -1.
        -11    1    4    4    0    0 -0.99729361575E+02  0.11343979108E+02  0.15468191095E+02  0.10155735502E+03  0.00000000000E+00 0. -1.
         11    1    4    4    0    0 -0.17663201492E+03 -0.91522209611E+02  0.90465572971E+02  0.21853879161E+03  0.00000000000E+00 0.  1.
         21    1    1    2  503  501  0.10734927478E+03 -0.30456881929E+02 -0.86914247723E+03  0.87627628873E+03  0.00000000000E+00 0. -1.
          1    1    1    2  501    0  0.23132005443E+03  0.98923455041E+02  0.57783357828E+02  0.25813510799E+03  0.00000000000E+00 0. -1.
<scales pt_clust_5="13000.00000" pt_clust_6="13000.00000" pt_clust_7="13000.00000" pt_clust_8="13000.00000" pt_clust_9="110.98496" pt_clust_10="13000.00000"></scales>
<clustering>
<clus scale="   79.924">  5  6 -1 -1</clus>
<clus scale="   91.845">  7  8 -1 -1</clus>
<clus scale="  102.016">  1  5  2 -1</clus>
<clus scale="  110.985">  2  9  1 -1</clus>
<clus scale="  265.294">  7 10 -1 -1</clus>
<clus scale="  110.985">  2  5  1 -1</clus>
</clustering>
</event>
<event>
10    4  0.7508634E-005  0.3277310E+03  0.7546771E-02  0.1076676E+00
          2   -1    0    0  502    0 -0.00000000000E+00  0.00000000000E+00  0.22008368242E+04  0.22008368242E+04  0.00000000000E+00 0. -1.
         21   -1    0    0  503  502  0.00000000000E+00 -0.00000000000E+00 -0.36711483391E+03  0.36711483391E+03  0.00000000000E+00 0. -1.
         24    2    1    2    0    0  0.27490356095E+03 -0.44057197714E+02  0.13394525511E+04  0.13704233449E+04  0.80087472020E+02 0.  0.
         23    2    1    2    0    0 -0.84483656966E+01  0.11947135099E+03  0.41084211853E+03  0.43767253942E+03  0.91767242623E+02 0.  0.
        -13    1    3    3    0    0  0.23746703044E+02  0.53287877747E+01  0.47648384190E+02  0.53503928832E+02  0.00000000000E+00 0.  1.
         14    1    3    3    0    0  0.25115685791E+03 -0.49385985489E+02  0.12918041669E+04  0.13169194161E+04  0.00000000000E+00 0. -1.
        -13    1    4    4    0    0  0.15928223985E+02  0.10821020750E+03  0.38562346444E+03  0.40083489575E+03  0.00000000000E+00 0. -1.
         13    1    4    4    0    0 -0.24376589682E+02  0.11261143494E+02  0.25218654089E+02  0.36837643673E+02  0.00000000000E+00 0.  1.
         21    1    1    2  503  501 -0.18635010736E+03 -0.23076700909E+03 -0.24703650085E+03  0.38601399942E+03  0.00000000000E+00 0. -1.
          1    1    1    2  501    0 -0.80105087897E+02  0.15535285581E+03  0.33046382157E+03  0.37384177440E+03  0.00000000000E+00 0. -1.
<scales pt_clust_5="13000.00000" pt_clust_6="13000.00000" pt_clust_7="13000.00000" pt_clust_8="13000.00000" pt_clust_9="285.93120" pt_clust_10="13000.00000"></scales>
<clustering>
<clus scale="   80.087">  5  6 -1 -1</clus>
<clus scale="   91.767">  7  8 -1 -1</clus>
<clus scale="  174.789">  7 10 -1 -1</clus>
<clus scale="  289.702">  1  5  2 -1</clus>
<clus scale="  285.931">  2  9  1 -1</clus>
<clus scale="  285.931">  2  5  1 -1</clus>
</clustering>
</event>
<event>
10    4  0.7508634E-005  0.2936162E+03  0.7546771E-02  0.1130511E+00
         21   -1    0    0  501  502  0.00000000000E+00  0.00000000000E+00  0.17200525449E+03  0.17200525449E+03  0.00000000000E+00 0. -1.
          2   -1    0    0  503    0 -0.00000000000E+00 -0.00000000000E+00 -0.57805840380E+03  0.57805840380E+03  0.00000000000E+00 0. -1.
         24    2    1    2    0    0 -0.41910911212E+02 -0.21897802672E+02 -0.13936473313E+03  0.16777058702E+03  0.80550622533E+02 0.  0.
         23    2    1    2    0    0  0.10875105770E+03  0.11828428251E+03 -0.94406315161E+02  0.20610510315E+03  0.88027252390E+02 0.  0.
        -13    1    3    3    0    0 -0.42837337777E+01  0.26311994521E+02 -0.18921951286E+02  0.32691155856E+02  0.00000000000E+00 0.  1.
         14    1    3    3    0    0 -0.37627177434E+02 -0.48209797193E+02 -0.12044278184E+03  0.13507943117E+03  0.00000000000E+00 0. -1.
        -13    1    4    4    0    0  0.89237610576E+02  0.13018798538E+03 -0.69987033557E+02  0.17265702286E+03  0.00000000000E+00 0. -1.
         13    1    4    4    0    0  0.19513447127E+02 -0.11903702873E+02 -0.24419281603E+02  0.33448080287E+02  0.00000000000E+00 0.  1.
         21    1    1    2  503  502 -0.43810101513E+02 -0.54224651570E+02  0.87571700231E+02  0.11193051645E+03  0.00000000000E+00 0. -1.
          1    1    1    2  501    0 -0.23030044978E+02 -0.42161828263E+02 -0.25985380125E+03  0.26425745166E+03  0.00000000000E+00 0. -1.
<scales pt_clust_5="13000.00000" pt_clust_6="13000.00000" pt_clust_7="13000.00000" pt_clust_8="13000.00000" pt_clust_9="69.71110" pt_clust_10="13000.00000"></scales>
<clustering>
<clus scale="   69.711">  1  9  2 -1</clus>
<clus scale="   80.551">  5  6 -1 -1</clus>
<clus scale="   88.027">  7  8 -1 -1</clus>
<clus scale="   50.133">  7 10 -1 -1</clus>
<clus scale="  100.503">  2  5  1 -1</clus>
<clus scale="   69.711">  1  5  2 -1</clus>
</clustering>
</event>
<event>
10    4  0.7508634E-005  0.2746575E+03  0.7546771E-02  0.1119450E+00
          2   -1    0    0  503    0 -0.00000000000E+00  0.00000000000E+00  0.45072896055E+03  0.45072896055E+03  0.00000000000E+00 0. -1.
         21   -1    0    0  501  502  0.00000000000E+00 -0.00000000000E+00 -0.31301992541E+03  0.31301992541E+03  0.00000000000E+00 0. -1.
         24    2    1    2    0    0  0.74615149828E+01 -0.13331521192E+03  0.27655231753E+03  0.31822352272E+03  0.83405072657E+02 0.  0.
         23    2    1    2    0    0  0.74558260107E+02  0.34174080586E+02  0.29378075768E+02  0.13456023547E+03  0.10255039590E+03 0.  0.
        -11    1    3    3    0    0  0.45013815460E+02 -0.69880670085E+02  0.16027355271E+03  0.18054684526E+03  0.00000000000E+00 0.  1.
         12    1    3    3    0    0 -0.37552300477E+02 -0.63434541830E+02  0.11627876482E+03  0.13767667746E+03  0.00000000000E+00 0. -1.
        -13    1    4    4    0    0  0.35049051253E+02 -0.80866890792E+01 -0.33473913284E+02  0.49135866783E+02  0.00000000000E+00 0.  1.
         13    1    4    4    0    0  0.39509208854E+02  0.42260769665E+02  0.62851989052E+02  0.85424368682E+02  0.00000000000E+00 0. -1.
         21    1    1    2  503  502 -0.54168616294E+01 -0.37637692231E+02 -0.14810784341E+03  0.15291131922E+03  0.00000000000E+00 0. -1.
          1    1    1    2  501    0 -0.76602913461E+02  0.13677882356E+03 -0.20113514750E+02  0.15805380856E+03  0.00000000000E+00 0. -1.
<scales pt_clust_5="13000.00000" pt_clust_6="13000.00000" pt_clust_7="13000.00000" pt_clust_8="13000.00000" pt_clust_9="38.02549" pt_clust_10="13000.00000"></scales>
<clustering>
<clus scale="   38.025">  2  9  1 -1</clus>
<clus scale="   83.405">  5  6 -1 -1</clus>
<clus scale="  102.550">  7  8 -1 -1</clus>
<clus scale="  140.790">  7 10 -1 -1</clus>
<clus scale="  161.509">  1  5  2 -1</clus>
<clus scale="   38.025">  2  5  1 -1</clus>
</clustering>
</event>
<event>
10    4  0.7508634E-005  0.3441106E+03  0.7546771E-02  0.1111139E+00
          2   -1    0    0  503    0 -0.00000000000E+00  0.00000000000E+00  0.64489529711E+03  0.64489529711E+03  0.00000000000E+00 0. -1.
         21   -1    0    0  501  502  0.00000000000E+00 -0.00000000000E+00 -0.14665717339E+03  0.14665717339E+03  0.00000000000E+00 0. -1.
         24    2    1    2    0    0  0.71788965743E+02 -0.57560829660E+01  0.43452549484E+02  0.11581309861E+03  0.79610060043E+02 0.  0.
         23    2    1    2    0    0  0.48376803595E+02 -0.91943338820E+02  0.30041476535E+03  0.34120770954E+03  0.12401522943E+03 0.  0.
        -11    1    3    3    0    0  0.13555917563E+02 -0.36928115763E+02  0.57411880313E+01  0.39754369254E+02  0.00000000000E+00 0.  1.
         12    1    3    3    0    0  0.58233048181E+02  0.31172032797E+02  0.37711361452E+02  0.76058729359E+02  0.00000000000E+00 0. -1.
        -11    1    4    4    0    0  0.90581957418E+02 -0.64373392830E+02  0.21518372484E+03  0.24218393867E+03  0.00000000000E+00 0. -1.
         11    1    4    4    0    0 -0.42205153824E+02 -0.27569945990E+02  0.85231040509E+02  0.99023770870E+02  0.00000000000E+00 0.  1.
         21    1    1    2  503  502 -0.41284014348E+02 -0.58940598483E+02 -0.31877879406E+02  0.78705547363E+02  0.00000000000E+00 0. -1.
          1    1    1    2  501    0 -0.78881754990E+02  0.15664002027E+03  0.18624868829E+03  0.25582611499E+03  0.00000000000E+00 0. -1.
<scales pt_clust_5="13000.00000" pt_clust_6="13000.00000" pt_clust_7="13000.00000" pt_clust_8="13000.00000" pt_clust_9="71.96085" pt_clust_10="13000.00000"></scales>
<clustering>
<clus scale="   71.961">  2  9  1 -1</clus>
<clus scale="   79.610">  5  6 -1 -1</clus>
<clus scale="  101.282">  1  5  2 -1</clus>
<clus scale="  124.015">  7  8 -1 -1</clus>
<clus scale="  144.121">  7 10 -1 -1</clus>
<clus scale="   71.961">  2  5  1 -1</clus>
</clustering>
</event>
<event>
10    4  0.7508634E-005  0.1936948E+03  0.7546771E-02  0.1167206E+00
         -1   -1    0    0    0  501 -0.00000000000E+00  0.00000000000E+00  0.36435453580E+03  0.36435453580E+03  0.00000000000E+00 0.  1.
         21   -1    0    0  501  502  0.00000000000E+00 -0.00000000000E+00 -0.76143941437E+03  0.76143941437E+03  0.00000000000E+00 0.  1.
         24    2    1    2    0    0  0.15395998782E+03 -0.51959393762E+01  0.13391910277E+03  0.21895916232E+03  0.79234544486E+02 0.  0.
         23    2    1    2    0    0 -0.72201912913E+02  0.12530633792E+02  0.12953178890E+03  0.17509077877E+03  0.92239706545E+02 0.  0.
        -13    1    3    3    0    0  0.61254310783E+02 -0.38394859662E+02  0.75183183672E+02  0.10430132763E+03  0.00000000000E+00 0.  1.
         14    1    3    3    0    0  0.92705677038E+02  0.33198920286E+02  0.58735919102E+02  0.11465783469E+03  0.00000000000E+00 0. -1.
        -13    1    4    4    0    0 -0.67142806975E+02 -0.26878647175E+02  0.10777180492E+03  0.12978975359E+03  0.00000000000E+00 0.  1.
         13    1    4    4    0    0 -0.50591059384E+01  0.39409280967E+02  0.21759983980E+02  0.45301025177E+02  0.00000000000E+00 0. -1.
         21    1    1    2  503  502 -0.73341505195E+02 -0.60021587472E+02 -0.67075687672E+03  0.67741889184E+03  0.00000000000E+00 0.  1.
         -2    1    1    2    0  503 -0.84165697138E+01  0.52686893057E+02  0.10221106479E+02  0.54325117242E+02  0.00000000000E+00 0.  1.
<scales pt_clust_5="13000.00000" pt_clust_6="13000.00000" pt_clust_7="13000.00000" pt_clust_8="13000.00000" pt_clust_9="94.77113" pt_clust_10="13000.00000"></scales>
<clustering>
<clus scale="   79.235">  5  6 -1 -1</clus>
<clus scale="   92.240">  7  8 -1 -1</clus>
<clus scale="   53.355">  7 10 -1 -1</clus>
<clus scale="   94.771">  2  9  1 -1</clus>
<clus scale="  146.450">  1  5  2 -1</clus>
<clus scale="   94.771">  2  5  1 -1</clus>
</clustering>
</event>
<event>
10    4  0.7508634E-005  0.7109801E+03  0.7546771E-02  0.1035183E+00
          2   -1    0    0  503    0 -0.00000000000E+00  0.00000000000E+00  0.93606709990E+03  0.93606709990E+03  0.00000000000E+00 0. -1.
         21   -1    0    0  501  502  0.00000000000E+00 -0.00000000000E+00 -0.25286146523E+03  0.25286146523E+03  0.00000000000E+00 0. -1.
         24    2    1    2    0    0 -0.45530757636E+02 -0.17539977987E+02  0.95754779384E+01  0.94916761143E+02  0.80850485771E+02 0.  0.
         23    2    1    2    0    0 -0.32839776981E+03 -0.11783563175E+02  0.51382151902E+03  0.61623400087E+03  0.88021831639E+02 0.  0.
        -11    1    3    3    0    0 -0.96684870119E+01  0.25056211744E+02  0.25466325157E+02  0.37011175408E+02  0.00000000000E+00 0.  1.
         12    1    3    3    0    0 -0.35862270624E+02 -0.42596189732E+02 -0.15890847218E+02  0.57905585735E+02  0.00000000000E+00 0. -1.
        -13    1    4    4    0    0 -0.27732103235E+02 -0.27244892556E+02  0.66653778636E+02  0.77162684807E+02  0.00000000000E+00 0.  1.
         13    1    4    4    0    0 -0.30066566657E+03  0.15461329381E+02  0.44716774038E+03  0.53907131606E+03  0.00000000000E+00 0. -1.
         21    1    1    2  503  502  0.36728200044E+02 -0.16717115759E+02 -0.60239221480E+02  0.72506457935E+02  0.00000000000E+00 0.  1.
          1    1    1    2  501    0  0.33720032740E+03  0.46040656921E+02  0.22004785920E+03  0.40527134518E+03  0.00000000000E+00 0. -1.
<scales pt_clust_5="13000.00000" pt_clust_6="13000.00000" pt_clust_7="13000.00000" pt_clust_8="13000.00000" pt_clust_9="40.35372" pt_clust_10="13000.00000"></scales>
<clustering>
<clus scale="   40.354">  2  9  1 -1</clus>
<clus scale="   80.850">  5  6 -1 -1</clus>
<clus scale="   88.022">  7  8 -1 -1</clus>
<clus scale="   91.497">  1  5  2 -1</clus>
<clus scale="  342.073">  7 10 -1 -1</clus>
<clus scale="   40.354">  2  5  1 -1</clus>
</clustering>
</event>
<event>
10    4  0.7508634E-005  0.8706631E+03  0.7546771E-02  0.9904569E-01
          2   -1    0    0  503    0 -0.00000000000E+00  0.00000000000E+00  0.18253621470E+04  0.18253621470E+04  0.00000000000E+00 0. -1.
         21   -1    0    0  501  502  0.00000000000E+00 -0.00000000000E+00 -0.18367958914E+03  0.18367958914E+03  0.00000000000E+00 0. -1.
         24    2    1    2    0    0  0.17046813500E+03 -0.36511094460E+01  0.51184210845E+03  0.54735144141E+03  0.92404224884E+02 0.  0.
         23    2    1    2    0    0  0.29201338066E+03  0.85410199489E+02  0.63922207645E+03  0.71414911049E+03  0.94007299337E+02 0.  0.
        -11    1    3    3    0    0  0.89902406336E+02 -0.46410805833E+02  0.23446585099E+03  0.25536374222E+03  0.00000000000E+00 0.  1.
         12    1    3    3    0    0  0.80565728668E+02  0.42759696387E+02  0.27737625746E+03  0.29198769918E+03  0.00000000000E+00 0. -1.
        -11    1    4    4    0    0  0.80873331865E+02  0.59339382133E+02  0.14747242654E+03  0.17835294970E+03  0.00000000000E+00 0.  1.
         11    1    4    4    0    0  0.21114004880E+03  0.26070817356E+02  0.49174964991E+03  0.53579616079E+03  0.00000000000E+00 0. -1.
         21    1    1    2  503  502  0.33781907709E+02  0.34274706098E+02  0.78670777300E+02  0.92222903704E+02  0.00000000000E+00 0.  1.
          1    1    1    2  501    0 -0.49626342338E+03 -0.11603379614E+03  0.41194759563E+03  0.65531828051E+03  0.00000000000E+00 0. -1.
<scales pt_clust_5="13000.00000" pt_clust_6="13000.00000" pt_clust_7="13000.00000" pt_clust_8="13000.00000" pt_clust_9="48.12458" pt_clust_10="13000.00000"></scales>
<clustering>
<clus scale="   48.125">  2  9  1 -1</clus>
<clus scale="   92.404">  5  6 -1 -1</clus>
<clus scale="   94.007">  7  8 -1 -1</clus>
<clus scale="  196.889">  1  5  2 -1</clus>
<clus scale="  411.794">  7 10 -1 -1</clus>
<clus scale="   48.125">  2  5  1 -1</clus>
</clustering>
</event>
<event>
10    4  0.7508634E-005  0.2177409E+03  0.7546771E-02  0.1157916E+00
         21   -1    0    0  501  502  0.00000000000E+00  0.00000000000E+00  0.21693054843E+03  0.21693054843E+03  0.00000000000E+00 0.  1.
         -1   -1    0    0    0  501 -0.00000000000E+00 -0.00000000000E+00 -0.18469428633E+03  0.18469428633E+03  0.00000000000E+00 0.  1.
         24    2    1    2    0    0  0.86305687401E+02  0.38053434737E+02 -0.48136856699E+02  0.13337700262E+03  0.81089655820E+02 0.  0.
         23    2    1    2    0    0  0.94233079930E+01  0.31477295561E+01  0.55611254843E+02  0.10624340798E+03  0.89979681812E+02 0.  0.
        -13    1    3    3    0    0  0.40967358297E+02  0.58987629115E+02 -0.41644191110E+02  0.83018693603E+02  0.00000000000E+00 0.  1.
         14    1    3    3    0    0  0.45338329104E+02 -0.20934194377E+02 -0.64926655894E+01  0.50358309013E+02  0.00000000000E+00 0. -1.
        -13    1    4    4    0    0  0.15675961112E+02  0.38752515196E+02  0.23449368730E+01  0.41868746336E+02  0.00000000000E+00 0. -1.
         13    1    4    4    0    0 -0.62526531195E+01 -0.35604785640E+02  0.53266317970E+02  0.64374661643E+02  0.00000000000E+00 0.  1.
         21    1    1    2  503  502  0.14311209831E+02  0.15278306435E+02  0.31849429569E+02  0.38113298706E+02  0.00000000000E+00 0. -1.
         -2    1    1    2    0  503 -0.11004020522E+03 -0.56479470729E+02 -0.70875656143E+01  0.12389112545E+03  0.00000000000E+00 0.  1.
<scales pt_clust_5="13000.00000" pt_clust_6="13000.00000" pt_clust_7="13000.00000" pt_clust_8="13000.00000" pt_clust_9="20.93412" pt_clust_10="13000.00000"></scales>
<clustering>
<clus scale="   20.934">  1  9  2 -1</clus>
<clus scale="   81.090">  5  6 -1 -1</clus>
<clus scale="   89.980">  7  8 -1 -1</clus>
<clus scale="  117.384">  7 10 -1 -1</clus>
<clus scale="  127.857">  2  5  1 -1</clus>
<clus scale="   20.934">  1  5  2 -1</clus>
</clustering>
</event>
<event>
10    4  0.7508634E-005  0.1357494E+03  0.7546771E-02  0.1239874E+00
         21   -1    0    0  501  502  0.00000000000E+00  0.00000000000E+00  0.37457197459E+03  0.37457197459E+03  0.00000000000E+00 0. -1.
          4   -1    0    0  503    0 -0.00000000000E+00 -0.00000000000E+00 -0.18894180872E+03  0.18894180872E+03  0.00000000000E+00 0. -1.
         24    2    1    2    0    0  0.17454331905E+02  0.22855002624E+02 -0.12312272596E+03  0.15107699032E+03  0.82692481579E+02 0.  0.
         23    2    1    2    0    0 -0.18947459276E+02  0.22496523786E+01  0.77237097899E+01  0.92787942516E+02  0.90475850007E+02 0.  0.
        -11    1    3    3    0    0  0.31892067486E+01 -0.30902482080E+02 -0.54639814725E+02  0.62854146972E+02  0.00000000000E+00 0.  1.
         12    1    3    3    0    0  0.14265125156E+02  0.53757484704E+02 -0.68482911233E+02  0.88222843348E+02  0.00000000000E+00 0. -1.
        -11    1    4    4    0    0 -0.27080822262E+02 -0.40504133255E+02  0.72873327022E+01  0.49265210474E+02  0.00000000000E+00 0.  1.
         11    1    4    4    0    0  0.81333629854E+01  0.42753785633E+02  0.43637708770E+00  0.43522732042E+02  0.00000000000E+00 0. -1.
         21    1    1    2  503  502  0.31805243163E+02  0.25636472678E+01  0.25880853704E+03  0.26076810507E+03  0.00000000000E+00 0. -1.
          3    1    1    2  501    0 -0.30312115792E+02 -0.27668302270E+02  0.42220645006E+02  0.58880745401E+02  0.00000000000E+00 0. -1.
<scales pt_clust_5="13000.00000" pt_clust_6="13000.00000" pt_clust_7="13000.00000" pt_clust_8="13000.00000" pt_clust_9="31.90840" pt_clust_10="13000.00000"></scales>
<clustering>
<clus scale="   31.908">  1  9  2 -1</clus>
<clus scale="   82.692">  5  6 -1 -1</clus>
<clus scale="   88.485">  2  5  1 -1</clus>
<clus scale="   90.476">  7  8 -1 -1</clus>
<clus scale="   27.358">  7 10 -1 -1</clus>
<clus scale="   31.908">  1  5  2 -1</clus>
</clustering>
</event>
<event>
10    4  0.7508634E-005  0.2384303E+03  0.7546771E-02  0.1128479E+00
         21   -1    0    0  501  502  0.00000000000E+00  0.00000000000E+00  0.11877362695E+03  0.11877362695E+03  0.00000000000E+00 0. -1.
          2   -1    0    0  503    0 -0.00000000000E+00 -0.00000000000E+00 -0.55144856679E+03  0.55144856679E+03  0.00000000000E+00 0. -1.
         24    2    1    2    0    0  0.11429218618E+03 -0.14975025059E+03 -0.92766177578E+02  0.22564181020E+03  0.82588264514E+02 0.  0.
         23    2    1    2    0    0 -0.55867238586E+02  0.72599829012E+02 -0.18113741262E+03  0.23298668930E+03  0.11436849052E+03 0.  0.
        -11    1    3    3    0    0  0.77777050892E+02 -0.35054264957E+02 -0.39617414594E+02  0.94061738642E+02  0.00000000000E+00 0.  1.
         12    1    3    3    0    0  0.36515135291E+02 -0.11469598563E+03 -0.53148762985E+02  0.13158007156E+03  0.00000000000E+00 0. -1.
        -13    1    4    4    0    0 -0.79451340905E+02  0.23361536388E+02 -0.67218491299E+02  0.10666115753E+03  0.00000000000E+00 0. -1.
         13    1    4    4    0    0  0.23584102319E+02  0.49238292624E+02 -0.11391892132E+03  0.12632553177E+03  0.00000000000E+00 0.  1.
         21    1    1    2  503  502 -0.28838049438E+02 -0.27053670451E+01  0.26500147870E+01  0.29085643961E+02  0.00000000000E+00 0. -1.
          1    1    1    2  501    0 -0.29586898159E+02  0.79855788622E+02 -0.16142136443E+03  0.18250805027E+03  0.00000000000E+00 0. -1.
<scales pt_clust_5="13000.00000" pt_clust_6="13000.00000" pt_clust_7="13000.00000" pt_clust_8="13000.00000" pt_clust_9="28.96467" pt_clust_10="13000.00000"></scales>
<clustering>
<clus scale="   28.965">  1  9  2 -1</clus>
<clus scale="   82.588">  5  6 -1 -1</clus>
<clus scale="  114.368">  7  8 -1 -1</clus>
<clus scale="   85.975">  7 10 -1 -1</clus>
<clus scale="  197.296">  2  5  1 -1</clus>
<clus scale="   28.965">  1  5  2 -1</clus>
</clustering>
</event>
<event>
10    4  0.7508634E-005  0.2024461E+03  0.7546771E-02  0.1174041E+00
         -1   -1    0    0    0  501 -0.00000000000E+00  0.00000000000E+00  0.62446875747E+03  0.62446875747E+03  0.00000000000E+00 0.  1.
         21   -1    0    0  501  502  0.00000000000E+00 -0.00000000000E+00 -0.50916729102E+02  0.50916729102E+02  0.00000000000E+00 0. -1.
         24    2    1    2    0    0  0.76967530070E+02  0.21811445505E+02  0.13336893574E+03  0.17559154754E+03  0.81519192263E+02 0.  0.
         23    2    1    2    0    0  0.17537470581E+02 -0.23991578608E+02  0.10777544275E+03  0.14026076515E+03  0.84701696919E+02 0.  0.
        -11    1    3    3    0    0  0.26882687219E+01 -0.24120686172E+02  0.46270351584E+02  0.52249207897E+02  0.00000000000E+00 0.  1.
         12    1    3    3    0    0  0.74279261348E+02  0.45932131677E+02  0.87098584153E+02  0.12334233964E+03  0.00000000000E+00 0. -1.
        -11    1    4    4    0    0 -0.46660230418E+01  0.22055277009E+02  0.77799418780E+02  0.80999731960E+02  0.00000000000E+00 0.  1.
         11    1    4    4    0    0  0.22203493623E+02 -0.46046855617E+02  0.29976023970E+02  0.59261033186E+02  0.00000000000E+00 0. -1.
         21    1    1    2  503  502 -0.90373620118E+01 -0.21590765945E+02  0.10549877245E+02  0.25673624522E+02  0.00000000000E+00 0. -1.
         -2    1    1    2    0  503 -0.85467638639E+02  0.23770899048E+02  0.32185777263E+03  0.33385954936E+03  0.00000000000E+00 0.  1.
<scales pt_clust_5="13000.00000" pt_clust_6="13000.00000" pt_clust_7="13000.00000" pt_clust_8="13000.00000" pt_clust_9="23.40588" pt_clust_10="13000.00000"></scales>
<clustering>
<clus scale="   23.406">  2  9  1 -1</clus>
<clus scale="   81.519">  5  6 -1 -1</clus>
<clus scale="   84.702">  7  8 -1 -1</clus>
<clus scale="   89.174">  7 10 -1 -1</clus>
<clus scale="  109.722">  1  5  2 -1</clus>
<clus scale="   23.406">  2  5  1 -1</clus>
</clustering>
</event>
<event>
10    4  0.7508634E-005  0.3076856E+03  0.7546771E-02  0.1120276E+00
         21   -1    0    0  501  502  0.00000000000E+00  0.00000000000E+00  0.17185453046E+03  0.17185453046E+03  0.00000000000E+00 0. -1.
          4   -1    0    0  503    0 -0.00000000000E+00 -0.00000000000E+00 -0.52769559517E+03  0.52769559517E+03  0.00000000000E+00 0. -1.
         24    2    1    2    0    0 -0.86792415118E+02 -0.28658774479E+02 -0.11924821677E+03  0.17056010573E+03  0.80723997592E+02 0.  0.
         23    2    1    2    0    0  0.37080907149E+02  0.13964081000E+03 -0.15305161793E+03  0.22940061363E+03  0.91243050647E+02 0.  0.
        -13    1    3    3    0    0 -0.81673136698E+01  0.25242801229E+02 -0.23356440495E+02  0.35347239483E+02  0.00000000000E+00 0.  1.
         14    1    3    3    0    0 -0.78625101448E+02 -0.53901575708E+02 -0.95891776278E+02  0.13521286625E+03  0.00000000000E+00 0. -1.
        -11    1    4    4    0    0 -0.20774227880E+02  0.20944343301E+02 -0.32014379043E+01  0.29672938260E+02  0.00000000000E+00 0.  1.
         11    1    4    4    0    0  0.57855135029E+02  0.11869646670E+03 -0.14985018002E+03  0.19972767537E+03  0.00000000000E+00 0. -1.
         21    1    1    2  503  502  0.40314031271E+02  0.16663028045E+02  0.80478922165E+02  0.91540889956E+02  0.00000000000E+00 0. -1.
          3    1    1    2  501    0  0.93974766976E+01 -0.12764506356E+03 -0.16402015218E+03  0.20804851631E+03  0.00000000000E+00 0. -1.
<scales pt_clust_5="13000.00000" pt_clust_6="13000.00000" pt_clust_7="13000.00000" pt_clust_8="13000.00000" pt_clust_9="43.62199" pt_clust_10="13000.00000"></scales>
<clustering>
<clus scale="   43.622">  1  9  2 -1</clus>
<clus scale="   80.724">  5  6 -1 -1</clus>
<clus scale="   91.243">  7  8 -1 -1</clus>
<clus scale="  112.533">  2  5  1 -1</clus>
<clus scale="  134.773">  7 10 -1 -1</clus>
<clus scale="   43.622">  1  5  2 -1</clus>
</clustering>
</event>
<event>
10    4  0.7508634E-005  0.1310459E+03  0.7546771E-02  0.1245177E+00
          2   -1    0    0  503    0 -0.00000000000E+00  0.00000000000E+00  0.37378993235E+03  0.37378993235E+03  0.00000000000E+00 0. -1.
         21   -1    0    0  501  502  0.00000000000E+00 -0.00000000000E+00 -0.48234133899E+03  0.48234133899E+03  0.00000000000E+00 0. -1.
         24    2    1    2    0    0  0.33237751587E+02  0.55230119582E+01  0.58075666625E+02  0.10825750613E+03  0.84921450697E+02 0.  0.
         23    2    1    2    0    0  0.30595185779E+02  0.44902323315E+02  0.18649406923E+03  0.21198520367E+03  0.84884655178E+02 0.  0.
        -11    1    3    3    0    0  0.11382929220E+02 -0.39245351193E+02  0.32775368891E+02  0.52383141122E+02  0.00000000000E+00 0.  1.
         12    1    3    3    0    0  0.21854822367E+02  0.44768363151E+02  0.25300297734E+02  0.55874365011E+02  0.00000000000E+00 0. -1.
        -13    1    4    4    0    0  0.27152323961E+02 -0.15358319214E+02  0.11115472839E+03  0.11544912433E+03  0.00000000000E+00 0. -1.
         13    1    4    4    0    0  0.34428618181E+01  0.60260642530E+02  0.75339340840E+02  0.96536079337E+02  0.00000000000E+00 0.  1.
         21    1    1    2  503  502 -0.33182023646E+02 -0.42619782216E+02 -0.44006644409E+03  0.44336888450E+03  0.00000000000E+00 0. -1.
          1    1    1    2  501    0 -0.30650913721E+02 -0.78055530575E+01  0.86945301592E+02  0.92519677039E+02  0.00000000000E+00 0. -1.
<scales pt_clust_5="13000.00000" pt_clust_6="13000.00000" pt_clust_7="13000.00000" pt_clust_8="13000.00000" pt_clust_9="54.01382" pt_clust_10="13000.00000"></scales>
<clustering>
<clus scale="   54.014">  2  9  1 -1</clus>
<clus scale="   84.885">  7  8 -1 -1</clus>
<clus scale="   34.632">  7 10 -1 -1</clus>
<clus scale="   84.921">  5  6 -1 -1</clus>
<clus scale="   88.356">  1  5  2 -1</clus>
<clus scale="   54.014">  2  5  1 -1</clus>
</clustering>
</event>
<event>
10    4  0.7508634E-005  0.1838867E+04  0.7546771E-02  0.9115491E-01
         21   -1    0    0  501  502  0.00000000000E+00  0.00000000000E+00  0.42051502877E+03  0.42051502877E+03  0.00000000000E+00 0. -1.
          2   -1    0    0  503    0 -0.00000000000E+00 -0.00000000000E+00 -0.34715699661E+04  0.34715699661E+04  0.00000000000E+00 0. -1.
         24    2    1    2    0    0 -0.19094499383E+03 -0.25007582557E+03 -0.16371272324E+03  0.36349010039E+03  0.79531680031E+02 0.  0.
         23    2    1    2    0    0  0.24791818526E+03 -0.62311826072E+03 -0.42544282122E+03  0.79976925971E+03  0.94284045442E+02 0.  0.
        -11    1    3    3    0    0 -0.14652008778E+03 -0.19432866127E+03 -0.86217500781E+02  0.25819609244E+03  0.00000000000E+00 0.  1.
         12    1    3    3    0    0 -0.44424906044E+02 -0.55747164305E+02 -0.77495222459E+02  0.10529400795E+03  0.00000000000E+00 0. -1.
        -11    1    4    4    0    0  0.71203276007E+01 -0.58595450552E+02 -0.65917687494E+02  0.88483147633E+02  0.00000000000E+00 0.  1.
         11    1    4    4    0    0  0.24079785766E+03 -0.56452281016E+03 -0.35952513373E+03  0.71128611208E+03  0.00000000000E+00 0. -1.
         21    1    1    2  503  502 -0.72855947697E+01 -0.20999004078E+02  0.53939524277E+02  0.58339612123E+02  0.00000000000E+00 0. -1.
          1    1    1    2  501    0 -0.49687596668E+02  0.89419309037E+03 -0.25158389172E+04  0.26704860227E+04  0.00000000000E+00 0. -1.
<scales pt_clust_5="13000.00000" pt_clust_6="13000.00000" pt_clust_7="13000.00000" pt_clust_8="13000.00000" pt_clust_9="22.22697" pt_clust_10="13000.00000"></scales>
<clustering>
<clus scale="   22.227">  1  9  2 -1</clus>
<clus scale="   79.532">  5  6 -1 -1</clus>
<clus scale="   94.284">  7  8 -1 -1</clus>
<clus scale="  330.155">  2  5  1 -1</clus>
<clus scale="  714.668">  7 10 -1 -1</clus>
<clus scale="   22.227">  1  5  2 -1</clus>
</clustering>
</event>
<event>
10    4  0.7508634E-005  0.3664967E+03  0.7546771E-02  0.1057364E+00
         21   -1    0    0  501  502  0.00000000000E+00  0.00000000000E+00  0.27957268075E+03  0.27957268075E+03  0.00000000000E+00 0.  1.
          2   -1    0    0  503    0 -0.00000000000E+00 -0.00000000000E+00 -0.12865255181E+04  0.12865255181E+04  0.00000000000E+00 0. -1.
         24    2    1    2    0    0  0.18383819231E+03  0.29492689386E+03  0.76453198455E+02  0.36496559147E+03  0.81095238633E+02 0.  0.
         23    2    1    2    0    0 -0.86986661881E+02 -0.22022764645E+03 -0.66925305114E+03  0.71568613586E+03  0.90775013081E+02 0.  0.
        -11    1    3    3    0    0  0.29260702344E+02  0.11939940826E+03  0.23545317443E+02  0.12516704586E+03  0.00000000000E+00 0.  1.
         12    1    3    3    0    0  0.15457748997E+03  0.17552748560E+03  0.52907881012E+02  0.23979854562E+03  0.00000000000E+00 0. -1.
        -11    1    4    4    0    0 -0.84215714523E+02 -0.17602851849E+03 -0.42777256032E+03  0.47017835898E+03  0.00000000000E+00 0. -1.
         11    1    4    4    0    0 -0.27709473578E+01 -0.44199127968E+02 -0.24148049082E+03  0.24550777688E+03  0.00000000000E+00 0.  1.
         21    1    1    2  503  502 -0.45364953616E+02  0.19473512518E+02  0.78683689852E+01  0.49991078573E+02  0.00000000000E+00 0. -1.
          1    1    1    2  501    0 -0.51486576816E+02 -0.94172759929E+02 -0.42202135361E+03  0.43545539290E+03  0.00000000000E+00 0. -1.
<scales pt_clust_5="13000.00000" pt_clust_6="13000.00000" pt_clust_7="13000.00000" pt_clust_8="13000.00000" pt_clust_9="49.36797" pt_clust_10="13000.00000"></scales>
<clustering>
<clus scale="   49.368">  1  9  2 -1</clus>
<clus scale="   81.095">  5  6 -1 -1</clus>
<clus scale="   90.775">  7  8 -1 -1</clus>
<clus scale="  107.462">  7 10 -1 -1</clus>
<clus scale="  353.089">  2  5  1 -1</clus>
<clus scale="   49.368">  1  5  2 -1</clus>
</clustering>
</event>
<event>
10    4  0.7508634E-005  0.2104757E+03  0.7546771E-02  0.1182359E+00
         21   -1    0    0  501  502  0.00000000000E+00  0.00000000000E+00  0.15596763639E+03  0.15596763639E+03  0.00000000000E+00 0.  1.
          2   -1    0    0  503    0 -0.00000000000E+00 -0.00000000000E+00 -0.67041579391E+03  0.67041579391E+03  0.00000000000E+00 0. -1.
         24    2    1    2    0    0 -0.12203885400E+02  0.15333902227E+02 -0.34618026613E+03  0.35570859257E+03  0.79396239182E+02 0.  0.
         23    2    1    2    0    0 -0.77015660381E+02 -0.31447202107E+02 -0.98127223015E+02  0.15186456440E+03  0.80706601716E+02 0.  0.
        -11    1    3    3    0    0 -0.46025580247E+02  0.67973425922E+01 -0.18084893080E+03  0.18673749938E+03  0.00000000000E+00 0.  1.
         12    1    3    3    0    0  0.33821694847E+02  0.85365596347E+01 -0.16533133533E+03  0.16897109319E+03  0.00000000000E+00 0. -1.
        -11    1    4    4    0    0 -0.64387958149E+02  0.16139829239E+02 -0.61618971845E+02  0.90571523857E+02  0.00000000000E+00 0.  1.
         11    1    4    4    0    0 -0.12627702232E+02 -0.47587031346E+02 -0.36508251170E+02  0.61293040547E+02  0.00000000000E+00 0. -1.
         21    1    1    2  503  502  0.21836924467E+02 -0.23813448593E+02  0.11411379746E+03  0.11859970647E+03  0.00000000000E+00 0.  1.
          1    1    1    2  501    0  0.67382621314E+02  0.39926748473E+02 -0.18425446583E+03  0.20021056685E+03  0.00000000000E+00 0. -1.
<scales pt_clust_5="13000.00000" pt_clust_6="13000.00000" pt_clust_7="13000.00000" pt_clust_8="13000.00000" pt_clust_9="32.30993" pt_clust_10="13000.00000"></scales>
<clustering>
<clus scale="   32.310">  1  9  2 -1</clus>
<clus scale="   79.396">  5  6 -1 -1</clus>
<clus scale="   80.707">  7  8 -1 -1</clus>
<clus scale="   79.916">  7 10 -1 -1</clus>
<clus scale="   80.938">  2  5  1 -1</clus>
<clus scale="   32.310">  1  5  2 -1</clus>
</clustering>
</event>
<event>
10    4  0.7508634E-005  0.4174263E+03  0.7546771E-02  0.1078723E+00
          2   -1    0    0  503    0 -0.00000000000E+00  0.00000000000E+00  0.86892148948E+03  0.86892148948E+03  0.00000000000E+00 0. -1.
         21   -1    0    0  501  502  0.00000000000E+00 -0.00000000000E+00 -0.27624418202E+03  0.27624418202E+03  0.00000000000E+00 0. -1.
         24    2    1    2    0    0 -0.38874835013E+02 -0.93591060416E+02  0.45175774929E+02  0.14013348761E+03  0.85592080948E+02 0.  0.
         23    2    1    2    0    0  0.45343499932E+01  0.19985951739E+03  0.53107185387E+03  0.57340503954E+03  0.82411397143E+02 0.  0.
        -13    1    3    3    0    0 -0.57168946238E+01 -0.98776514600E+02  0.36598978686E+02  0.10549392381E+03  0.00000000000E+00 0.  1.
         14    1    3    3    0    0 -0.33157940389E+02  0.51854541838E+01  0.85767962425E+01  0.34639563792E+02  0.00000000000E+00 0. -1.
        -11    1    4    4    0    0 -0.30789005274E+02  0.64725500404E+02  0.12641358193E+03  0.14531946513E+03  0.00000000000E+00 0. -1.
         11    1    4    4    0    0  0.35323355267E+02  0.13513401698E+03  0.40465827193E+03  0.42808557441E+03  0.00000000000E+00 0.  1.
         21    1    1    2  503  502  0.15933331948E+03  0.35204480580E+01 -0.13332763321E+03  0.20778777160E+03  0.00000000000E+00 0. -1.
          1    1    1    2  501    0 -0.12499283446E+03 -0.10978890503E+03  0.14975731187E+03  0.22383937275E+03  0.00000000000E+00 0. -1.
<scales pt_clust_5="13000.00000" pt_clust_6="13000.00000" pt_clust_7="13000.00000" pt_clust_8="13000.00000" pt_clust_9="157.47184" pt_clust_10="13000.00000"></scales>
<clustering>
<clus scale="   82.411">  7  8 -1 -1</clus>
<clus scale="   85.592">  5  6 -1 -1</clus>
<clus scale="  132.652">  1  5  2 -1</clus>
<clus scale="  157.472">  2  9  1 -1</clus>
<clus scale="  141.992">  7 10 -1 -1</clus>
<clus scale="  157.472">  2  5  1 -1</clus>
</clustering>
</event>
<event>
10    4  0.7508634E-005  0.1359310E+04  0.7546771E-02  0.9558628E-01
         21   -1    0    0  501  502  0.00000000000E+00  0.00000000000E+00  0.38735055732E+03  0.38735055732E+03  0.00000000000E+00 0. -1.
          2   -1    0    0  503    0 -0.00000000000E+00 -0.00000000000E+00 -0.16442369841E+04  0.16442369841E+04  0.00000000000E+00 0. -1.
         24    2    1    2    0    0 -0.41414281492E+02  0.11467166490E+03 -0.30318528697E+03  0.34423552399E+03  0.10822219873E+03 0.  0.
         23    2    1    2    0    0 -0.49551269835E+03  0.74226440415E+02 -0.94183211445E+03  0.10707044403E+04  0.91202346542E+02 0.  0.
        -13    1    3    3    0    0 -0.26910882917E+02  0.66761327519E+02 -0.53771096659E+02  0.89847656104E+02  0.00000000000E+00 0.  1.
         14    1    3    3    0    0 -0.14503398575E+02  0.47910337378E+02 -0.24941419032E+03  0.25438786789E+03  0.00000000000E+00 0. -1.
        -13    1    4    4    0    0 -0.47296814432E+03  0.51497631491E+02 -0.85990720104E+03  0.98274679648E+03  0.00000000000E+00 0. -1.
         13    1    4    4    0    0 -0.22544554030E+02  0.22728808924E+02 -0.81924913411E+02  0.87957643835E+02  0.00000000000E+00 0.  1.
         21    1    1    2  503  502 -0.19136274883E+02  0.14844181543E+02  0.16996149320E+01  0.24278291393E+02  0.00000000000E+00 0. -1.
          1    1    1    2  501    0  0.55606325473E+03 -0.20374228686E+03 -0.13568640319E+02  0.59236928576E+03  0.00000000000E+00 0. -1.
<scales pt_clust_5="13000.00000" pt_clust_6="13000.00000" pt_clust_7="13000.00000" pt_clust_8="13000.00000" pt_clust_9="24.21873" pt_clust_10="13000.00000"></scales>
<clustering>
<clus scale="   24.219">  1  9  2 -1</clus>
<clus scale="   91.202">  7  8 -1 -1</clus>
<clus scale="  108.222">  5  6 -1 -1</clus>
<clus scale="  163.866">  2  5  1 -1</clus>
<clus scale="  557.262">  7 10 -1 -1</clus>
<clus scale="   24.219">  1  5  2 -1</clus>
</clustering>
</event>
<event>
10    4  0.7508634E-005  0.1623623E+03  0.7546771E-02  0.1200439E+00
         21   -1    0    0  503  502  0.00000000000E+00  0.00000000000E+00  0.64139303757E+02  0.64139303757E+02  0.00000000000E+00 0. -1.
          2   -1    0    0  502    0 -0.00000000000E+00 -0.00000000000E+00 -0.73684621812E+03  0.73684621812E+03  0.00000000000E+00 0. -1.
         24    2    1    2    0    0 -0.69511595133E+02  0.50172939417E+02 -0.47957283953E+03  0.49345465844E+03  0.78474236632E+02 0.  0.
         23    2    1    2    0    0  0.95801460665E+02 -0.30759972602E+01 -0.19034082832E+03  0.23330223745E+03  0.94936407405E+02 0.  0.
        -11    1    3    3    0    0  0.22821975750E+01  0.39774873508E+02 -0.11420066407E+03  0.12095057116E+03  0.00000000000E+00 0.  1.
         12    1    3    3    0    0 -0.71793792708E+02  0.10398065909E+02 -0.36537217545E+03  0.37250408728E+03  0.00000000000E+00 0. -1.
        -11    1    4    4    0    0  0.69746834448E+02  0.12486037679E+02 -0.43030798051E+02  0.82898562311E+02  0.00000000000E+00 0. -1.
         11    1    4    4    0    0  0.26054626217E+02 -0.15562034939E+02 -0.14731003027E+03  0.15040367514E+03  0.00000000000E+00 0.  1.
         21    1    1    2  503  501 -0.28935980161E+02 -0.14890557484E+02  0.16609472618E+02  0.36536204383E+02  0.00000000000E+00 0. -1.
          1    1    1    2  501    0  0.26461146282E+01 -0.32206384673E+02 -0.19402719134E+02  0.37692421601E+02  0.00000000000E+00 0. -1.
<scales pt_clust_5="13000.00000" pt_clust_6="13000.00000" pt_clust_7="13000.00000" pt_clust_8="13000.00000" pt_clust_9="32.54258" pt_clust_10="13000.00000"></scales>
<clustering>
<clus scale="   32.543">  1  9  2 -1</clus>
<clus scale="   78.474">  5  6 -1 -1</clus>
<clus scale="   94.936">  7  8 -1 -1</clus>
<clus scale="   36.100">  7 10 -1 -1</clus>
<clus scale="  118.367">  2  5  1 -1</clus>
<clus scale="   32.543">  1  5  2 -1</clus>
</clustering>
</event>
<event>
10    4  0.7508634E-005  0.1735745E+03  0.7546771E-02  0.1208583E+00
         21   -1    0    0  501  502  0.00000000000E+00  0.00000000000E+00  0.52796487885E+02  0.52796487885E+02  0.00000000000E+00 0. -1.
          2   -1    0    0  503    0 -0.00000000000E+00 -0.00000000000E+00 -0.60533468682E+03  0.60533468682E+03  0.00000000000E+00 0. -1.
         24    2    1    2    0    0  0.10201373063E+01  0.12313301403E+02 -0.17017664372E+03  0.18882639833E+03  0.80886714409E+02 0.  0.
         23    2    1    2    0    0  0.14899039442E+02  0.61383261681E+02 -0.27181952758E+03  0.29356783282E+03  0.91139073398E+02 0.  0.
        -11    1    3    3    0    0  0.40796832634E+02  0.61845763777E+01 -0.94429288593E+02  0.10305106056E+03  0.00000000000E+00 0.  1.
         12    1    3    3    0    0 -0.39776695328E+02  0.61287250251E+01 -0.75747355127E+02  0.85775337775E+02  0.00000000000E+00 0. -1.
        -11    1    4    4    0    0  0.11635450111E+02  0.84510774991E+02 -0.23457531266E+03  0.24960575334E+03  0.00000000000E+00 0. -1.
         11    1    4    4    0    0  0.32635893304E+01 -0.23127513310E+02 -0.37244214916E+02  0.43962079476E+02  0.00000000000E+00 0.  1.
         21    1    1    2  503  502  0.10856805745E+02 -0.17115086090E+02  0.21537491091E+02  0.29574650046E+02  0.00000000000E+00 0. -1.
          1    1    1    2  501    0 -0.26775982493E+02 -0.56581476993E+02 -0.13207951873E+03  0.14616229351E+03  0.00000000000E+00 0. -1.
<scales pt_clust_5="13000.00000" pt_clust_6="13000.00000" pt_clust_7="13000.00000" pt_clust_8="13000.00000" pt_clust_9="20.26811" pt_clust_10="13000.00000"></scales>
<clustering>
<clus scale="   20.268">  1  9  2 -1</clus>
<clus scale="   80.887">  5  6 -1 -1</clus>
<clus scale="   81.282">  2  5  1 -1</clus>
<clus scale="   91.139">  7  8 -1 -1</clus>
<clus scale="   62.742">  7 10 -1 -1</clus>
<clus scale="   20.268">  1  5  2 -1</clus>
</clustering>
</event>
<event>
10    4  0.7508634E-005  0.3083029E+03  0.7546771E-02  0.1103802E+00
          2   -1    0    0  503    0 -0.00000000000E+00  0.00000000000E+00  0.25228601608E+03  0.25228601608E+03  0.00000000000E+00 0. -1.
         21   -1    0    0  501  502  0.00000000000E+00 -0.00000000000E+00 -0.40435408534E+03  0.40435408534E+03  0.00000000000E+00 0.  1.
         24    2    1    2    0    0  0.15227698701E+03 -0.92120899676E+01  0.12519362857E+03  0.21329192500E+03  0.80912652048E+02 0.  0.
         23    2    1    2    0    0 -0.13449045051E+03  0.17415073691E+02 -0.25214991311E+03  0.30207136435E+03  0.96314923070E+02 0.  0.
        -13    1    3    3    0    0  0.61919787364E+02  0.33255964245E+02  0.34018012981E+02  0.78084854052E+02  0.00000000000E+00 0.  1.
         14    1    3    3    0    0  0.90357199646E+02 -0.42468054213E+02  0.91175615589E+02  0.13520707095E+03  0.00000000000E+00 0. -1.
        -13    1    4    4    0    0 -0.13161370414E+03 -0.15715596057E+02 -0.21077437181E+03  0.24898791716E+03  0.00000000000E+00 0.  1.
         13    1    4    4    0    0 -0.28767463666E+01  0.33130669748E+02 -0.41375541299E+02  0.53083447188E+02  0.00000000000E+00 0. -1.
         21    1    1    2  503  502 -0.22096914756E+02  0.23403719781E+02 -0.75253631924E+02  0.81848132899E+02  0.00000000000E+00 0.  1.
          1    1    1    2  501    0  0.43103782578E+01 -0.31606703504E+02  0.50141847210E+02  0.59428679177E+02  0.00000000000E+00 0. -1.
<scales pt_clust_5="13000.00000" pt_clust_6="13000.00000" pt_clust_7="13000.00000" pt_clust_8="13000.00000" pt_clust_9="32.18707" pt_clust_10="13000.00000"></scales>
<clustering>
<clus scale="   32.187">  2  9  1 -1</clus>
<clus scale="   80.913">  5  6 -1 -1</clus>
<clus scale="   96.315">  7  8 -1 -1</clus>
<clus scale="   31.527">  7 10 -1 -1</clus>
<clus scale="  169.914">  1  5  2 -1</clus>
<clus scale="   32.187">  2  5  1 -1</clus>
</clustering>
</event>
<event>
10    4  0.7508634E-005  0.2263176E+03  0.7546771E-02  0.1144466E+00
          2   -1    0    0  503    0 -0.00000000000E+00  0.00000000000E+00  0.35651413393E+03  0.35651413393E+03  0.00000000000E+00 0. -1.
         21   -1    0    0  501  502  0.00000000000E+00 -0.00000000000E+00 -0.26678668271E+03  0.26678668271E+03  0.00000000000E+00 0.  1.
         24    2    1    2    0    0  0.10905486526E+03  0.32924831278E+02 -0.17073617560E+02  0.14043086958E+03  0.80326288109E+02 0.  0.
         23    2    1    2    0    0 -0.56044304156E+02 -0.19598483859E+02  0.37361762156E+02  0.11229352246E+03  0.87686197986E+02 0.  0.
        -13    1    3    3    0    0  0.12160038033E+03  0.32185061800E+02 -0.10439754231E+02  0.12622012189E+03  0.00000000000E+00 0.  1.
         14    1    3    3    0    0 -0.12545515071E+02  0.73976947768E+00 -0.66338633285E+01  0.14210747691E+02  0.00000000000E+00 0. -1.
        -11    1    4    4    0    0 -0.47581845395E+02 -0.51874706928E+02  0.14566527702E+02  0.71883245331E+02  0.00000000000E+00 0.  1.
         11    1    4    4    0    0 -0.84624587607E+01  0.32276223069E+02  0.22795234454E+02  0.40410277129E+02  0.00000000000E+00 0. -1.
         21    1    1    2  503  502  0.68717890577E+01  0.63384097998E+02 -0.13215071419E+03  0.14672619611E+03  0.00000000000E+00 0.  1.
          1    1    1    2  501    0 -0.59882350165E+02 -0.76710445416E+02  0.20159002083E+03  0.22385022849E+03  0.00000000000E+00 0. -1.
<scales pt_clust_5="13000.00000" pt_clust_6="13000.00000" pt_clust_7="13000.00000" pt_clust_8="13000.00000" pt_clust_9="63.75551" pt_clust_10="13000.00000"></scales>
<clustering>
<clus scale="   63.756">  2  9  1 -1</clus>
<clus scale="   80.326">  5  6 -1 -1</clus>
<clus scale="   87.686">  7  8 -1 -1</clus>
<clus scale="   92.626">  7 10 -1 -1</clus>
<clus scale="  156.498">  1  5  2 -1</clus>
<clus scale="   63.756">  2  5  1 -1</clus>
</clustering>
</event>
<event>
10    4  0.7508634E-005  0.1378160E+03  0.7546771E-02  0.1238448E+00
         21   -1    0    0  503  502  0.00000000000E+00  0.00000000000E+00  0.32195920416E+03  0.32195920416E+03  0.00000000000E+00 0. -1.
          2   -1    0    0  502    0 -0.00000000000E+00 -0.00000000000E+00 -0.67352243051E+02  0.67352243051E+02  0.00000000000E+00 0. -1.
         24    2    1    2    0    0  0.32729228860E+02  0.17548399902E+02  0.35808441399E+02  0.96330946759E+02  0.81352677074E+02 0.  0.
         23    2    1    2    0    0 -0.13489858527E+02  0.47555298355E+02  0.57571960316E+02  0.10965643869E+03  0.79161362089E+02 0.  0.
        -13    1    3    3    0    0 -0.19265733178E+02 -0.17956695654E+02  0.12957369408E+02  0.29351402278E+02  0.00000000000E+00 0.  1.
         14    1    3    3    0    0  0.51994962038E+02  0.35505095556E+02  0.22851071991E+02  0.66979544481E+02  0.00000000000E+00 0. -1.
        -13    1    4    4    0    0 -0.44335198592E+02  0.13323666874E+02  0.21028921559E+02  0.50846292638E+02  0.00000000000E+00 0. -1.
         13    1    4    4    0    0  0.30845340065E+02  0.34231631480E+02  0.36543038757E+02  0.58810146056E+02  0.00000000000E+00 0.  1.
         21    1    1    2  503  501 -0.96744450066E+01 -0.23691305993E+02  0.12465030675E+03  0.12725003669E+03  0.00000000000E+00 0. -1.
          1    1    1    2  501    0 -0.95649253263E+01 -0.41412392264E+02  0.36576252650E+02  0.56074025069E+02  0.00000000000E+00 0. -1.
<scales pt_clust_5="13000.00000" pt_clust_6="13000.00000" pt_clust_7="13000.00000" pt_clust_8="13000.00000" pt_clust_9="25.59048" pt_clust_10="13000.00000"></scales>
<clustering>
<clus scale="   25.590">  1  9  2 -1</clus>
<clus scale="   79.161">  7  8 -1 -1</clus>
<clus scale="   48.482">  7 10 -1 -1</clus>
<clus scale="   81.353">  5  6 -1 -1</clus>
<clus scale="   87.052">  2  5  1 -1</clus>
<clus scale="   25.590">  1  5  2 -1</clus>
</clustering>
</event>
<event>
10    4  0.7508634E-005  0.6338359E+03  0.7546771E-02  0.1016493E+00
         21   -1    0    0  501  502  0.00000000000E+00  0.00000000000E+00  0.24642894833E+03  0.24642894833E+03  0.00000000000E+00 0. -1.
          2   -1    0    0  503    0 -0.00000000000E+00 -0.00000000000E+00 -0.10668451076E+04  0.10668451076E+04  0.00000000000E+00 0. -1.
         24    2    1    2    0    0 -0.64458787228E+02  0.21648935292E+03 -0.23266243334E+03  0.33445022154E+03  0.81869210458E+02 0.  0.
         23    2    1    2    0    0 -0.10595486091E+03  0.14143332216E+02 -0.61340120391E+03  0.63464719799E+03  0.12283958061E+03 0.  0.
        -13    1    3    3    0    0 -0.26060599958E+02  0.19759294115E+02 -0.66437320995E+02  0.74050673157E+02  0.00000000000E+00 0.  1.
         14    1    3    3    0    0 -0.38398187270E+02  0.19673005881E+03 -0.16622511235E+03  0.26039954838E+03  0.00000000000E+00 0. -1.
        -11    1    4    4    0    0  0.21276237515E+01 -0.40481202361E+02 -0.12267969041E+03  0.12920356406E+03  0.00000000000E+00 0.  1.
         11    1    4    4    0    0 -0.10808248466E+03  0.54624534577E+02 -0.49072151350E+03  0.50544363393E+03  0.00000000000E+00 0. -1.
         21    1    1    2  503  502 -0.25397994889E+02 -0.64752237133E+02  0.51071172669E+02  0.86291222242E+02  0.00000000000E+00 0. -1.
          1    1    1    2  501    0  0.19581164303E+03 -0.16588044800E+03 -0.25423694683E+02  0.25788541414E+03  0.00000000000E+00 0. -1.
<scales pt_clust_5="13000.00000" pt_clust_6="13000.00000" pt_clust_7="13000.00000" pt_clust_8="13000.00000" pt_clust_9="69.55509" pt_clust_10="13000.00000"></scales>
<clustering>
<clus scale="   69.555">  1  9  2 -1</clus>
<clus scale="   81.869">  5  6 -1 -1</clus>
<clus scale="  122.840">  7  8 -1 -1</clus>
<clus scale="  225.902">  2  5  1 -1</clus>
<clus scale="  232.831">  7 10 -1 -1</clus>
<clus scale="   69.555">  1  5  2 -1</clus>
</clustering>
</event>
<event>
10    4  0.7508634E-005  0.1584318E+03  0.7546771E-02  0.1205781E+00
         21   -1    0    0  503  502  0.00000000000E+00  0.00000000000E+00  0.76414654158E+02  0.76414654158E+02  0.00000000000E+00 0.  1.
          2   -1    0    0  502    0 -0.00000000000E+00 -0.00000000000E+00 -0.64103916914E+03  0.64103916914E+03  0.00000000000E+00 0. -1.
         24    2    1    2    0    0 -0.73440129548E+02 -0.54493499721E+02 -0.34893629866E+03  0.36849271199E+03  0.75281764936E+02 0.  0.
         23    2    1    2    0    0  0.56314107553E+02  0.30724164863E+02 -0.14004287591E+03  0.17833197979E+03  0.89861198002E+02 0.  0.
        -13    1    3    3    0    0 -0.42311809073E+01 -0.32490983276E+02 -0.43031921036E+02  0.54086163796E+02  0.00000000000E+00 0.  1.
         14    1    3    3    0    0 -0.69208948641E+02 -0.22002516445E+02 -0.30590437762E+03  0.31440654820E+03  0.00000000000E+00 0. -1.
        -13    1    4    4    0    0  0.26783321841E+02  0.56776536757E+02 -0.11680736112E+03  0.13260799775E+03  0.00000000000E+00 0.  1.
         13    1    4    4    0    0  0.29530785711E+02 -0.26052371894E+02 -0.23235514788E+02  0.45723982039E+02  0.00000000000E+00 0. -1.
         21    1    1    2  503  501  0.28123674972E+02 -0.26196982758E+01  0.41414108600E+02  0.50129156228E+02  0.00000000000E+00 0.  1.
          1    1    1    2  501    0 -0.10997652977E+02  0.26389033133E+02 -0.11705944901E+03  0.12049997529E+03  0.00000000000E+00 0. -1.
<scales pt_clust_5="13000.00000" pt_clust_6="13000.00000" pt_clust_7="13000.00000" pt_clust_8="13000.00000" pt_clust_9="28.24542" pt_clust_10="13000.00000"></scales>
<clustering>
<clus scale="   28.245">  1  9  2 -1</clus>
<clus scale="   75.282">  5  6 -1 -1</clus>
<clus scale="   89.861">  7  8 -1 -1</clus>
<clus scale="   27.881">  7 10 -1 -1</clus>
<clus scale="  113.510">  2  5  1 -1</clus>
<clus scale="   28.245">  1  5  2 -1</clus>
</clustering>
</event>
<event>
10    4  0.7508634E-005  0.6355523E+03  0.7546771E-02  0.1009054E+00
         21   -1    0    0  503  502  0.00000000000E+00  0.00000000000E+00  0.19709998562E+03  0.19709998562E+03  0.00000000000E+00 0. -1.
          2   -1    0    0  502    0 -0.00000000000E+00 -0.00000000000E+00 -0.21571283145E+04  0.21571283145E+04  0.00000000000E+00 0. -1.
         24    2    1    2    0    0 -0.12108781296E+03 -0.23644729582E+03 -0.12289599796E+04  0.12595434438E+04  0.74414200486E+02 0.  0.
         23    2    1    2    0    0 -0.14108135032E+03  0.49209915490E+02 -0.22352226536E+02  0.17596119595E+03  0.90206193028E+02 0.  0.
        -13    1    3    3    0    0  0.51488093659E+01 -0.33920548411E+02 -0.10277512521E+03  0.10835054317E+03  0.00000000000E+00 0.  1.
         14    1    3    3    0    0 -0.12623662233E+03 -0.20252674741E+03 -0.11261848544E+04  0.11511929006E+04  0.00000000000E+00 0. -1.
        -11    1    4    4    0    0 -0.85012999531E+02 -0.14796065683E+02  0.53983758497E+01  0.86459679104E+02  0.00000000000E+00 0. -1.
         11    1    4    4    0    0 -0.56068350786E+02  0.64005981172E+02 -0.27750602386E+02  0.89501516850E+02  0.00000000000E+00 0.  1.
         21    1    1    2  503  501 -0.26181519668E+02 -0.45321053466E+02  0.51265625992E+02  0.73264140395E+02  0.00000000000E+00 0. -1.
          1    1    1    2  501    0  0.28835068295E+03  0.23255843380E+03 -0.75998174873E+03  0.84545951996E+03  0.00000000000E+00 0. -1.
<scales pt_clust_5="13000.00000" pt_clust_6="13000.00000" pt_clust_7="13000.00000" pt_clust_8="13000.00000" pt_clust_9="52.33995" pt_clust_10="13000.00000"></scales>
<clustering>
<clus scale="   52.340">  1  9  2 -1</clus>
<clus scale="   74.414">  5  6 -1 -1</clus>
<clus scale="   90.206">  7  8 -1 -1</clus>
<clus scale="  281.588">  2  5  1 -1</clus>
<clus scale="  173.361">  7 10 -1 -1</clus>
<clus scale="   52.340">  1  5  2 -1</clus>
</clustering>
</event>
<event>
10    4  0.7508634E-005  0.1780613E+03  0.7546771E-02  0.1192655E+00
          2   -1    0    0  503    0 -0.00000000000E+00  0.00000000000E+00  0.49025577492E+03  0.49025577492E+03  0.00000000000E+00 0. -1.
         21   -1    0    0  501  502  0.00000000000E+00 -0.00000000000E+00 -0.72765780648E+02  0.72765780648E+02  0.00000000000E+00 0. -1.
         24    2    1    2    0    0 -0.12426883198E+02  0.83644460571E+02  0.11980264472E+03  0.16621207651E+03  0.78249328989E+02 0.  0.
         23    2    1    2    0    0  0.14375254935E+02 -0.73012495050E+01  0.96852843757E+02  0.13428212004E+03  0.91603811164E+02 0.  0.
        -13    1    3    3    0    0 -0.39756128160E+02  0.31641524621E+02  0.81631901494E+02  0.96153539447E+02  0.00000000000E+00 0.  1.
         14    1    3    3    0    0  0.27329244962E+02  0.52002935950E+02  0.38170743222E+02  0.70058537065E+02  0.00000000000E+00 0. -1.
        -11    1    4    4    0    0 -0.11547708473E+02  0.31958355519E+02  0.75142069910E+02  0.82468277106E+02  0.00000000000E+00 0. -1.
         11    1    4    4    0    0  0.25922963408E+02 -0.39259605024E+02  0.21710773847E+02  0.51813842934E+02  0.00000000000E+00 0.  1.
         21    1    1    2  503  502  0.14136617213E+02 -0.23016539009E+02 -0.20742539426E+02  0.34056687390E+02  0.00000000000E+00 0. -1.
          1    1    1    2  501    0 -0.16084988950E+02 -0.53326672057E+02  0.22157704523E+03  0.22847067163E+03  0.00000000000E+00 0. -1.
<scales pt_clust_5="13000.00000" pt_clust_6="13000.00000" pt_clust_7="13000.00000" pt_clust_8="13000.00000" pt_clust_9="27.01120" pt_clust_10="13000.00000"></scales>
<clustering>
<clus scale="   27.011">  2  9  1 -1</clus>
<clus scale="   78.249">  5  6 -1 -1</clus>
<clus scale="   91.604">  7  8 -1 -1</clus>
<clus scale="   57.084">  7 10 -1 -1</clus>
<clus scale="  106.374">  1  5  2 -1</clus>
<clus scale="   27.011">  2  5  1 -1</clus>
</clustering>
</event>
<event>
10    4  0.1988797E-004  0.2236308E+03  0.7546771E-02  0.1166712E+00
         21   -1    0    0  501  502  0.00000000000E+00  0.00000000000E+00  0.15806614030E+03  0.15806614030E+03  0.00000000000E+00 0.  1.
          2   -1    0    0  503    0 -0.00000000000E+00 -0.00000000000E+00 -0.61556324289E+03  0.61556324289E+03  0.00000000000E+00 0. -1.
         24    2    1    2    0    0 -0.41829831744E+02 -0.40069429657E+02 -0.75899321646E+02  0.12846474019E+03  0.85948754672E+02 0.  0.
         23    2    1    2    0    0  0.15841798670E+02  0.28992498284E+02 -0.49630574134E+03  0.50564941794E+03  0.90941835446E+02 0.  0.
        -13    1    3    3    0    0  0.12247441767E+02 -0.42574365969E+02 -0.14512409896E+02  0.46617448542E+02  0.00000000000E+00 0.  1.
         14    1    3    3    0    0 -0.54077273512E+02  0.25049363126E+01 -0.61386911750E+02  0.81847291651E+02  0.00000000000E+00 0. -1.
        -13    1    4    4    0    0 -0.49460908482E+01 -0.31255149537E+02 -0.12688933724E+03  0.13077557912E+03  0.00000000000E+00 0.  1.
         13    1    4    4    0    0  0.20787889518E+02  0.60247647821E+02 -0.36941640410E+03  0.37487383882E+03  0.00000000000E+00 0. -1.
         21    1    1    2  503  502  0.96211023841E+01  0.33039007185E+02  0.10493620747E+03  0.11043436624E+03  0.00000000000E+00 0.  1.
          1    1    1    2  501    0  0.16366930690E+02 -0.21962075812E+02  0.97717529234E+01  0.29080858815E+02  0.00000000000E+00 0. -1.
<scales pt_clust_5="13000.00000" pt_clust_6="13000.00000" pt_clust_7="13000.00000" pt_clust_8="13000.00000" pt_clust_9="34.41136" pt_clust_10="13000.00000"></scales>
<clustering>
<clus scale="   34.411">  1  9  2 -1</clus>
<clus scale="   85.949">  5  6 -1 -1</clus>
<clus scale="   90.942">  7  8 -1 -1</clus>
<clus scale="   22.094">  7 10 -1 -1</clus>
<clus scale="   96.248">  2  5  1 -1</clus>
<clus scale="   34.411">  1  5  2 -1</clus>
</clustering>
</event>
<event>
10    4  0.7508634E-005  0.3469476E+03  0.7546771E-02  0.1101849E+00
         21   -1    0    0  503  502  0.00000000000E+00  0.00000000000E+00  0.22527572958E+03  0.22527572958E+03  0.00000000000E+00 0.  1.
          2   -1    0    0  502    0 -0.00000000000E+00 -0.00000000000E+00 -0.37495808600E+03  0.37495808600E+03  0.00000000000E+00 0. -1.
         24    2    1    2    0    0 -0.30149415284E+01 -0.93610345795E+02 -0.15789342825E+03  0.20165660463E+03  0.83444980638E+02 0.  0.
         23    2    1    2    0    0  0.90843384733E+02  0.13088247612E+03  0.89573293621E+02  0.20351413495E+03  0.89509134106E+02 0.  0.
        -11    1    3    3    0    0  0.34530460997E+02 -0.42566963680E+02 -0.40142377261E+02  0.67939013724E+02  0.00000000000E+00 0.  1.
         12    1    3    3    0    0 -0.37545402526E+02 -0.51043382115E+02 -0.11775105099E+03  0.13371759090E+03  0.00000000000E+00 0. -1.
        -11    1    4    4    0    0  0.38361637746E+02  0.64682252137E+02  0.92216956778E+02  0.11899317674E+03  0.00000000000E+00 0.  1.
         11    1    4    4    0    0  0.52481746986E+02  0.66200223987E+02 -0.26436631573E+01  0.84520958215E+02  0.00000000000E+00 0. -1.
         21    1    1    2  503  501 -0.23276250143E+02  0.16359537620E+01  0.43415291063E+02  0.49288413075E+02  0.00000000000E+00 0.  1.
          1    1    1    2  501    0 -0.64552193062E+02 -0.38908084090E+02 -0.12477751286E+03  0.14577466293E+03  0.00000000000E+00 0. -1.
<scales pt_clust_5="13000.00000" pt_clust_6="13000.00000" pt_clust_7="13000.00000" pt_clust_8="13000.00000" pt_clust_9="23.33367" pt_clust_10="13000.00000"></scales>
<clustering>
<clus scale="   23.334">  1  9  2 -1</clus>
<clus scale="   83.445">  5  6 -1 -1</clus>
<clus scale="   89.509">  7  8 -1 -1</clus>
<clus scale="   76.495">  7 10 -1 -1</clus>
<clus scale="  125.391">  2  5  1 -1</clus>
<clus scale="   23.334">  1  5  2 -1</clus>
</clustering>
</event>
<event>
10    4  0.7508634E-005  0.3629183E+03  0.7546771E-02  0.1103481E+00
         -1   -1    0    0    0  501 -0.00000000000E+00  0.00000000000E+00  0.14847240870E+04  0.14847240870E+04  0.00000000000E+00 0.  1.
         21   -1    0    0  503  502  0.00000000000E+00 -0.00000000000E+00 -0.59047601573E+02  0.59047601573E+02  0.00000000000E+00 0.  1.
         24    2    1    2    0    0  0.60311388279E+02 -0.36517801200E+02  0.42716571961E+03  0.44060707723E+03  0.81810947536E+02 0.  0.
         23    2    1    2    0    0  0.79104833040E+02  0.55760709460E+02  0.14029245526E+03  0.19326668923E+03  0.91121944849E+02 0.  0.
        -13    1    3    3    0    0  0.53429220624E+01 -0.49889996122E+02  0.16767396823E+03  0.17502033640E+03  0.00000000000E+00 0.  1.
         14    1    3    3    0    0  0.54968466216E+02  0.13372194922E+02  0.25949175138E+03  0.26558674084E+03  0.00000000000E+00 0. -1.
        -13    1    4    4    0    0  0.37970668045E+02  0.26770376276E+01  0.11561559497E+03  0.12172059794E+03  0.00000000000E+00 0. -1.
         13    1    4    4    0    0  0.41134164995E+02  0.53083671833E+02  0.24676860289E+02  0.71546091289E+02  0.00000000000E+00 0.  1.
         21    1    1    2  503  501 -0.19141726691E+02  0.18750387752E+02 -0.12869512879E+02  0.29725529487E+02  0.00000000000E+00 0.  1.
         -2    1    1    2    0  502 -0.12027449463E+03 -0.37993296013E+02  0.87108782341E+03  0.88017239260E+03  0.00000000000E+00 0.  1.
<scales pt_clust_5="13000.00000" pt_clust_6="13000.00000" pt_clust_7="13000.00000" pt_clust_8="13000.00000" pt_clust_9="26.79520" pt_clust_10="13000.00000"></scales>
<clustering>
<clus scale="   26.795">  2  9  1 -1</clus>
<clus scale="   81.811">  5  6 -1 -1</clus>
<clus scale="   91.122">  7  8 -1 -1</clus>
<clus scale="  105.033">  1  5  2 -1</clus>
<clus scale="   98.213">  7 10 -1 -1</clus>
<clus scale="   26.795">  2  5  1 -1</clus>
</clustering>
</event>
<event>
10    4  0.7508634E-005  0.1296916E+04  0.7546771E-02  0.9630230E-01
          2   -1    0    0  503    0 -0.00000000000E+00  0.00000000000E+00  0.33583415760E+04  0.33583415760E+04  0.00000000000E+00 0. -1.
         21   -1    0    0  501  502  0.00000000000E+00 -0.00000000000E+00 -0.25763508750E+03  0.25763508750E+03  0.00000000000E+00 0. -1.
         24    2    1    2    0    0  0.11744645563E+03 -0.30880543927E+02  0.35534449141E+03  0.38430452908E+03  0.81688344095E+02 0.  0.
         23    2    1    2    0    0  0.19492859191E+03  0.15096387194E+03  0.30997148057E+01  0.26252718567E+03  0.90131395248E+02 0.  0.
        -13    1    3    3    0    0  0.92128148542E+02 -0.18359707114E+02  0.33877451022E+03  0.35155773832E+03  0.00000000000E+00 0.  1.
         14    1    3    3    0    0  0.25318307087E+02 -0.12520836812E+02  0.16569981193E+02  0.32746790758E+02  0.00000000000E+00 0. -1.
        -11    1    4    4    0    0  0.19945700971E+03  0.13053403084E+03  0.14280992551E+02  0.23880154664E+03  0.00000000000E+00 0. -1.
         11    1    4    4    0    0 -0.45284178052E+01  0.20429841100E+02 -0.11181277745E+02  0.23725639026E+02  0.00000000000E+00 0.  1.
         21    1    1    2  503  502  0.21281550445E+02  0.18786154904E+02 -0.10002408192E+03  0.10397423224E+03  0.00000000000E+00 0. -1.
          1    1    1    2  501    0 -0.33365659798E+03 -0.13886948291E+03  0.28422863642E+04  0.28651707165E+04  0.00000000000E+00 0. -1.
<scales pt_clust_5="13000.00000" pt_clust_6="13000.00000" pt_clust_7="13000.00000" pt_clust_8="13000.00000" pt_clust_9="28.38704" pt_clust_10="13000.00000"></scales>
<clustering>
<clus scale="   28.387">  2  9  1 -1</clus>
<clus scale="   81.688">  5  6 -1 -1</clus>
<clus scale="   90.131">  7  8 -1 -1</clus>
<clus scale="  147.595">  1  5  2 -1</clus>
<clus scale="  274.272">  7 10 -1 -1</clus>
<clus scale="   28.387">  2  5  1 -1</clus>
</clustering>
</event>
<event>
10    4  0.7508634E-005  0.9208709E+03  0.7546771E-02  0.9762182E-01
         21   -1    0    0  501  502  0.00000000000E+00  0.00000000000E+00  0.32822269418E+03  0.32822269418E+03  0.00000000000E+00 0. -1.
          2   -1    0    0  503    0 -0.00000000000E+00 -0.00000000000E+00 -0.14628461747E+04  0.14628461747E+04  0.00000000000E+00 0. -1.
         24    2    1    2    0    0  0.25108079345E+03 -0.23341420271E+02 -0.58593903892E+03  0.64307522670E+03  0.81454300866E+02 0.  0.
         23    2    1    2    0    0  0.16995012381E+03 -0.17137044828E+03 -0.47329220994E+03  0.53838163460E+03  0.87168763680E+02 0.  0.
        -13    1    3    3    0    0  0.16067258480E+03 -0.28526581813E+02 -0.28071033766E+03  0.32469637979E+03  0.00000000000E+00 0.  1.
         14    1    3    3    0    0  0.90408208643E+02  0.51851615420E+01 -0.30522870126E+03  0.31837884692E+03  0.00000000000E+00 0. -1.
        -11    1    4    4    0    0  0.11076746860E+03 -0.13994151300E+03 -0.26435602126E+03  0.31896263909E+03  0.00000000000E+00 0. -1.
         11    1    4    4    0    0  0.59182655212E+02 -0.31428935280E+02 -0.20893618868E+03  0.21941899551E+03  0.00000000000E+00 0.  1.
         21    1    1    2  503  502 -0.10280674266E+02 -0.72484093015E+02 -0.94125418484E+02  0.11924441458E+03  0.00000000000E+00 0. -1.
          1    1    1    2  501    0 -0.41075024299E+03  0.26719596157E+03  0.18733186787E+02  0.49036759302E+03  0.00000000000E+00 0. -1.
<scales pt_clust_5="13000.00000" pt_clust_6="13000.00000" pt_clust_7="13000.00000" pt_clust_8="13000.00000" pt_clust_9="73.20957" pt_clust_10="13000.00000"></scales>
<clustering>
<clus scale="   73.210">  1  9  2 -1</clus>
<clus scale="   81.454">  5  6 -1 -1</clus>
<clus scale="   87.169">  7  8 -1 -1</clus>
<clus scale="  264.772">  2  5  1 -1</clus>
<clus scale="  388.439">  7 10 -1 -1</clus>
<clus scale="   73.210">  1  5  2 -1</clus>
</clustering>
</event>
<event>
10    4  0.7508634E-005  0.3205832E+03  0.7546771E-02  0.1085630E+00
          2   -1    0    0  503    0 -0.00000000000E+00  0.00000000000E+00  0.50904071135E+03  0.50904071135E+03  0.00000000000E+00 0. -1.
         21   -1    0    0  501  502  0.00000000000E+00 -0.00000000000E+00 -0.35950192924E+03  0.35950192924E+03  0.00000000000E+00 0.  1.
         24    2    1    2    0    0 -0.98465569360E+02  0.17429555257E+03 -0.74421575191E+02  0.22796868029E+03  0.79729168724E+02 0.  0.
         23    2    1    2    0    0 -0.13277916942E+02 -0.35193346392E+02  0.95798689789E+02  0.13871995306E+03  0.93010546199E+02 0.  0.
        -11    1    3    3    0    0 -0.97449479391E+02  0.15349212646E+03 -0.37594702146E+02  0.18565989214E+03  0.00000000000E+00 0.  1.
         12    1    3    3    0    0 -0.10160899687E+01  0.20803426102E+02 -0.36826873045E+02  0.42308788150E+02  0.00000000000E+00 0. -1.
        -13    1    4    4    0    0 -0.38313423224E+02 -0.55014136840E+02  0.75081103626E+02  0.10065607668E+03  0.00000000000E+00 0.  1.
         13    1    4    4    0    0  0.25035506282E+02  0.19820790448E+02  0.20717586163E+02  0.38063876382E+02  0.00000000000E+00 0. -1.
         21    1    1    2  503  502 -0.68369055316E+02  0.42219039940E+01 -0.13551465137E+03  0.15184325119E+03  0.00000000000E+00 0.  1.
          1    1    1    2  501    0  0.18011254162E+03 -0.14332411017E+03  0.26367631889E+03  0.35001075604E+03  0.00000000000E+00 0. -1.
<scales pt_clust_5="13000.00000" pt_clust_6="13000.00000" pt_clust_7="13000.00000" pt_clust_8="13000.00000" pt_clust_9="68.49929" pt_clust_10="13000.00000"></scales>
<clustering>
<clus scale="   68.499">  2  9  1 -1</clus>
<clus scale="   79.729">  5  6 -1 -1</clus>
<clus scale="   93.011">  7  8 -1 -1</clus>
<clus scale="  219.094">  7 10 -1 -1</clus>
<clus scale="  243.305">  1  5  2 -1</clus>
<clus scale="   68.499">  2  5  1 -1</clus>
</clustering>
</event>
<event>
10    4  0.7508634E-005  0.1225632E+03  0.7546771E-02  0.1258956E+00
         -1   -1    0    0    0  501 -0.00000000000E+00  0.00000000000E+00  0.39379556557E+03  0.39379556557E+03  0.00000000000E+00 0.  1.
         21   -1    0    0  501  502  0.00000000000E+00 -0.00000000000E+00 -0.17445520164E+03  0.17445520164E+03  0.00000000000E+00 0.  1.
         24    2    1    2    0    0 -0.98644108958E+01 -0.33643668996E+02  0.76340231098E+02  0.11634024642E+03  0.80486141580E+02 0.  0.
         23    2    1    2    0    0  0.25056192135E+02 -0.36138021614E+02  0.22693653310E+03  0.24869089909E+03  0.91723518586E+02 0.  0.
        -13    1    3    3    0    0  0.33458939384E+02 -0.93480963922E+00  0.30709381045E+02  0.45425109553E+02  0.00000000000E+00 0.  1.
         14    1    3    3    0    0 -0.43323350279E+02 -0.32708859357E+02  0.45630850053E+02  0.70915136864E+02  0.00000000000E+00 0. -1.
        -11    1    4    4    0    0  0.56711918886E+02 -0.32417798312E+02  0.18374994644E+03  0.19501589220E+03  0.00000000000E+00 0. -1.
         11    1    4    4    0    0 -0.31655726751E+02 -0.37202233018E+01  0.43186586661E+02  0.53675006893E+02  0.00000000000E+00 0.  1.
         21    1    1    2  503  502 -0.93687192920E+01  0.48427269723E+02 -0.13706209274E+03  0.14566739724E+03  0.00000000000E+00 0.  1.
         -2    1    1    2    0  503 -0.58230619468E+01  0.21354420887E+02  0.53125692461E+02  0.57552224469E+02  0.00000000000E+00 0.  1.
<scales pt_clust_5="13000.00000" pt_clust_6="13000.00000" pt_clust_7="13000.00000" pt_clust_8="13000.00000" pt_clust_9="49.32518" pt_clust_10="13000.00000"></scales>
<clustering>
<clus scale="   49.325">  2  9  1 -1</clus>
<clus scale="   80.486">  5  6 -1 -1</clus>
<clus scale="   82.087">  1  5  2 -1</clus>
<clus scale="   91.724">  7  8 -1 -1</clus>
<clus scale="   25.676">  7 10 -1 -1</clus>
<clus scale="   49.325">  2  5  1 -1</clus>
</clustering>
</event>
<event>
10    4  0.7508634E-005  0.3729910E+03  0.7546771E-02  0.1102461E+00
         -1   -1    0    0    0  501 -0.00000000000E+00  0.00000000000E+00  0.12563079840E+03  0.12563079840E+03  0.00000000000E+00 0.  1.
         21   -1    0    0  501  502  0.00000000000E+00 -0.00000000000E+00 -0.53910618570E+03  0.53910618570E+03  0.00000000000E+00 0.  1.
         24    2    1    2    0    0  0.15651814641E+02 -0.63413083360E+02 -0.12088965798E+03  0.15923591025E+03  0.80470909425E+02 0.  0.
         23    2    1    2    0    0 -0.18782399251E+02  0.15464473324E+03 -0.29881103395E+03  0.34814498442E+03  0.87459271224E+02 0.  0.
        -11    1    3    3    0    0  0.23397410161E+02 -0.80187244252E+02 -0.86819677575E+02  0.12047858464E+03  0.00000000000E+00 0.  1.
         12    1    3    3    0    0 -0.77455955193E+01  0.16774160891E+02 -0.34069980402E+02  0.38757325606E+02  0.00000000000E+00 0. -1.
        -13    1    4    4    0    0  0.26650917895E+02  0.71799984965E+02 -0.85153671743E+02  0.11452797508E+03  0.00000000000E+00 0.  1.
         13    1    4    4    0    0 -0.45433317146E+02  0.82844748275E+02 -0.21365736221E+03  0.23361700933E+03  0.00000000000E+00 0. -1.
         21    1    1    2  503  502 -0.31634411114E+02  0.20575515102E+02 -0.10277259225E+02  0.39111505283E+02  0.00000000000E+00 0.  1.
         -2    1    1    2    0  503  0.34764995724E+02 -0.11180716498E+03  0.16502563858E+02  0.11824458416E+03  0.00000000000E+00 0.  1.
<scales pt_clust_5="13000.00000" pt_clust_6="13000.00000" pt_clust_7="13000.00000" pt_clust_8="13000.00000" pt_clust_9="37.73711" pt_clust_10="13000.00000"></scales>
<clustering>
<clus scale="   37.737">  2  9  1 -1</clus>
<clus scale="   80.471">  5  6 -1 -1</clus>
<clus scale="   87.459">  7  8 -1 -1</clus>
<clus scale="   99.334">  1  5  2 -1</clus>
<clus scale="  151.363">  7 10 -1 -1</clus>
<clus scale="   37.737">  2  5  1 -1</clus>
</clustering>
</event>
<event>
10    4  0.7508634E-005  0.3599636E+03  0.7546771E-02  0.1073540E+00
         21   -1    0    0  503  502  0.00000000000E+00  0.00000000000E+00  0.16732894501E+03  0.16732894501E+03  0.00000000000E+00 0.  1.
          2   -1    0    0  502    0 -0.00000000000E+00 -0.00000000000E+00 -0.61052985305E+03  0.61052985305E+03  0.00000000000E+00 0. -1.
         24    2    1    2    0    0  0.18933315288E+03  0.14094335962E+03 -0.16073985720E+03  0.29660366731E+03  0.80152107690E+02 0.  0.
         23    2    1    2    0    0 -0.33571549956E+02  0.26636145853E+02 -0.21455587405E+03  0.23506797584E+03  0.85942986591E+02 0.  0.
        -11    1    3    3    0    0  0.14951843204E+03  0.14085546998E+03 -0.11302149846E+03  0.23445657179E+03  0.00000000000E+00 0.  1.
         12    1    3    3    0    0  0.39814720841E+02  0.87889641685E-01 -0.47718358739E+02  0.62147095515E+02  0.00000000000E+00 0. -1.
        -11    1    4    4    0    0  0.24815638736E+02  0.17646282683E+02 -0.11807180843E+03  0.12193506126E+03  0.00000000000E+00 0.  1.
         11    1    4    4    0    0 -0.58387188692E+02  0.89898631698E+01 -0.96484065624E+02  0.11313291459E+03  0.00000000000E+00 0. -1.
         21    1    1    2  503  501 -0.28210821969E+02 -0.65491007792E+01  0.24071322237E+01  0.29060892669E+02  0.00000000000E+00 0.  1.
          1    1    1    2  501    0 -0.12755078095E+03 -0.16103040470E+03 -0.70312309004E+02  0.21712626224E+03  0.00000000000E+00 0. -1.
<scales pt_clust_5="13000.00000" pt_clust_6="13000.00000" pt_clust_7="13000.00000" pt_clust_8="13000.00000" pt_clust_9="28.96103" pt_clust_10="13000.00000"></scales>
<clustering>
<clus scale="   28.961">  1  9  2 -1</clus>
<clus scale="   80.152">  5  6 -1 -1</clus>
<clus scale="   85.943">  7  8 -1 -1</clus>
<clus scale="  216.571">  7 10 -1 -1</clus>
<clus scale="  238.098">  2  5  1 -1</clus>
<clus scale="   28.961">  1  5  2 -1</clus>
</clustering>
</event>
<event>
10    4  0.7508634E-005  0.2241457E+03  0.7546771E-02  0.1147114E+00
         21   -1    0    0  501  502  0.00000000000E+00  0.00000000000E+00  0.16716551493E+03  0.16716551493E+03  0.00000000000E+00 0. -1.
          2   -1    0    0  503    0 -0.00000000000E+00 -0.00000000000E+00 -0.79975775239E+03  0.79975775239E+03  0.00000000000E+00 0. -1.
         24    2    1    2    0    0 -0.14208732014E+03  0.82128407255E+02  0.85203937496E+02  0.20194538518E+03  0.81168625772E+02 0.  0.
         23    2    1    2    0    0  0.89717304663E+02  0.61516808554E+00 -0.23973481502E+03  0.27165358271E+03  0.90957760966E+02 0.  0.
        -13    1    3    3    0    0 -0.16740629804E+02  0.51270263158E+02  0.27620449825E+02  0.60595196337E+02  0.00000000000E+00 0.  1.
         14    1    3    3    0    0 -0.12534669033E+03  0.30858144097E+02  0.57583487672E+02  0.14135018884E+03  0.00000000000E+00 0. -1.
        -13    1    4    4    0    0  0.62926143807E+02  0.75156824432E+01 -0.23523802621E+03  0.24362494543E+03  0.00000000000E+00 0. -1.
         13    1    4    4    0    0  0.26791160856E+02 -0.69005143576E+01 -0.44967888033E+01  0.28028637283E+02  0.00000000000E+00 0.  1.
         21    1    1    2  503  502  0.40152479232E+02 -0.13720083283E+02 -0.97078969596E+02  0.10594710289E+03  0.00000000000E+00 0.  1.
          1    1    1    2  501    0  0.12217536240E+02 -0.69023492058E+02 -0.38098239034E+03  0.38737719653E+03  0.00000000000E+00 0. -1.
<scales pt_clust_5="13000.00000" pt_clust_6="13000.00000" pt_clust_7="13000.00000" pt_clust_8="13000.00000" pt_clust_9="42.43188" pt_clust_10="13000.00000"></scales>
<clustering>
<clus scale="   42.432">  1  9  2 -1</clus>
<clus scale="   81.169">  5  6 -1 -1</clus>
<clus scale="   90.958">  7  8 -1 -1</clus>
<clus scale="   70.503">  7 10 -1 -1</clus>
<clus scale="  151.223">  2  5  1 -1</clus>
<clus scale="   42.432">  1  5  2 -1</clus>
</clustering>
</event>
<event>
10    4  0.7508634E-005  0.2276468E+03  0.7546771E-02  0.1163382E+00
          2   -1    0    0  502    0 -0.00000000000E+00  0.00000000000E+00  0.99200108794E+03  0.99200108794E+03  0.00000000000E+00 0. -1.
         21   -1    0    0  503  502  0.00000000000E+00 -0.00000000000E+00 -0.61314765123E+02  0.61314765123E+02  0.00000000000E+00 0. -1.
         24    2    1    2    0    0 -0.66189090488E+02  0.15078159001E+02  0.69643663044E+03  0.70331512256E+03  0.70850792695E+02 0.  0.
         23    2    1    2    0    0  0.19560712796E+02  0.47213221814E+02  0.18660352486E+03  0.21342422014E+03  0.90096128948E+02 0.  0.
        -11    1    3    3    0    0 -0.37434524845E+02 -0.87328529295E+01  0.12783799069E+03  0.13349216544E+03  0.00000000000E+00 0.  1.
         12    1    3    3    0    0 -0.28754565643E+02  0.23811011931E+02  0.56859863974E+03  0.56982295711E+03  0.00000000000E+00 0. -1.
        -11    1    4    4    0    0  0.32652186228E+02 -0.17822873380E+02  0.64195412194E+02  0.74194818065E+02  0.00000000000E+00 0.  1.
         11    1    4    4    0    0 -0.13091473431E+02  0.65036095194E+02  0.12240811267E+03  0.13922940207E+03  0.00000000000E+00 0. -1.
         21    1    1    2  503  501 -0.29175035899E+01  0.26267508700E+02  0.11945285431E+02  0.29003166801E+02  0.00000000000E+00 0. -1.
          1    1    1    2  501    0  0.49545881282E+02 -0.88558889515E+02  0.35700882088E+02  0.10757334357E+03  0.00000000000E+00 0. -1.
<scales pt_clust_5="13000.00000" pt_clust_6="13000.00000" pt_clust_7="13000.00000" pt_clust_8="13000.00000" pt_clust_9="26.42903" pt_clust_10="13000.00000"></scales>
<clustering>
<clus scale="   26.429">  2  9  1 -1</clus>
<clus scale="   70.851">  5  6 -1 -1</clus>
<clus scale="   90.096">  7  8 -1 -1</clus>
<clus scale="   85.188">  7 10 -1 -1</clus>
<clus scale="   98.529">  1  5  2 -1</clus>
<clus scale="   26.429">  2  5  1 -1</clus>
</clustering>
</event>
<event>
10    4  0.7508634E-005  0.1877030E+03  0.7546771E-02  0.1182906E+00
          2   -1    0    0  503    0 -0.00000000000E+00  0.00000000000E+00  0.15459466024E+04  0.15459466024E+04  0.00000000000E+00 0. -1.
         21   -1    0    0  501  502  0.00000000000E+00 -0.00000000000E+00 -0.69941153082E+02  0.69941153082E+02  0.00000000000E+00 0.  1.
         24    2    1    2    0    0 -0.10784862290E+03  0.19284309021E+02  0.87596809090E+03  0.88638795430E+03  0.79751484153E+02 0.  0.
         23    2    1    2    0    0 -0.24348847940E+02  0.30263022287E+02  0.22735316769E+03  0.24772468039E+03  0.90384387506E+02 0.  0.
        -11    1    3    3    0    0 -0.14130902807E+02  0.21256647152E+02  0.62125719480E+02  0.67164964700E+02  0.00000000000E+00 0.  1.
         12    1    3    3    0    0 -0.93717720094E+02 -0.19723381310E+01  0.81384237142E+03  0.81922298960E+03  0.00000000000E+00 0. -1.
        -11    1    4    4    0    0  0.68720505670E+01  0.56289052387E+02  0.11445568073E+03  0.12773325859E+03  0.00000000000E+00 0. -1.
         11    1    4    4    0    0 -0.31220898507E+02 -0.26026030099E+02  0.11289748695E+03  0.11999142180E+03  0.00000000000E+00 0.  1.
         21    1    1    2  503  502  0.95265450116E+02 -0.18537373449E+02 -0.86192559377E+01  0.97434243329E+02  0.00000000000E+00 0.  1.
          1    1    1    2  501    0  0.36932020725E+02 -0.31009957859E+02  0.38130344667E+03  0.38434087746E+03  0.00000000000E+00 0. -1.
<scales pt_clust_5="13000.00000" pt_clust_6="13000.00000" pt_clust_7="13000.00000" pt_clust_8="13000.00000" pt_clust_9="97.05225" pt_clust_10="13000.00000"></scales>
<clustering>
<clus scale="   79.751">  5  6 -1 -1</clus>
<clus scale="   90.384">  7  8 -1 -1</clus>
<clus scale="   48.224">  7 10 -1 -1</clus>
<clus scale="   97.052">  2  9  1 -1</clus>
<clus scale="  112.728">  1  5  2 -1</clus>
<clus scale="   97.052">  2  5  1 -1</clus>
</clustering>
</event>
<event>
10    4  0.7508634E-005  0.4406459E+03  0.7546771E-02  0.1078352E+00
          2   -1    0    0  503    0 -0.00000000000E+00  0.00000000000E+00  0.16552065520E+04  0.16552065520E+04  0.00000000000E+00 0. -1.
         21   -1    0    0  501  502  0.00000000000E+00 -0.00000000000E+00 -0.75052943990E+02  0.75052943990E+02  0.00000000000E+00 0. -1.
         24    2    1    2    0    0 -0.92519668084E+01  0.80342935775E+02  0.48763418848E+03  0.50076045475E+03  0.80208135807E+02 0.  0.
         23    2    1    2    0    0 -0.18610783826E+03  0.72770089808E+02  0.30275553223E+03  0.37360762504E+03  0.89387536964E+02 0.  0.
        -13    1    3    3    0    0  0.23035783199E+02  0.13526850808E+01  0.52647862772E+02  0.57482819338E+02  0.00000000000E+00 0.  1.
         14    1    3    3    0    0 -0.32287750007E+02  0.78990250695E+02  0.43498632571E+03  0.44327763542E+03  0.00000000000E+00 0. -1.
        -13    1    4    4    0    0 -0.11292010932E+03 -0.73720299254E+00  0.13092842967E+03  0.17289808632E+03  0.00000000000E+00 0.  1.
         13    1    4    4    0    0 -0.73187728943E+02  0.73507292801E+02  0.17182710256E+03  0.20070953873E+03  0.00000000000E+00 0. -1.
         21    1    1    2  503  502  0.19305755909E+02 -0.12993677688E+03  0.19449341475E+03  0.23469973707E+03  0.00000000000E+00 0.  1.
          1    1    1    2  501    0  0.17605404916E+03 -0.23176248706E+02  0.59527047254E+03  0.62119167912E+03  0.00000000000E+00 0. -1.
<scales pt_clust_5="13000.00000" pt_clust_6="13000.00000" pt_clust_7="13000.00000" pt_clust_8="13000.00000" pt_clust_9="116.42383" pt_clust_10="13000.00000"></scales>
<clustering>
<clus scale="   80.208">  5  6 -1 -1</clus>
<clus scale="   89.388">  7  8 -1 -1</clus>
<clus scale="  113.903">  1  5  2 -1</clus>
<clus scale="  116.424">  2  9  1 -1</clus>
<clus scale="  176.854">  7 10 -1 -1</clus>
<clus scale="  116.424">  2  5  1 -1</clus>
</clustering>
</event>
<event>
10    4  0.7508634E-005  0.3946925E+03  0.7546771E-02  0.1056798E+00
         21   -1    0    0  503  502  0.00000000000E+00  0.00000000000E+00  0.28764735120E+03  0.28764735120E+03  0.00000000000E+00 0.  1.
          2   -1    0    0  502    0 -0.00000000000E+00 -0.00000000000E+00 -0.12398699286E+04  0.12398699286E+04  0.00000000000E+00 0. -1.
         24    2    1    2    0    0 -0.12698853037E+03  0.26291980542E+03 -0.21315832043E+03  0.37014559497E+03  0.79488244286E+02 0.  0.
         23    2    1    2    0    0 -0.57813860015E+01 -0.44452357987E+02 -0.83362994259E+02  0.13093288989E+03  0.90468758637E+02 0.  0.
        -13    1    3    3    0    0 -0.13623198857E+03  0.22509821855E+03 -0.19294802137E+03  0.32627795153E+03  0.00000000000E+00 0.  1.
         14    1    3    3    0    0  0.92434582012E+01  0.37821586871E+02 -0.20210299064E+02  0.43867643443E+02  0.00000000000E+00 0. -1.
        -13    1    4    4    0    0 -0.28264830125E+02 -0.60027215882E+02 -0.79115124554E+02  0.10325391131E+03  0.00000000000E+00 0. -1.
         13    1    4    4    0    0  0.22483444124E+02  0.15574857895E+02 -0.42478697046E+01  0.27678978578E+02  0.00000000000E+00 0.  1.
         21    1    1    2  503  501 -0.99305692084E+00 -0.27463480345E+02  0.16806884860E+03  0.17030081263E+03  0.00000000000E+00 0.  1.
          1    1    1    2  501    0  0.13376297329E+03 -0.19100396709E+03 -0.82377011132E+03  0.85613798232E+03  0.00000000000E+00 0. -1.
<scales pt_clust_5="13000.00000" pt_clust_6="13000.00000" pt_clust_7="13000.00000" pt_clust_8="13000.00000" pt_clust_9="27.48143" pt_clust_10="13000.00000"></scales>
<clustering>
<clus scale="   27.481">  1  9  2 -1</clus>
<clus scale="   79.488">  5  6 -1 -1</clus>
<clus scale="   90.469">  7  8 -1 -1</clus>
<clus scale="  236.191">  7 10 -1 -1</clus>
<clus scale="  287.230">  2  5  1 -1</clus>
<clus scale="   27.481">  1  5  2 -1</clus>
</clustering>
</event>
<event>
10    4  0.7508634E-005  0.2886781E+03  0.7546771E-02  0.1127470E+00
         21   -1    0    0  503  502  0.00000000000E+00  0.00000000000E+00  0.15700384052E+03  0.15700384052E+03  0.00000000000E+00 0. -1.
          2   -1    0    0  502    0 -0.00000000000E+00 -0.00000000000E+00 -0.13094013607E+04  0.13094013607E+04  0.00000000000E+00 0. -1.
         24    2    1    2    0    0 -0.51990824932E+02  0.62740925316E+02 -0.44214504558E+03  0.45659607098E+03  0.79675975791E+02 0.  0.
         23    2    1    2    0    0 -0.12619169225E+03 -0.39478827587E+02 -0.45478871120E+03  0.48772534089E+03  0.11644876681E+03 0.  0.
        -11    1    3    3    0    0 -0.42323309676E+02  0.37568651058E+02 -0.11330033162E+03  0.12664766571E+03  0.00000000000E+00 0.  1.
         12    1    3    3    0    0 -0.96675152562E+01  0.25172274258E+02 -0.32884471396E+03  0.32994840528E+03  0.00000000000E+00 0. -1.
        -11    1    4    4    0    0  0.20142827455E+02  0.89479335452E+01 -0.55138331887E+02  0.59380423170E+02  0.00000000000E+00 0.  1.
         11    1    4    4    0    0 -0.14633451971E+03 -0.48426761132E+02 -0.39965037931E+03  0.42834491772E+03  0.00000000000E+00 0. -1.
         21    1    1    2  503  501  0.12302908562E+03 -0.78818672392E+02  0.87493968129E+02  0.17030482520E+03  0.00000000000E+00 0. -1.
          1    1    1    2  501    0  0.55153431560E+02  0.55556574663E+02 -0.34295773152E+03  0.35177896414E+03  0.00000000000E+00 0. -1.
<scales pt_clust_5="13000.00000" pt_clust_6="13000.00000" pt_clust_7="13000.00000" pt_clust_8="13000.00000" pt_clust_9="142.37932" pt_clust_10="13000.00000"></scales>
<clustering>
<clus scale="   79.676">  5  6 -1 -1</clus>
<clus scale="  113.964">  2  5  1 -1</clus>
<clus scale="  116.449">  7  8 -1 -1</clus>
<clus scale="   87.812">  7 10 -1 -1</clus>
<clus scale="  142.379">  1  9  2 -1</clus>
<clus scale="  142.379">  1  5  2 -1</clus>
</clustering>
</event>
<event>
10    4  0.7508634E-005  0.2413343E+03  0.7546771E-02  0.1144970E+00
         21   -1    0    0  503  502  0.00000000000E+00  0.00000000000E+00  0.51530316924E+02  0.51530316924E+02  0.00000000000E+00 0. -1.
          2   -1    0    0  502    0 -0.00000000000E+00 -0.00000000000E+00 -0.10928558454E+04  0.10928558454E+04  0.00000000000E+00 0. -1.
         24    2    1    2    0    0  0.37504039393E+02 -0.83839970294E+02 -0.37257569064E+03  0.39206485704E+03  0.80414633467E+02 0.  0.
         23    2    1    2    0    0  0.39657881614E+02 -0.18458052354E+02 -0.31809503903E+03  0.33387535565E+03  0.91514217394E+02 0.  0.
        -11    1    3    3    0    0 -0.10058314846E+02 -0.54318752570E+02 -0.26606578406E+03  0.27174012958E+03  0.00000000000E+00 0.  1.
         12    1    3    3    0    0  0.47562354238E+02 -0.29521217724E+02 -0.10650990658E+03  0.12032472746E+03  0.00000000000E+00 0. -1.
        -13    1    4    4    0    0  0.19871920534E+02  0.26562633188E+02 -0.42432681303E+02  0.53860924148E+02  0.00000000000E+00 0.  1.
         13    1    4    4    0    0  0.19785961081E+02 -0.45020685542E+02 -0.27566235772E+03  0.28001443150E+03  0.00000000000E+00 0. -1.
         21    1    1    2  503  501 -0.25449602529E+02 -0.35148650873E+02 -0.59979962804E+01  0.43807372513E+02  0.00000000000E+00 0. -1.
          1    1    1    2  501    0 -0.51712318478E+02  0.13744667352E+03 -0.34465680253E+03  0.37463857713E+03  0.00000000000E+00 0. -1.
<scales pt_clust_5="13000.00000" pt_clust_6="13000.00000" pt_clust_7="13000.00000" pt_clust_8="13000.00000" pt_clust_9="43.39481" pt_clust_10="13000.00000"></scales>
<clustering>
<clus scale="   43.395">  1  9  2 -1</clus>
<clus scale="   80.415">  5  6 -1 -1</clus>
<clus scale="   91.514">  7  8 -1 -1</clus>
<clus scale="  127.516">  2  5  1 -1</clus>
<clus scale="   89.900">  7 10 -1 -1</clus>
<clus scale="   43.395">  1  5  2 -1</clus>
</clustering>
</event>
<event>
10    4  0.7508634E-005  0.2357117E+03  0.7546771E-02  0.1167820E+00
          2   -1    0    0  503    0 -0.00000000000E+00  0.00000000000E+00  0.68847487310E+03  0.68847487310E+03  0.00000000000E+00 0. -1.
         21   -1    0    0  501  502  0.00000000000E+00 -0.00000000000E+00 -0.17871343096E+03  0.17871343096E+03  0.00000000000E+00 0. -1.
         24    2    1    2    0    0  0.11718670866E+01 -0.10248893301E+00  0.32204001947E+03  0.33185852798E+03  0.80118191905E+02 0.  0.
         23    2    1    2    0    0  0.23846704978E+02  0.16672872904E+02  0.12361953013E+03  0.15665389787E+03  0.91716985672E+02 0.  0.
        -11    1    3    3    0    0 -0.39452598807E+02 -0.37795679603E+00  0.16435113850E+03  0.16902055239E+03  0.00000000000E+00 0.  1.
         12    1    3    3    0    0  0.40624465893E+02  0.27546786303E+00  0.15768888097E+03  0.16283797558E+03  0.00000000000E+00 0. -1.
        -13    1    4    4    0    0 -0.22203945222E+02  0.33096262583E+02  0.26319216501E+02  0.47760642140E+02  0.00000000000E+00 0. -1.
         13    1    4    4    0    0  0.46050650201E+02 -0.16423389678E+02  0.97300313625E+02  0.10889325573E+03  0.00000000000E+00 0.  1.
         21    1    1    2  503  502  0.10181661140E+03  0.42530529485E+02 -0.10966715270E+03  0.15557105347E+03  0.00000000000E+00 0. -1.
          1    1    1    2  501    0 -0.12683518347E+03 -0.59100913456E+02  0.17376904525E+03  0.22310482474E+03  0.00000000000E+00 0. -1.
<scales pt_clust_5="13000.00000" pt_clust_6="13000.00000" pt_clust_7="13000.00000" pt_clust_8="13000.00000" pt_clust_9="110.40865" pt_clust_10="13000.00000"></scales>
<clustering>
<clus scale="   80.118">  5  6 -1 -1</clus>
<clus scale="   80.127">  1  5  2 -1</clus>
<clus scale="   91.717">  7  8 -1 -1</clus>
<clus scale="  110.409">  2  9  1 -1</clus>
<clus scale="   76.842">  7 10 -1 -1</clus>
<clus scale="  110.409">  2  5  1 -1</clus>
</clustering>
</event>
<event>
10    4  0.7508634E-005  0.4629482E+03  0.7546771E-02  0.1064844E+00
         21   -1    0    0  503  502  0.00000000000E+00  0.00000000000E+00  0.59628307600E+03  0.59628307600E+03  0.00000000000E+00 0.  1.
         -1   -1    0    0    0  501 -0.00000000000E+00 -0.00000000000E+00 -0.42874450855E+03  0.42874450855E+03  0.00000000000E+00 0.  1.
         24    2    1    2    0    0 -0.95894873597E+02 -0.65211765359E+02  0.27608059606E+02  0.14481773367E+03  0.82228765690E+02 0.  0.
         23    2    1    2    0    0 -0.16802962786E+03 -0.10836770883E+03 -0.55526360326E+02  0.22722112947E+03  0.92567536597E+02 0.  0.
        -13    1    3    3    0    0 -0.42935777432E+02 -0.63000229975E+00 -0.21404209244E+02  0.47979350350E+02  0.00000000000E+00 0.  1.
         14    1    3    3    0    0 -0.52959096164E+02 -0.64581763060E+02  0.49012268849E+02  0.96838383321E+02  0.00000000000E+00 0. -1.
        -13    1    4    4    0    0 -0.38754717894E+02 -0.40481128615E+02 -0.58719669580E+02  0.81170496663E+02  0.00000000000E+00 0. -1.
         13    1    4    4    0    0 -0.12927490996E+03 -0.67886580218E+02  0.31933092531E+01  0.14605063281E+03  0.00000000000E+00 0.  1.
         21    1    1    2  503  501  0.50527850213E+02  0.18812972021E+03  0.34208750481E+03  0.39366193138E+03  0.00000000000E+00 0.  1.
         -2    1    1    2    0  502  0.21339665124E+03 -0.14550246014E+02 -0.14663063665E+03  0.25932679002E+03  0.00000000000E+00 0.  1.
<scales pt_clust_5="13000.00000" pt_clust_6="13000.00000" pt_clust_7="13000.00000" pt_clust_8="13000.00000" pt_clust_9="188.74998" pt_clust_10="13000.00000"></scales>
<clustering>
<clus scale="   82.229">  5  6 -1 -1</clus>
<clus scale="   92.568">  7  8 -1 -1</clus>
<clus scale="  142.162">  2  5  1 -1</clus>
<clus scale="  168.496">  7 10 -1 -1</clus>
<clus scale="  188.750">  1  9  2 -1</clus>
<clus scale="  188.750">  1  5  2 -1</clus>
</clustering>
</event>
<event>
10    4  0.7508634E-005  0.6974487E+03  0.7546771E-02  0.1002235E+00
          2   -1    0    0  503    0 -0.00000000000E+00  0.00000000000E+00  0.13204639376E+04  0.13204639376E+04  0.00000000000E+00 0. -1.
         21   -1    0    0  501  502  0.00000000000E+00 -0.00000000000E+00 -0.25669269053E+03  0.25669269053E+03  0.00000000000E+00 0.  1.
         24    2    1    2    0    0  0.20052381475E+03 -0.15813715289E+03  0.44242140798E+03  0.51713444866E+03  0.80462266580E+02 0.  0.
         23    2    1    2    0    0 -0.64077768864E+02 -0.24926403135E+03  0.36412109819E+03  0.45457660879E+03  0.88414938360E+02 0.  0.
        -11    1    3    3    0    0  0.10458074072E+03 -0.48558500007E+02  0.25432252725E+03  0.27924005286E+03  0.00000000000E+00 0.  1.
         12    1    3    3    0    0  0.95943074022E+02 -0.10957865288E+03  0.18809888073E+03  0.23789439580E+03  0.00000000000E+00 0. -1.
        -13    1    4    4    0    0  0.18525769531E+02 -0.82534845472E+02  0.92618335664E+02  0.12543269492E+03  0.00000000000E+00 0. -1.
         13    1    4    4    0    0 -0.82603538395E+02 -0.16672918588E+03  0.27150276252E+03  0.32914391387E+03  0.00000000000E+00 0.  1.
         21    1    1    2  503  502 -0.13534540708E+02  0.17431518609E+02 -0.75268420716E+02  0.78437088104E+02  0.00000000000E+00 0. -1.
          1    1    1    2  501    0 -0.12291150517E+03  0.38996966563E+03  0.33249716160E+03  0.52700848256E+03  0.00000000000E+00 0. -1.
<scales pt_clust_5="13000.00000" pt_clust_6="13000.00000" pt_clust_7="13000.00000" pt_clust_8="13000.00000" pt_clust_9="22.06902" pt_clust_10="13000.00000"></scales>
<clustering>
<clus scale="   22.069">  2  9  1 -1</clus>
<clus scale="   80.462">  5  6 -1 -1</clus>
<clus scale="   88.415">  7  8 -1 -1</clus>
<clus scale="  263.514">  1  5  2 -1</clus>
<clus scale="  318.289">  7 10 -1 -1</clus>
<clus scale="   22.069">  2  5  1 -1</clus>
</clustering>
</event>
<event>
10    4  0.7508634E-005  0.1696063E+03  0.7546771E-02  0.1206194E+00
         21   -1    0    0  501  502  0.00000000000E+00  0.00000000000E+00  0.32662122741E+03  0.32662122741E+03  0.00000000000E+00 0. -1.
          4   -1    0    0  503    0 -0.00000000000E+00 -0.00000000000E+00 -0.40288848795E+03  0.40288848795E+03  0.00000000000E+00 0. -1.
         24    2    1    2    0    0 -0.60148529592E+01  0.48233722959E+02 -0.27555510178E+03  0.29073302103E+03  0.78945581995E+02 0.  0.
         23    2    1    2    0    0  0.16554838427E+02 -0.57221134298E+01 -0.94564632720E+02  0.12967322189E+03  0.86982006515E+02 0.  0.
        -11    1    3    3    0    0  0.19839410772E+02 -0.10599565270E+02 -0.12544098358E+03  0.12744172537E+03  0.00000000000E+00 0.  1.
         12    1    3    3    0    0 -0.25854263731E+02  0.58833288230E+02 -0.15011411819E+03  0.16329129566E+03  0.00000000000E+00 0. -1.
        -11    1    4    4    0    0  0.34130850143E+01 -0.45992084124E+02 -0.44425399715E+02  0.64035436215E+02  0.00000000000E+00 0.  1.
         11    1    4    4    0    0  0.13141753413E+02  0.40269970694E+02 -0.50139233006E+02  0.65637785679E+02  0.00000000000E+00 0. -1.
         21    1    1    2  503  502 -0.36588997189E+02 -0.24295032903E+02  0.25569995510E+03  0.25944454201E+03  0.00000000000E+00 0. -1.
          3    1    1    2  501    0  0.26049011721E+02 -0.18216576626E+02  0.38152518856E+02  0.49658930422E+02  0.00000000000E+00 0. -1.
<scales pt_clust_5="13000.00000" pt_clust_6="13000.00000" pt_clust_7="13000.00000" pt_clust_8="13000.00000" pt_clust_9="43.92042" pt_clust_10="13000.00000"></scales>
<clustering>
<clus scale="   43.920">  1  9  2 -1</clus>
<clus scale="   78.946">  5  6 -1 -1</clus>
<clus scale="   86.982">  7  8 -1 -1</clus>
<clus scale="   33.780">  7 10 -1 -1</clus>
<clus scale="   91.702">  2  5  1 -1</clus>
<clus scale="   43.920">  1  5  2 -1</clus>
</clustering>
</event>
<event>
10    4  0.7508634E-005  0.5877600E+03  0.7546771E-02  0.1050656E+00
         21   -1    0    0  503  502  0.00000000000E+00  0.00000000000E+00  0.11948367424E+03  0.11948367424E+03  0.00000000000E+00 0. -1.
          2   -1    0    0  502    0 -0.00000000000E+00 -0.00000000000E+00 -0.22911587828E+04  0.22911587828E+04  0.00000000000E+00 0. -1.
         24    2    1    2    0    0  0.64539778839E+02  0.91248412721E+02 -0.12558034056E+03  0.18614670439E+03  0.79928203679E+02 0.  0.
         23    2    1    2    0    0  0.24817003731E+03  0.11676177539E+03 -0.75263414861E+03  0.80629376045E+03  0.91813870758E+02 0.  0.
        -11    1    3    3    0    0  0.83758229634E+00  0.26327599118E+02  0.51984191105E+01  0.26848977274E+02  0.00000000000E+00 0.  1.
         12    1    3    3    0    0  0.63702196542E+02  0.64920813603E+02 -0.13077875967E+03  0.15929772711E+03  0.00000000000E+00 0. -1.
        -11    1    4    4    0    0  0.10645991238E+03  0.36962758921E+02 -0.43607643074E+03  0.45040272195E+03  0.00000000000E+00 0.  1.
         11    1    4    4    0    0  0.14171012494E+03  0.79799016472E+02 -0.31655771787E+03  0.35589103850E+03  0.00000000000E+00 0. -1.
         21    1    1    2  503  501 -0.70784176813E+02 -0.83217820769E+02 -0.14046627238E+02  0.11014950348E+03  0.00000000000E+00 0. -1.
          1    1    1    2  501    0 -0.24192563934E+03 -0.12479236735E+03 -0.12794139922E+04  0.13080524887E+04  0.00000000000E+00 0. -1.
<scales pt_clust_5="13000.00000" pt_clust_6="13000.00000" pt_clust_7="13000.00000" pt_clust_8="13000.00000" pt_clust_9="109.25020" pt_clust_10="13000.00000"></scales>
<clustering>
<clus scale="   79.928">  5  6 -1 -1</clus>
<clus scale="   91.814">  7  8 -1 -1</clus>
<clus scale="  109.250">  1  9  2 -1</clus>
<clus scale="  103.506">  2  5  1 -1</clus>
<clus scale="  253.505">  7 10 -1 -1</clus>
<clus scale="  109.250">  1  5  2 -1</clus>
</clustering>
</event>
<event>
10    4  0.7508634E-005  0.1750790E+03  0.7546771E-02  0.1205777E+00
          2   -1    0    0  503    0 -0.00000000000E+00  0.00000000000E+00  0.16745442239E+03  0.16745442239E+03  0.00000000000E+00 0. -1.
         21   -1    0    0  501  502  0.00000000000E+00 -0.00000000000E+00 -0.14445022684E+03  0.14445022684E+03  0.00000000000E+00 0.  1.
         24    2    1    2    0    0  0.13703087526E+02 -0.17391773359E+02 -0.22267608984E+01  0.83997289384E+02  0.80995912067E+02 0.  0.
         23    2    1    2    0    0 -0.65640249926E+02  0.35883746487E+02  0.60431188958E+01  0.11218764093E+03  0.83386220803E+02 0.  0.
        -13    1    3    3    0    0 -0.33369919039E+02 -0.55327679915E+00 -0.58040951489E+01  0.33875435530E+02  0.00000000000E+00 0.  1.
         14    1    3    3    0    0  0.47073006565E+02 -0.16838496559E+02  0.35773342505E+01  0.50121853854E+02  0.00000000000E+00 0. -1.
        -13    1    4    4    0    0 -0.15683646230E+02  0.21754939031E+02  0.41433972385E+02  0.49356136386E+02  0.00000000000E+00 0. -1.
         13    1    4    4    0    0 -0.49956603696E+02  0.14128807456E+02 -0.35390853489E+02  0.62831504547E+02  0.00000000000E+00 0.  1.
         21    1    1    2  503  502  0.16605136523E+02  0.18440187795E+02 -0.33909861696E+02  0.42019635947E+02  0.00000000000E+00 0.  1.
          1    1    1    2  501    0  0.35332025877E+02 -0.36932160923E+02  0.53097699255E+02  0.73700082966E+02  0.00000000000E+00 0. -1.
<scales pt_clust_5="13000.00000" pt_clust_6="13000.00000" pt_clust_7="13000.00000" pt_clust_8="13000.00000" pt_clust_9="24.81474" pt_clust_10="13000.00000"></scales>
<clustering>
<clus scale="   24.815">  2  9  1 -1</clus>
<clus scale="   80.996">  5  6 -1 -1</clus>
<clus scale="   83.386">  7  8 -1 -1</clus>
<clus scale="   50.989">  7 10 -1 -1</clus>
<clus scale="   84.119">  1  5  2 -1</clus>
<clus scale="   24.815">  2  5  1 -1</clus>
</clustering>
</event>
<event>
10    4  0.7508634E-005  0.2590281E+03  0.7546771E-02  0.1126933E+00
         21   -1    0    0  503  502  0.00000000000E+00  0.00000000000E+00  0.13521683499E+03  0.13521683499E+03  0.00000000000E+00 0. -1.
          2   -1    0    0  502    0 -0.00000000000E+00 -0.00000000000E+00 -0.52046463136E+03  0.52046463136E+03  0.00000000000E+00 0. -1.
         24    2    1    2    0    0  0.80334443294E+02  0.14520540186E+03 -0.16987660259E+03  0.24984194432E+03  0.77618976581E+02 0.  0.
         23    2    1    2    0    0  0.45414943022E+02 -0.30503179121E+02 -0.15577602640E+03  0.19845746939E+03  0.11011918892E+03 0.  0.
        -13    1    3    3    0    0  0.21521188672E+02  0.91188715405E+02 -0.13091704058E+03  0.16099010806E+03  0.00000000000E+00 0.  1.
         14    1    3    3    0    0  0.58813254622E+02  0.54016686460E+02 -0.38959562011E+02  0.88851836263E+02  0.00000000000E+00 0. -1.
        -11    1    4    4    0    0  0.18011348286E+02 -0.10800214987E+02  0.14077533619E+02  0.25283003454E+02  0.00000000000E+00 0. -1.
         11    1    4    4    0    0  0.27403594736E+02 -0.19702964134E+02 -0.16985356002E+03  0.17317446593E+03  0.00000000000E+00 0.  1.
         21    1    1    2  503  501 -0.28856010423E+02 -0.51916489167E+02  0.24802017982E+02  0.64367159957E+02  0.00000000000E+00 0. -1.
          1    1    1    2  501    0 -0.96893375893E+02 -0.62785733577E+02 -0.84397185360E+02  0.14301489268E+03  0.00000000000E+00 0. -1.
<scales pt_clust_5="13000.00000" pt_clust_6="13000.00000" pt_clust_7="13000.00000" pt_clust_8="13000.00000" pt_clust_9="59.39690" pt_clust_10="13000.00000"></scales>
<clustering>
<clus scale="   59.397">  1  9  2 -1</clus>
<clus scale="   77.619">  5  6 -1 -1</clus>
<clus scale="  110.119">  7  8 -1 -1</clus>
<clus scale="  132.725">  7 10 -1 -1</clus>
<clus scale="  159.853">  2  5  1 -1</clus>
<clus scale="   59.397">  1  5  2 -1</clus>
</clustering>
</event>
<event>
10    4  0.7508634E-005  0.2309483E+03  0.7546771E-02  0.1140639E+00
         21   -1    0    0  503  502  0.00000000000E+00  0.00000000000E+00  0.35043242356E+03  0.35043242356E+03  0.00000000000E+00 0. -1.
         -3   -1    0    0    0  501 -0.00000000000E+00 -0.00000000000E+00 -0.15757041334E+03  0.15757041334E+03  0.00000000000E+00 0.  1.
         24    2    1    2    0    0  0.10418430053E+03 -0.94275172971E+02  0.70936154309E+02  0.18669847534E+03  0.10041018868E+03 0.  0.
         23    2    1    2    0    0 -0.79504084285E+01 -0.26788843418E+01  0.63810570596E+02  0.11230299655E+03  0.92031454943E+02 0.  0.
        -13    1    3    3    0    0  0.49314894637E+02 -0.51768375319E+02  0.89786645019E+02  0.11477615231E+03  0.00000000000E+00 0.  1.
         14    1    3    3    0    0  0.54869405890E+02 -0.42506797652E+02 -0.18850490709E+02  0.71922323026E+02  0.00000000000E+00 0. -1.
        -11    1    4    4    0    0  0.10561121390E+02  0.19715474550E+02 -0.15913497230E+02  0.27449528518E+02  0.00000000000E+00 0.  1.
         11    1    4    4    0    0 -0.18511529818E+02 -0.22394358892E+02  0.79724067826E+02  0.84853468033E+02  0.00000000000E+00 0. -1.
         21    1    1    2  503  501 -0.18934220974E+02  0.20971493305E+02  0.91357990186E+02  0.95627352919E+02  0.00000000000E+00 0. -1.
         -4    1    1    2    0  502 -0.77299671125E+02  0.75982564008E+02 -0.33242704871E+02  0.11337401209E+03  0.00000000000E+00 0.  1.
<scales pt_clust_5="13000.00000" pt_clust_6="13000.00000" pt_clust_7="13000.00000" pt_clust_8="13000.00000" pt_clust_9="28.25435" pt_clust_10="13000.00000"></scales>
<clustering>
<clus scale="   28.254">  1  9  2 -1</clus>
<clus scale="   92.031">  7  8 -1 -1</clus>
<clus scale="  100.410">  5  6 -1 -1</clus>
<clus scale="  112.789">  7 10 -1 -1</clus>
<clus scale="  161.445">  2  5  1 -1</clus>
<clus scale="   28.254">  1  5  2 -1</clus>
</clustering>
</event>
<event>
10    4  0.7508634E-005  0.2731315E+03  0.7546771E-02  0.1130142E+00
          2   -1    0    0  502    0 -0.00000000000E+00  0.00000000000E+00  0.56084061794E+03  0.56084061794E+03  0.00000000000E+00 0. -1.
         21   -1    0    0  503  502  0.00000000000E+00 -0.00000000000E+00 -0.35524552345E+03  0.35524552345E+03  0.00000000000E+00 0. -1.
         24    2    1    2    0    0 -0.99093107420E+02 -0.67958248266E+01  0.70982031640E+01  0.12618773932E+03  0.77506992541E+02 0.  0.
         23    2    1    2    0    0  0.15345585777E+03 -0.12323421723E+03  0.21237090046E+03  0.30360211538E+03  0.91309761381E+02 0.  0.
        -11    1    3    3    0    0 -0.62793508650E+02 -0.41873503474E+02  0.57020186563E+01  0.75689682510E+02  0.00000000000E+00 0.  1.
         12    1    3    3    0    0 -0.36299598770E+02  0.35077678647E+02  0.13961845077E+01  0.50498056808E+02  0.00000000000E+00 0. -1.
        -11    1    4    4    0    0  0.71607810451E+02 -0.11087939248E+03  0.10905053941E+03  0.17121313717E+03  0.00000000000E+00 0. -1.
         11    1    4    4    0    0  0.81848047318E+02 -0.12354824748E+02  0.10332036105E+03  0.13238897821E+03  0.00000000000E+00 0.  1.
         21    1    1    2  503  501 -0.11255871090E+03  0.59737945129E+02 -0.22372027755E+03  0.25746620764E+03  0.00000000000E+00 0. -1.
          1    1    1    2  501    0  0.58195960552E+02  0.70292096928E+02  0.20984626842E+03  0.22883007906E+03  0.00000000000E+00 0. -1.
<scales pt_clust_5="13000.00000" pt_clust_6="13000.00000" pt_clust_7="13000.00000" pt_clust_8="13000.00000" pt_clust_9="130.32073" pt_clust_10="13000.00000"></scales>
<clustering>
<clus scale="   77.507">  5  6 -1 -1</clus>
<clus scale="   91.310">  7  8 -1 -1</clus>
<clus scale="   91.257">  7 10 -1 -1</clus>
<clus scale="  125.988">  1  5  2 -1</clus>
<clus scale="  130.321">  2  9  1 -1</clus>
<clus scale="  130.321">  2  5  1 -1</clus>
</clustering>
</event>
<event>
10    4  0.7508634E-005  0.3068234E+03  0.7546771E-02  0.1117879E+00
          2   -1    0    0  503    0 -0.00000000000E+00  0.00000000000E+00  0.76109826139E+03  0.76109826139E+03  0.00000000000E+00 0. -1.
         21   -1    0    0  501  502  0.00000000000E+00 -0.00000000000E+00 -0.35865627082E+03  0.35865627082E+03  0.00000000000E+00 0. -1.
         24    2    1    2    0    0 -0.54604782539E+02  0.83516788784E+02  0.17975872304E+03  0.22061240695E+03  0.79999370677E+02 0.  0.
         23    2    1    2    0    0  0.34663941700E+02  0.99747668771E+02  0.15376329203E+03  0.20768116744E+03  0.91307891520E+02 0.  0.
        -13    1    3    3    0    0 -0.68803981537E+02  0.36600170426E+02  0.97034295373E+02  0.12445567415E+03  0.00000000000E+00 0.  1.
         14    1    3    3    0    0  0.14199198997E+02  0.46916618358E+02  0.82724427663E+02  0.96156732798E+02  0.00000000000E+00 0. -1.
        -11    1    4    4    0    0  0.77518264587E+01  0.64642254504E+02  0.22049099693E+02  0.68737723836E+02  0.00000000000E+00 0. -1.
         11    1    4    4    0    0  0.26912115241E+02  0.35105414266E+02  0.13171419234E+03  0.13894344360E+03  0.00000000000E+00 0.  1.
         21    1    1    2  503  502 -0.59874639533E+01 -0.40187415855E+02 -0.29592828488E+03  0.29870458301E+03  0.00000000000E+00 0. -1.
          1    1    1    2  501    0  0.25928304793E+02 -0.14307704170E+03  0.36484826039E+03  0.39275637482E+03  0.00000000000E+00 0. -1.
<scales pt_clust_5="13000.00000" pt_clust_6="13000.00000" pt_clust_7="13000.00000" pt_clust_8="13000.00000" pt_clust_9="40.63100" pt_clust_10="13000.00000"></scales>
<clustering>
<clus scale="   40.631">  2  9  1 -1</clus>
<clus scale="   79.999">  5  6 -1 -1</clus>
<clus scale="   91.308">  7  8 -1 -1</clus>
<clus scale="  120.508">  1  5  2 -1</clus>
<clus scale="  102.071">  7 10 -1 -1</clus>
<clus scale="   40.631">  2  5  1 -1</clus>
</clustering>
</event>
<event>
10    4  0.7508634E-005  0.6095247E+03  0.7546771E-02  0.1048014E+00
         21   -1    0    0  501  502  0.00000000000E+00  0.00000000000E+00  0.31523993624E+03  0.31523993624E+03  0.00000000000E+00 0.  1.
          2   -1    0    0  503    0 -0.00000000000E+00 -0.00000000000E+00 -0.11683994046E+04  0.11683994046E+04  0.00000000000E+00 0. -1.
         24    2    1    2    0    0 -0.24754780778E+01 -0.57448891152E+02 -0.38996831067E+02  0.10741679591E+03  0.81921377697E+02 0.  0.
         23    2    1    2    0    0  0.15854248308E+02  0.57175705510E+02  0.50384043133E+02  0.12007307942E+03  0.91425237808E+02 0.  0.
        -13    1    3    3    0    0  0.39422974253E+02 -0.25349237891E+02 -0.13346175288E+02  0.48732690829E+02  0.00000000000E+00 0.  1.
         14    1    3    3    0    0 -0.41898452330E+02 -0.32099653261E+02 -0.25650655779E+02  0.58684105080E+02  0.00000000000E+00 0. -1.
        -11    1    4    4    0    0  0.40692249642E+02  0.71742287669E+01 -0.47690974186E+01  0.41594146578E+02  0.00000000000E+00 0. -1.
         11    1    4    4    0    0 -0.24838001335E+02  0.50001476743E+02  0.55153140551E+02  0.78478932838E+02  0.00000000000E+00 0.  1.
         21    1    1    2  503  502  0.80801485048E+02 -0.11060254381E+03  0.16609633507E+03  0.21529002579E+03  0.00000000000E+00 0.  1.
          1    1    1    2  501    0 -0.94180255277E+02  0.11087572945E+03 -0.10306430155E+04  0.10408594398E+04  0.00000000000E+00 0. -1.
<scales pt_clust_5="13000.00000" pt_clust_6="13000.00000" pt_clust_7="13000.00000" pt_clust_8="13000.00000" pt_clust_9="137.98512" pt_clust_10="13000.00000"></scales>
<clustering>
<clus scale="   81.921">  5  6 -1 -1</clus>
<clus scale="   91.425">  7  8 -1 -1</clus>
<clus scale="  100.088">  2  5  1 -1</clus>
<clus scale="  111.865">  7 10 -1 -1</clus>
<clus scale="  137.985">  1  9  2 -1</clus>
<clus scale="  137.985">  1  5  2 -1</clus>
</clustering>
</event>
<event>
10    4  0.7508634E-005  0.1890098E+03  0.7546771E-02  0.1187551E+00
          2   -1    0    0  503    0 -0.00000000000E+00  0.00000000000E+00  0.92999429003E+02  0.92999429003E+02  0.00000000000E+00 0. -1.
         21   -1    0    0  501  502  0.00000000000E+00 -0.00000000000E+00 -0.30024516361E+03  0.30024516361E+03  0.00000000000E+00 0. -1.
         24    2    1    2    0    0  0.14817091661E+02 -0.59174335768E+02 -0.58893087126E+02  0.11760302782E+03  0.81491890528E+02 0.  0.
         23    2    1    2    0    0 -0.89675485678E+02  0.36070670521E+02 -0.11273996612E+03  0.17569642602E+03  0.93894345697E+02 0.  0.
        -11    1    3    3    0    0  0.21312791001E+02  0.12334799955E+02 -0.33211986342E+02  0.41345113218E+02  0.00000000000E+00 0.  1.
         12    1    3    3    0    0 -0.64956993403E+01 -0.71509135722E+02 -0.25681100783E+02  0.76257914600E+02  0.00000000000E+00 0. -1.
        -13    1    4    4    0    0 -0.85585370317E+02 -0.12063575348E+02 -0.71017794312E+02  0.11186560048E+03  0.00000000000E+00 0. -1.
         13    1    4    4    0    0 -0.40901153610E+01  0.48134245869E+02 -0.41722171805E+02  0.63830825540E+02  0.00000000000E+00 0.  1.
         21    1    1    2  503  502  0.21778706594E+02  0.20217874272E+02  0.84553565584E+01  0.30896076701E+02  0.00000000000E+00 0. -1.
          1    1    1    2  501    0  0.53079687423E+02  0.28857909751E+01 -0.44068037919E+02  0.69049062068E+02  0.00000000000E+00 0. -1.
<scales pt_clust_5="13000.00000" pt_clust_6="13000.00000" pt_clust_7="13000.00000" pt_clust_8="13000.00000" pt_clust_9="29.71658" pt_clust_10="13000.00000"></scales>
<clustering>
<clus scale="   29.717">  2  9  1 -1</clus>
<clus scale="   81.492">  5  6 -1 -1</clus>
<clus scale="   93.894">  7  8 -1 -1</clus>
<clus scale="   57.748">  7 10 -1 -1</clus>
<clus scale="   99.553">  1  5  2 -1</clus>
<clus scale="   29.717">  2  5  1 -1</clus>
</clustering>
</event>
<event>
10    4  0.7508634E-005  0.2683801E+03  0.7546771E-02  0.1140183E+00
         21   -1    0    0  501  502  0.00000000000E+00  0.00000000000E+00  0.32496465293E+03  0.32496465293E+03  0.00000000000E+00 0. -1.
          2   -1    0    0  503    0 -0.00000000000E+00 -0.00000000000E+00 -0.21455257515E+03  0.21455257515E+03  0.00000000000E+00 0. -1.
         24    2    1    2    0    0  0.12314311655E+02 -0.63145487066E+02 -0.10656150353E+03  0.14747320511E+03  0.79082219125E+02 0.  0.
         23    2    1    2    0    0 -0.69160276759E+02  0.31027668765E+01 -0.64880772156E+01  0.11435308255E+03  0.90784146740E+02 0.  0.
        -11    1    3    3    0    0  0.33779657475E+02 -0.93114655021E+01 -0.12915574168E+02  0.37344085275E+02  0.00000000000E+00 0.  1.
         12    1    3    3    0    0 -0.21465345820E+02 -0.53834021564E+02 -0.93645929361E+02  0.11012911983E+03  0.00000000000E+00 0. -1.
        -11    1    4    4    0    0 -0.70093144836E+02 -0.31486554216E+02 -0.15955241019E+02  0.78479435302E+02  0.00000000000E+00 0. -1.
         11    1    4    4    0    0  0.93286807629E+00  0.34589321092E+02  0.94671638038E+01  0.35873647249E+02  0.00000000000E+00 0.  1.
         21    1    1    2  503  502 -0.26189216267E+00 -0.44015832532E+02  0.41895530695E+02  0.60767570243E+02  0.00000000000E+00 0. -1.
          1    1    1    2  501    0  0.57107857267E+02  0.10405855272E+03  0.18156612783E+03  0.21692337018E+03  0.00000000000E+00 0. -1.
<scales pt_clust_5="13000.00000" pt_clust_6="13000.00000" pt_clust_7="13000.00000" pt_clust_8="13000.00000" pt_clust_9="44.01661" pt_clust_10="13000.00000"></scales>
<clustering>
<clus scale="   44.017">  1  9  2 -1</clus>
<clus scale="   79.082">  5  6 -1 -1</clus>
<clus scale="   90.784">  7  8 -1 -1</clus>
<clus scale="   91.787">  7 10 -1 -1</clus>
<clus scale="  104.014">  2  5  1 -1</clus>
<clus scale="   44.017">  1  5  2 -1</clus>
</clustering>
</event>
<event>
10    4  0.7508634E-005  0.4660113E+03  0.7546771E-02  0.1045383E+00
          2   -1    0    0  502    0 -0.00000000000E+00  0.00000000000E+00  0.42096579017E+03  0.42096579017E+03  0.00000000000E+00 0. -1.
         21   -1    0    0  503  502  0.00000000000E+00 -0.00000000000E+00 -0.41020598813E+03  0.41020598813E+03  0.00000000000E+00 0. -1.
         24    2    1    2    0    0  0.19082187329E+03 -0.14133092518E+03  0.95731168553E+02  0.26897305943E+03  0.82429559804E+02 0.  0.
         23    2    1    2    0    0  0.23514092212E+02  0.18131882225E+03  0.88158218475E+02  0.22205825513E+03  0.90047594937E+02 0.  0.
        -11    1    3    3    0    0  0.63780487968E+02 -0.34755735473E+02 -0.84690446462E+01  0.73127535928E+02  0.00000000000E+00 0.  1.
         12    1    3    3    0    0  0.12704138532E+03 -0.10657518971E+03  0.10420021320E+03  0.19584552350E+03  0.00000000000E+00 0. -1.
        -13    1    4    4    0    0 -0.48106381956E+01  0.10170758387E+03  0.26697731204E+01  0.10185628377E+03  0.00000000000E+00 0. -1.
         13    1    4    4    0    0  0.28324730408E+02  0.79611238383E+02  0.85488445355E+02  0.12020197136E+03  0.00000000000E+00 0.  1.
         21    1    1    2  503  501 -0.12579779892E+02  0.46265253703E+02 -0.96447146627E+02  0.10770690161E+03  0.00000000000E+00 0.  1.
          1    1    1    2  501    0 -0.20175618561E+03 -0.86253150774E+02 -0.76682438361E+02  0.23243356213E+03  0.00000000000E+00 0. -1.
<scales pt_clust_5="13000.00000" pt_clust_6="13000.00000" pt_clust_7="13000.00000" pt_clust_8="13000.00000" pt_clust_9="47.94502" pt_clust_10="13000.00000"></scales>
<clustering>
<clus scale="   47.945">  2  9  1 -1</clus>
<clus scale="   82.430">  5  6 -1 -1</clus>
<clus scale="   90.048">  7  8 -1 -1</clus>
<clus scale="  217.408">  7 10 -1 -1</clus>
<clus scale="  241.532">  1  5  2 -1</clus>
<clus scale="   47.945">  2  5  1 -1</clus>
</clustering>
</event>
<event>
10    4  0.7508634E-005  0.2214167E+03  0.7546771E-02  0.1169388E+00
          4   -1    0    0  503    0 -0.00000000000E+00  0.00000000000E+00  0.55988771970E+03  0.55988771970E+03  0.00000000000E+00 0. -1.
         21   -1    0    0  501  502  0.00000000000E+00 -0.00000000000E+00 -0.11094137991E+03  0.11094137991E+03  0.00000000000E+00 0.  1.
         24    2    1    2    0    0  0.49305228398E+02  0.76928792654E+01  0.61172927699E+02  0.11152965529E+03  0.78781666573E+02 0.  0.
         23    2    1    2    0    0 -0.79707612126E+02  0.30581661708E+02  0.11297653066E+03  0.16795362898E+03  0.90311591421E+02 0.  0.
        -11    1    3    3    0    0  0.31589772222E+02  0.35747132110E+01 -0.13598754042E+02  0.34577715296E+02  0.00000000000E+00 0.  1.
         12    1    3    3    0    0  0.17715456176E+02  0.41181660544E+01  0.74771681741E+02  0.76951939999E+02  0.00000000000E+00 0. -1.
        -11    1    4    4    0    0 -0.71186982234E+02 -0.32006678690E+01  0.11242854992E+03  0.13310901378E+03  0.00000000000E+00 0. -1.
         11    1    4    4    0    0 -0.85206298924E+01  0.33782329577E+02  0.54798074196E+00  0.34844615198E+02  0.00000000000E+00 0.  1.
         21    1    1    2  503  502  0.49035834387E+02 -0.11925810397E+03  0.29392250910E+02  0.13225321482E+03  0.00000000000E+00 0.  1.
          3    1    1    2  501    0 -0.18633450659E+02  0.80983563000E+02  0.24540463052E+03  0.25909260051E+03  0.00000000000E+00 0. -1.
<scales pt_clust_5="13000.00000" pt_clust_6="13000.00000" pt_clust_7="13000.00000" pt_clust_8="13000.00000" pt_clust_9="131.19331" pt_clust_10="13000.00000"></scales>
<clustering>
<clus scale="   78.782">  5  6 -1 -1</clus>
<clus scale="   90.312">  7  8 -1 -1</clus>
<clus scale="   83.100">  7 10 -1 -1</clus>
<clus scale="   93.256">  1  5  2 -1</clus>
<clus scale="  131.193">  2  9  1 -1</clus>
<clus scale="  131.193">  2  5  1 -1</clus>
</clustering>
</event>
<event>
10    4  0.7508634E-005  0.3535202E+03  0.7546771E-02  0.1078315E+00
          2   -1    0    0  503    0 -0.00000000000E+00  0.00000000000E+00  0.22328821533E+04  0.22328821533E+04  0.00000000000E+00 0. -1.
         21   -1    0    0  501  502  0.00000000000E+00 -0.00000000000E+00 -0.51274918436E+03  0.51274918436E+03  0.00000000000E+00 0. -1.
         24    2    1    2    0    0 -0.14760620072E+03  0.16372211228E+03  0.13195513410E+04  0.13404659132E+04  0.83908296457E+02 0.  0.
         23    2    1    2    0    0 -0.26085468729E+02  0.38565167161E+02  0.16259780478E+03  0.19288307285E+03  0.92725993534E+02 0.  0.
        -11    1    3    3    0    0 -0.51389167513E+02  0.67054911225E+02  0.29441362868E+03  0.30629494349E+03  0.00000000000E+00 0.  1.
         12    1    3    3    0    0 -0.96217033209E+02  0.96667201060E+02  0.10251377123E+04  0.10341709697E+04  0.00000000000E+00 0. -1.
        -11    1    4    4    0    0 -0.26771794073E+02  0.66689956802E+02  0.13765845564E+03  0.15528724901E+03  0.00000000000E+00 0. -1.
         11    1    4    4    0    0  0.68632534405E+00 -0.28124789640E+02  0.24939349136E+02  0.37595823839E+02  0.00000000000E+00 0.  1.
         21    1    1    2  503  502  0.11415478448E+03  0.81139558028E+01 -0.46354611628E+03  0.47746429501E+03  0.00000000000E+00 0. -1.
          1    1    1    2  501    0  0.59536884969E+02 -0.21040123525E+03  0.70152993942E+03  0.73481805665E+03  0.00000000000E+00 0. -1.
<scales pt_clust_5="13000.00000" pt_clust_6="13000.00000" pt_clust_7="13000.00000" pt_clust_8="13000.00000" pt_clust_9="114.44279" pt_clust_10="13000.00000"></scales>
<clustering>
<clus scale="   83.908">  5  6 -1 -1</clus>
<clus scale="   92.726">  7  8 -1 -1</clus>
<clus scale="  114.443">  2  9  1 -1</clus>
<clus scale="  220.797">  1  5  2 -1</clus>
<clus scale="   76.603">  7 10 -1 -1</clus>
<clus scale="  114.443">  2  5  1 -1</clus>
</clustering>
</event>
<event>
10    4  0.7508634E-005  0.2280013E+03  0.7546771E-02  0.1162578E+00
          4   -1    0    0  503    0 -0.00000000000E+00  0.00000000000E+00  0.10678389500E+04  0.10678389500E+04  0.00000000000E+00 0. -1.
         21   -1    0    0  501  502  0.00000000000E+00 -0.00000000000E+00 -0.46942825709E+02  0.46942825709E+02  0.00000000000E+00 0. -1.
         24    2    1    2    0    0 -0.28407846846E+02 -0.48930844889E+02  0.14077512291E+03  0.17477063311E+03  0.86751977642E+02 0.  0.
         23    2    1    2    0    0 -0.36327923026E+02 -0.51996407696E+02  0.39210092371E+03  0.40918853343E+03  0.98329940075E+02 0.  0.
        -11    1    3    3    0    0  0.25292121875E+02 -0.16706064771E+02  0.14037930578E+02  0.33404303974E+02  0.00000000000E+00 0.  1.
         12    1    3    3    0    0 -0.53699968721E+02 -0.32224780119E+02  0.12673719233E+03  0.14136632914E+03  0.00000000000E+00 0. -1.
        -11    1    4    4    0    0 -0.58794605893E+02 -0.11225247920E+01  0.15845326027E+03  0.16901331733E+03  0.00000000000E+00 0.  1.
         11    1    4    4    0    0  0.22466682867E+02 -0.50873882904E+02  0.23364766344E+03  0.24017521610E+03  0.00000000000E+00 0. -1.
         21    1    1    2  503  502 -0.96757208377E+01  0.23135834711E+02 -0.55206224193E+01  0.25678078071E+02  0.00000000000E+00 0. -1.
          3    1    1    2  501    0  0.74411490710E+02  0.77791417874E+02  0.49354070011E+03  0.50514453111E+03  0.00000000000E+00 0. -1.
<scales pt_clust_5="13000.00000" pt_clust_6="13000.00000" pt_clust_7="13000.00000" pt_clust_8="13000.00000" pt_clust_9="25.07761" pt_clust_10="13000.00000"></scales>
<clustering>
<clus scale="   25.078">  2  9  1 -1</clus>
<clus scale="   86.752">  5  6 -1 -1</clus>
<clus scale="   98.330">  7  8 -1 -1</clus>
<clus scale="   99.912">  1  5  2 -1</clus>
<clus scale="   81.407">  7 10 -1 -1</clus>
<clus scale="   25.078">  2  5  1 -1</clus>
</clustering>
</event>
<event>
10    4  0.7508634E-005  0.5029638E+03  0.7546771E-02  0.1032860E+00
          2   -1    0    0  502    0 -0.00000000000E+00  0.00000000000E+00  0.18790563293E+04  0.18790563293E+04  0.00000000000E+00 0. -1.
         21   -1    0    0  503  502  0.00000000000E+00 -0.00000000000E+00 -0.11082500387E+03  0.11082500387E+03  0.00000000000E+00 0.  1.
         24    2    1    2    0    0 -0.25893101760E+03 -0.57311344830E+02  0.43800262282E+03  0.51909771535E+03  0.85359699885E+02 0.  0.
         23    2    1    2    0    0  0.34423244923E+03  0.10016975163E+03  0.12365081843E+04  0.12905665024E+04  0.89885755427E+02 0.  0.
        -13    1    3    3    0    0 -0.35023339958E+02 -0.35793172714E+02  0.11559777296E+03  0.12597869132E+03  0.00000000000E+00 0.  1.
         14    1    3    3    0    0 -0.22390767764E+03 -0.21518172116E+02  0.32240484986E+03  0.39311902403E+03  0.00000000000E+00 0. -1.
        -13    1    4    4    0    0  0.14421983698E+03 -0.23261554126E+01  0.44725815202E+03  0.46994108879E+03  0.00000000000E+00 0.  1.
         13    1    4    4    0    0  0.20001261225E+03  0.10249590704E+03  0.78925003228E+03  0.82062541362E+03  0.00000000000E+00 0. -1.
         21    1    1    2  503  501  0.10241754800E+02 -0.24350943759E+02 -0.18065842645E+02  0.32003697815E+02  0.00000000000E+00 0. -1.
          1    1    1    2  501    0 -0.95543186434E+02 -0.18507463041E+02  0.11178636097E+03  0.14821341762E+03  0.00000000000E+00 0. -1.
<scales pt_clust_5="13000.00000" pt_clust_6="13000.00000" pt_clust_7="13000.00000" pt_clust_8="13000.00000" pt_clust_9="26.41708" pt_clust_10="13000.00000"></scales>
<clustering>
<clus scale="   26.417">  2  9  1 -1</clus>
<clus scale="   85.360">  5  6 -1 -1</clus>
<clus scale="   89.886">  7  8 -1 -1</clus>
<clus scale="   96.324">  7 10 -1 -1</clus>
<clus scale="  276.739">  1  5  2 -1</clus>
<clus scale="   26.417">  2  5  1 -1</clus>
</clustering>
</event>
<event>
10    4  0.7508634E-005  0.2418491E+03  0.7546771E-02  0.1155954E+00
         21   -1    0    0  501  502  0.00000000000E+00  0.00000000000E+00  0.37308605529E+02  0.37308605529E+02  0.00000000000E+00 0. -1.
          2   -1    0    0  503    0 -0.00000000000E+00 -0.00000000000E+00 -0.16115762636E+04  0.16115762636E+04  0.00000000000E+00 0. -1.
         24    2    1    2    0    0 -0.36174155410E+02  0.42084995497E+02 -0.45247998120E+03  0.46290571591E+03  0.80398084990E+02 0.  0.
         23    2    1    2    0    0  0.44319222785E+02 -0.55345977575E+02 -0.27168135782E+03  0.29528518049E+03  0.91406820805E+02 0.  0.
        -11    1    3    3    0    0  0.22431813689E+02  0.40663696715E+01 -0.58590228097E+02  0.62869201173E+02  0.00000000000E+00 0.  1.
         12    1    3    3    0    0 -0.58605969099E+02  0.38018625825E+02 -0.39388975310E+03  0.40003651474E+03  0.00000000000E+00 0. -1.
        -11    1    4    4    0    0 -0.23966476484E+02 -0.43892213734E+01 -0.27890276657E+02  0.37034103085E+02  0.00000000000E+00 0.  1.
         11    1    4    4    0    0  0.68285699270E+02 -0.50956756202E+02 -0.24379108116E+03  0.25825107740E+03  0.00000000000E+00 0. -1.
         21    1    1    2  503  502 -0.94579131148E+02 -0.84816594681E+02 -0.52803592319E+03  0.54310312369E+03  0.00000000000E+00 0. -1.
          1    1    1    2  501    0  0.86434063772E+02  0.98077576759E+02 -0.32207039584E+03  0.34759084901E+03  0.00000000000E+00 0. -1.
<scales pt_clust_5="13000.00000" pt_clust_6="13000.00000" pt_clust_7="13000.00000" pt_clust_8="13000.00000" pt_clust_9="129.09295" pt_clust_10="13000.00000"></scales>
<clustering>
<clus scale="   80.398">  5  6 -1 -1</clus>
<clus scale="   91.407">  7  8 -1 -1</clus>
<clus scale="   97.691">  2  5  1 -1</clus>
<clus scale="  129.093">  1  9  2 -1</clus>
<clus scale="   76.790">  7 10 -1 -1</clus>
<clus scale="  129.093">  1  5  2 -1</clus>
</clustering>
</event>
<event>
10    4  0.7508634E-005  0.1700397E+03  0.7546771E-02  0.1204478E+00
          2   -1    0    0  503    0 -0.00000000000E+00  0.00000000000E+00  0.62332763863E+03  0.62332763863E+03  0.00000000000E+00 0. -1.
         21   -1    0    0  501  502  0.00000000000E+00 -0.00000000000E+00 -0.11781659470E+03  0.11781659470E+03  0.00000000000E+00 0. -1.
         24    2    1    2    0    0 -0.48144117446E+02  0.43056639153E+01 -0.15906393720E+02  0.95756614371E+02  0.81116712509E+02 0.  0.
         23    2    1    2    0    0 -0.75183653871E+02  0.18975427118E+02  0.47855569862E+03  0.49330733573E+03  0.91235531247E+02 0.  0.
        -13    1    3    3    0    0  0.18468179368E+02 -0.12132835637E+02  0.73879701449E+01  0.23299387387E+02  0.00000000000E+00 0.  1.
         14    1    3    3    0    0 -0.66612296814E+02  0.16438499552E+02 -0.23294363864E+02  0.72457226984E+02  0.00000000000E+00 0. -1.
        -13    1    4    4    0    0 -0.84775283720E+02  0.42123412309E+02  0.37517165281E+03  0.38693022584E+03  0.00000000000E+00 0. -1.
         13    1    4    4    0    0  0.95916298488E+01 -0.23147985191E+02  0.10338404581E+03  0.10637710990E+03  0.00000000000E+00 0.  1.
         21    1    1    2  503  502  0.10496670241E+03 -0.34695998689E+02  0.77213789227E+01  0.11082166139E+03  0.00000000000E+00 0. -1.
          1    1    1    2  501    0  0.18361068907E+02  0.11414907655E+02  0.35140360102E+02  0.41258621841E+02  0.00000000000E+00 0. -1.
<scales pt_clust_5="13000.00000" pt_clust_6="13000.00000" pt_clust_7="13000.00000" pt_clust_8="13000.00000" pt_clust_9="105.77685" pt_clust_10="13000.00000"></scales>
<clustering>
<clus scale="   81.117">  5  6 -1 -1</clus>
<clus scale="   91.236">  7  8 -1 -1</clus>
<clus scale="   21.620">  7 10 -1 -1</clus>
<clus scale="   94.426">  1  5  2 -1</clus>
<clus scale="  105.777">  2  9  1 -1</clus>
<clus scale="  105.777">  2  5  1 -1</clus>
</clustering>
</event>
<event>
10    4  0.7508634E-005  0.6446228E+03  0.7546771E-02  0.1004869E+00
          4   -1    0    0  502    0 -0.00000000000E+00  0.00000000000E+00  0.94648116620E+03  0.94648116620E+03  0.00000000000E+00 0. -1.
         21   -1    0    0  503  502  0.00000000000E+00 -0.00000000000E+00 -0.25409056323E+03  0.25409056323E+03  0.00000000000E+00 0. -1.
         24    2    1    2    0    0  0.28798095354E+03 -0.10073817548E+03  0.22266118076E+03  0.38626891850E+03  0.80897876242E+02 0.  0.
         23    2    1    2    0    0  0.10545833761E+03 -0.12202914259E+03  0.25090344832E+03  0.31159584630E+03  0.90149090052E+02 0.  0.
        -11    1    3    3    0    0  0.70426684137E+01 -0.21229878954E+02  0.25715644331E+02  0.34082272550E+02  0.00000000000E+00 0.  1.
         12    1    3    3    0    0  0.28093828512E+03 -0.79508296527E+02  0.19694553643E+03  0.35218664595E+03  0.00000000000E+00 0. -1.
        -11    1    4    4    0    0  0.99730484929E+02 -0.64908914483E+02  0.12166606188E+03  0.17018215951E+03  0.00000000000E+00 0.  1.
         11    1    4    4    0    0  0.57278526853E+01 -0.57120228111E+02  0.12923738645E+03  0.14141368679E+03  0.00000000000E+00 0. -1.
         21    1    1    2  503  501 -0.22188086438E+02  0.14221910539E+02  0.78961771811E+01  0.27512243333E+02  0.00000000000E+00 0. -1.
          3    1    1    2  501    0 -0.37125120471E+03  0.20854540754E+03  0.21092979671E+03  0.47519472130E+03  0.00000000000E+00 0. -1.
<scales pt_clust_5="13000.00000" pt_clust_6="13000.00000" pt_clust_7="13000.00000" pt_clust_8="13000.00000" pt_clust_9="26.35477" pt_clust_10="13000.00000"></scales>
<clustering>
<clus scale="   26.355">  2  9  1 -1</clus>
<clus scale="   80.898">  5  6 -1 -1</clus>
<clus scale="   90.149">  7  8 -1 -1</clus>
<clus scale="  307.351">  1  5  2 -1</clus>
<clus scale="  275.467">  7 10 -1 -1</clus>
<clus scale="   26.355">  2  5  1 -1</clus>
</clustering>
</event>
<event>
10    4  0.7508634E-005  0.6660875E+03  0.7546771E-02  0.1031212E+00
          2   -1    0    0  502    0 -0.00000000000E+00  0.00000000000E+00  0.18856642232E+04  0.18856642232E+04  0.00000000000E+00 0. -1.
         21   -1    0    0  503  502  0.00000000000E+00 -0.00000000000E+00 -0.12808305574E+03  0.12808305574E+03  0.00000000000E+00 0. -1.
         24    2    1    2    0    0 -0.49395182443E+02  0.75221328300E+02  0.15908601945E+03  0.19937488575E+03  0.79648296916E+02 0.  0.
         23    2    1    2    0    0  0.28780135411E+03 -0.61828098388E+02  0.39775780202E+03  0.50323877021E+03  0.91573236271E+02 0.  0.
        -13    1    3    3    0    0  0.17265711769E+02  0.33067666406E+02  0.29014155811E+02  0.47258825650E+02  0.00000000000E+00 0.  1.
         14    1    3    3    0    0 -0.66660894212E+02  0.42153661895E+02  0.13007186364E+03  0.15211606010E+03  0.00000000000E+00 0. -1.
        -13    1    4    4    0    0  0.26260155954E+03 -0.78493078196E+02  0.37884974745E+03  0.46759798282E+03  0.00000000000E+00 0. -1.
         13    1    4    4    0    0  0.25199794561E+02  0.16664979808E+02  0.18908054572E+02  0.35640787387E+02  0.00000000000E+00 0.  1.
         21    1    1    2  503  501  0.15050015134E+02  0.41269200487E+02 -0.30120678602E+02  0.53262605492E+02  0.00000000000E+00 0. -1.
          1    1    1    2  501    0 -0.25345618680E+03 -0.54662430400E+02  0.12308580246E+04  0.12578710175E+04  0.00000000000E+00 0. -1.
<scales pt_clust_5="13000.00000" pt_clust_6="13000.00000" pt_clust_7="13000.00000" pt_clust_8="13000.00000" pt_clust_9="43.92778" pt_clust_10="13000.00000"></scales>
<clustering>
<clus scale="   43.928">  2  9  1 -1</clus>
<clus scale="   79.648">  5  6 -1 -1</clus>
<clus scale="   91.573">  7  8 -1 -1</clus>
<clus scale="  125.092">  1  5  2 -1</clus>
<clus scale="  284.393">  7 10 -1 -1</clus>
<clus scale="   43.928">  2  5  1 -1</clus>
</clustering>
</event>
<event>
10    4  0.7508634E-005  0.6855222E+03  0.7546771E-02  0.1019903E+00
          2   -1    0    0  502    0 -0.00000000000E+00  0.00000000000E+00  0.14842632219E+04  0.14842632219E+04  0.00000000000E+00 0. -1.
         21   -1    0    0  503  502  0.00000000000E+00 -0.00000000000E+00 -0.35898367842E+03  0.35898367842E+03  0.00000000000E+00 0. -1.
         24    2    1    2    0    0  0.61113612734E+02  0.11930407472E+03  0.71607271825E+02  0.17210182643E+03  0.80765719068E+02 0.  0.
         23    2    1    2    0    0 -0.26610279658E+03  0.22732411634E+03  0.71537958420E+03  0.80188880028E+03  0.93652262687E+02 0.  0.
        -13    1    3    3    0    0 -0.10618088890E+01  0.46065241051E+02  0.59522671077E+02  0.75273383366E+02  0.00000000000E+00 0.  1.
         14    1    3    3    0    0  0.62175421623E+02  0.73238833673E+02  0.12084600748E+02  0.96828443068E+02  0.00000000000E+00 0. -1.
        -13    1    4    4    0    0 -0.12305775212E+03  0.50792596008E+02  0.22513408546E+03  0.26155009961E+03  0.00000000000E+00 0.  1.
         13    1    4    4    0    0 -0.14304504446E+03  0.17653152034E+03  0.49024549873E+03  0.54033870067E+03  0.00000000000E+00 0. -1.
         21    1    1    2  503  501  0.86106985072E+02 -0.41487976630E+02 -0.20993326366E+03  0.23066781369E+03  0.00000000000E+00 0. -1.
          1    1    1    2  501    0  0.11888219878E+03 -0.30514021444E+03  0.54822595111E+03  0.63858845990E+03  0.00000000000E+00 0. -1.
<scales pt_clust_5="13000.00000" pt_clust_6="13000.00000" pt_clust_7="13000.00000" pt_clust_8="13000.00000" pt_clust_9="95.58067" pt_clust_10="13000.00000"></scales>
<clustering>
<clus scale="   80.766">  5  6 -1 -1</clus>
<clus scale="   93.652">  7  8 -1 -1</clus>
<clus scale="   95.581">  2  9  1 -1</clus>
<clus scale="  160.988">  1  5  2 -1</clus>
<clus scale="  328.747">  7 10 -1 -1</clus>
<clus scale="   95.581">  2  5  1 -1</clus>
</clustering>
</event>
<event>
10    4  0.7508634E-005  0.2196650E+03  0.7546771E-02  0.1170619E+00
         21   -1    0    0  501  502  0.00000000000E+00  0.00000000000E+00  0.11769520016E+03  0.11769520016E+03  0.00000000000E+00 0. -1.
          2   -1    0    0  503    0 -0.00000000000E+00 -0.00000000000E+00 -0.11595630537E+04  0.11595630537E+04  0.00000000000E+00 0. -1.
         24    2    1    2    0    0  0.37183376769E+02  0.26348946405E+02 -0.62386259721E+03  0.63073476667E+03  0.80900773833E+02 0.  0.
         23    2    1    2    0    0 -0.74925929690E+02 -0.24798612065E+01 -0.36380577102E+03  0.38245229471E+03  0.91077297096E+02 0.  0.
        -13    1    3    3    0    0  0.56102428180E+02  0.74341221497E+01 -0.27026769742E+03  0.27612927568E+03  0.00000000000E+00 0.  1.
         14    1    3    3    0    0 -0.18919051411E+02  0.18914824255E+02 -0.35359489979E+03  0.35460549099E+03  0.00000000000E+00 0. -1.
        -13    1    4    4    0    0 -0.91524722876E+02 -0.15879087069E+02 -0.32672193101E+03  0.33967063533E+03  0.00000000000E+00 0. -1.
         13    1    4    4    0    0  0.16598793185E+02  0.13399225862E+02 -0.37083840014E+02  0.42781659378E+02  0.00000000000E+00 0.  1.
         21    1    1    2  503  502  0.90964398156E+02  0.62051442018E+02  0.48194503326E+02  0.12019822519E+03  0.00000000000E+00 0. -1.
          1    1    1    2  501    0 -0.53221845234E+02 -0.85920527217E+02 -0.10239398862E+03  0.14387296728E+03  0.00000000000E+00 0. -1.
<scales pt_clust_5="13000.00000" pt_clust_6="13000.00000" pt_clust_7="13000.00000" pt_clust_8="13000.00000" pt_clust_9="113.19515" pt_clust_10="13000.00000"></scales>
<clustering>
<clus scale="   80.901">  5  6 -1 -1</clus>
<clus scale="   91.077">  7  8 -1 -1</clus>
<clus scale="   92.854">  2  5  1 -1</clus>
<clus scale="   91.449">  7 10 -1 -1</clus>
<clus scale="  113.195">  1  9  2 -1</clus>
<clus scale="  113.195">  1  5  2 -1</clus>
</clustering>
</event>
<event>
10    4  0.7508634E-005  0.1219676E+03  0.7546771E-02  0.1257850E+00
         21   -1    0    0  501  502  0.00000000000E+00  0.00000000000E+00  0.19922266204E+03  0.19922266204E+03  0.00000000000E+00 0. -1.
          2   -1    0    0  503    0 -0.00000000000E+00 -0.00000000000E+00 -0.47849500749E+03  0.47849500749E+03  0.00000000000E+00 0. -1.
         24    2    1    2    0    0  0.26784558295E+02 -0.95222794316E+01 -0.42734767486E+03  0.43582531857E+03  0.80682009952E+02 0.  0.
         23    2    1    2    0    0  0.40484833222E+02  0.33712375130E+02  0.67983563500E+02  0.12418189611E+03  0.89575847507E+02 0.  0.
        -13    1    3    3    0    0 -0.20696871598E+02  0.46740486083E+01 -0.39625405809E+02  0.44948637464E+02  0.00000000000E+00 0.  1.
         14    1    3    3    0    0  0.47481429893E+02 -0.14196328040E+02 -0.38772226905E+03  0.39087668111E+03  0.00000000000E+00 0. -1.
        -13    1    4    4    0    0  0.22376460660E+02  0.63519267247E+02  0.33819115840E+02  0.75360041796E+02  0.00000000000E+00 0.  1.
         13    1    4    4    0    0  0.18108372562E+02 -0.29806892117E+02  0.34164447660E+02  0.48821854311E+02  0.00000000000E+00 0. -1.
         21    1    1    2  503  502 -0.47681150217E+02 -0.30528572533E+02  0.78868142522E+02  0.97085888428E+02  0.00000000000E+00 0. -1.
          1    1    1    2  501    0 -0.19588241301E+02  0.63384768343E+01  0.12236233953E+01  0.20624566421E+02  0.00000000000E+00 0. -1.
<scales pt_clust_5="13000.00000" pt_clust_6="13000.00000" pt_clust_7="13000.00000" pt_clust_8="13000.00000" pt_clust_9="56.61701" pt_clust_10="13000.00000"></scales>
<clustering>
<clus scale="   56.617">  1  9  2 -1</clus>
<clus scale="   80.682">  5  6 -1 -1</clus>
<clus scale="   85.130">  2  5  1 -1</clus>
<clus scale="   89.576">  7  8 -1 -1</clus>
<clus scale="   16.991">  7 10 -1 -1</clus>
<clus scale="   56.617">  1  5  2 -1</clus>
</clustering>
</event>
<event>
10    4  0.7508634E-005  0.3810285E+03  0.7546771E-02  0.1090698E+00
          2   -1    0    0  502    0 -0.00000000000E+00  0.00000000000E+00  0.16844264340E+03  0.16844264340E+03  0.00000000000E+00 0. -1.
         21   -1    0    0  503  502  0.00000000000E+00 -0.00000000000E+00 -0.66926508018E+03  0.66926508018E+03  0.00000000000E+00 0. -1.
         24    2    1    2    0    0  0.10248404728E+03  0.47551139277E+02 -0.26166854650E+03  0.29659407404E+03  0.82058063153E+02 0.  0.
         23    2    1    2    0    0  0.78179161210E+02  0.10796322989E+03 -0.60784769649E+02  0.17184707242E+03  0.89825318374E+02 0.  0.
        -13    1    3    3    0    0  0.21895465612E+02 -0.20758723586E+02 -0.91026685230E+02  0.95896785365E+02  0.00000000000E+00 0.  1.
         14    1    3    3    0    0  0.80588581672E+02  0.68309862863E+02 -0.17064186128E+03  0.20069728867E+03  0.00000000000E+00 0. -1.
        -11    1    4    4    0    0  0.10902417589E+02  0.27540256736E+02 -0.60088727145E+02  0.66992414349E+02  0.00000000000E+00 0.  1.
         11    1    4    4    0    0  0.67276743621E+02  0.80422973154E+02 -0.69604250316E+00  0.10485465807E+03  0.00000000000E+00 0. -1.
         21    1    1    2  503  501 -0.36725933358E+02  0.39677288516E+01 -0.14770960899E+03  0.15225854867E+03  0.00000000000E+00 0. -1.
          1    1    1    2  501    0 -0.14393727514E+03 -0.15948209802E+03 -0.30659511638E+02  0.21700802846E+03  0.00000000000E+00 0. -1.
<scales pt_clust_5="13000.00000" pt_clust_6="13000.00000" pt_clust_7="13000.00000" pt_clust_8="13000.00000" pt_clust_9="36.93964" pt_clust_10="13000.00000"></scales>
<clustering>
<clus scale="   36.940">  2  9  1 -1</clus>
<clus scale="   82.058">  5  6 -1 -1</clus>
<clus scale="   89.825">  7  8 -1 -1</clus>
<clus scale="  126.682">  1  5  2 -1</clus>
<clus scale="  160.896">  7 10 -1 -1</clus>
<clus scale="   36.940">  2  5  1 -1</clus>
</clustering>
</event>
<event>
10    4  0.7508634E-005  0.2087061E+03  0.7546771E-02  0.1191357E+00
          2   -1    0    0  502    0 -0.00000000000E+00  0.00000000000E+00  0.55680539103E+02  0.55680539103E+02  0.00000000000E+00 0. -1.
         21   -1    0    0  503  502  0.00000000000E+00 -0.00000000000E+00 -0.46783546787E+03  0.46783546787E+03  0.00000000000E+00 0. -1.
         24    2    1    2    0    0 -0.15361958790E+02  0.98324740533E+00 -0.19057589370E+03  0.20171298641E+03  0.64280643080E+02 0.  0.
         23    2    1    2    0    0  0.27896060339E+02  0.67149040721E+02 -0.14169960883E+03  0.18317237205E+03  0.90477372240E+02 0.  0.
        -13    1    3    3    0    0 -0.38641785646E+02 -0.18271433067E+01 -0.82458735670E+02  0.91082210881E+02  0.00000000000E+00 0.  1.
         14    1    3    3    0    0  0.23279826857E+02  0.28103907120E+01 -0.10811715803E+03  0.11063077553E+03  0.00000000000E+00 0. -1.
        -13    1    4    4    0    0 -0.21691811244E+02 -0.99418982918E+01 -0.22428299154E+02  0.32747589524E+02  0.00000000000E+00 0. -1.
         13    1    4    4    0    0  0.49587871583E+02  0.77090939013E+02 -0.11927130967E+03  0.15042478252E+03  0.00000000000E+00 0.  1.
         21    1    1    2  503  501 -0.92257572323E+01  0.21281757135E+02 -0.22641100106E+02  0.32413688424E+02  0.00000000000E+00 0. -1.
          1    1    1    2  501    0 -0.33083443175E+01 -0.89414045261E+02 -0.57238326139E+02  0.10621696009E+03  0.00000000000E+00 0. -1.
<scales pt_clust_5="13000.00000" pt_clust_6="13000.00000" pt_clust_7="13000.00000" pt_clust_8="13000.00000" pt_clust_9="23.19544" pt_clust_10="13000.00000"></scales>
<clustering>
<clus scale="   23.195">  2  9  1 -1</clus>
<clus scale="   64.281">  5  6 -1 -1</clus>
<clus scale="   67.975">  1  5  2 -1</clus>
<clus scale="   90.477">  7  8 -1 -1</clus>
<clus scale="   81.639">  7 10 -1 -1</clus>
<clus scale="   23.195">  2  5  1 -1</clus>
</clustering>
</event>
<event>
10    4  0.7508634E-005  0.1640789E+03  0.7546771E-02  0.1205203E+00
         21   -1    0    0  503  502  0.00000000000E+00  0.00000000000E+00  0.12705644113E+03  0.12705644113E+03  0.00000000000E+00 0. -1.
          2   -1    0    0  502    0 -0.00000000000E+00 -0.00000000000E+00 -0.78487420791E+03  0.78487420791E+03  0.00000000000E+00 0. -1.
         24    2    1    2    0    0 -0.47221241982E+02  0.60849821889E+02 -0.92029982438E+02  0.14413900219E+03  0.79837258010E+02 0.  0.
         23    2    1    2    0    0  0.81746184542E+01 -0.34233604236E+02 -0.48968854616E+03  0.50419907323E+03  0.11481754725E+03 0.  0.
        -13    1    3    3    0    0 -0.80979094100E+01  0.22529227902E+02  0.11846147877E+02  0.26710924099E+02  0.00000000000E+00 0.  1.
         14    1    3    3    0    0 -0.39123332572E+02  0.38320593987E+02 -0.10387613031E+03  0.11742807809E+03  0.00000000000E+00 0. -1.
        -11    1    4    4    0    0  0.59803043739E+02 -0.27745848807E+02 -0.22570602247E+03  0.23513707650E+03  0.00000000000E+00 0.  1.
         11    1    4    4    0    0 -0.51628425285E+02 -0.64877554287E+01 -0.26398252370E+03  0.26906199673E+03  0.00000000000E+00 0. -1.
         21    1    1    2  503  501 -0.35056860719E+01 -0.24557176584E+02  0.89358767039E+02  0.92737985763E+02  0.00000000000E+00 0. -1.
          1    1    1    2  501    0  0.42552309599E+02 -0.20590410693E+01 -0.16545800522E+03  0.17085458786E+03  0.00000000000E+00 0. -1.
<scales pt_clust_5="13000.00000" pt_clust_6="13000.00000" pt_clust_7="13000.00000" pt_clust_8="13000.00000" pt_clust_9="24.80614" pt_clust_10="13000.00000"></scales>
<clustering>
<clus scale="   24.806">  1  9  2 -1</clus>
<clus scale="   79.837">  5  6 -1 -1</clus>
<clus scale="  103.469">  2  5  1 -1</clus>
<clus scale="  114.818">  7  8 -1 -1</clus>
<clus scale="   30.749">  7 10 -1 -1</clus>
<clus scale="   24.806">  1  5  2 -1</clus>
</clustering>
</event>
<event>
10    4  0.7508634E-005  0.1682134E+03  0.7546771E-02  0.1211733E+00
         21   -1    0    0  503  502  0.00000000000E+00  0.00000000000E+00  0.46808883139E+02  0.46808883139E+02  0.00000000000E+00 0.  1.
          2   -1    0    0  502    0 -0.00000000000E+00 -0.00000000000E+00 -0.91323005970E+03  0.91323005970E+03  0.00000000000E+00 0. -1.
         24    2    1    2    0    0  0.34888408328E+02 -0.15857811776E+02 -0.13195300987E+03  0.15881881177E+03  0.79643875633E+02 0.  0.
         23    2    1    2    0    0  0.44701646597E+02 -0.78906098386E+01 -0.40792284289E+03  0.42076388908E+03  0.92632098468E+02 0.  0.
        -11    1    3    3    0    0  0.56209558360E+02 -0.28406438797E+02 -0.10307221481E+03  0.12079040393E+03  0.00000000000E+00 0.  1.
         12    1    3    3    0    0 -0.21321150032E+02  0.12548627021E+02 -0.28880795063E+02  0.38028407833E+02  0.00000000000E+00 0. -1.
        -13    1    4    4    0    0 -0.15201128709E+02 -0.33646717148E+02 -0.17711259337E+03  0.18092000061E+03  0.00000000000E+00 0.  1.
         13    1    4    4    0    0  0.59902775306E+02  0.25756107309E+02 -0.23081024952E+03  0.23984388847E+03  0.00000000000E+00 0. -1.
         21    1    1    2  503  501 -0.18753795200E+02  0.13114927877E+02  0.18809595765E+02  0.29622745661E+02  0.00000000000E+00 0.  1.
          1    1    1    2  501    0 -0.60836259725E+02  0.10633493737E+02 -0.34535491956E+03  0.35083349633E+03  0.00000000000E+00 0. -1.
<scales pt_clust_5="13000.00000" pt_clust_6="13000.00000" pt_clust_7="13000.00000" pt_clust_8="13000.00000" pt_clust_9="22.88463" pt_clust_10="13000.00000"></scales>
<clustering>
<clus scale="   22.885">  1  9  2 -1</clus>
<clus scale="   79.644">  5  6 -1 -1</clus>
<clus scale="   83.496">  2  5  1 -1</clus>
<clus scale="   92.632">  7  8 -1 -1</clus>
<clus scale="   52.221">  7 10 -1 -1</clus>
<clus scale="   22.885">  1  5  2 -1</clus>
</clustering>
</event>
<event>
10    4  0.7508634E-005  0.8493363E+03  0.7546771E-02  0.1015303E+00
          2   -1    0    0  503    0 -0.00000000000E+00  0.00000000000E+00  0.15554416112E+04  0.15554416112E+04  0.00000000000E+00 0. -1.
         21   -1    0    0  501  502  0.00000000000E+00 -0.00000000000E+00 -0.18533628324E+03  0.18533628324E+03  0.00000000000E+00 0. -1.
         24    2    1    2    0    0 -0.29725728167E+02 -0.45330880368E+02  0.82915150135E+02  0.12788365001E+03  0.80875201323E+02 0.  0.
         23    2    1    2    0    0  0.88523196344E+02 -0.32273088448E+03  0.10898614354E+03  0.36272430204E+03  0.87745995454E+02 0.  0.
        -11    1    3    3    0    0  0.28198618727E+02 -0.14577543843E+02  0.28683752578E+02  0.42783461110E+02  0.00000000000E+00 0.  1.
         12    1    3    3    0    0 -0.57924346894E+02 -0.30753336525E+02  0.54231397557E+02  0.85100188904E+02  0.00000000000E+00 0. -1.
        -11    1    4    4    0    0 -0.44536017254E+01 -0.63192964101E+02 -0.67876079498E+01  0.63712297886E+02  0.00000000000E+00 0.  1.
         11    1    4    4    0    0  0.92976798069E+02 -0.25953792038E+03  0.11577375149E+03  0.29901200415E+03  0.00000000000E+00 0. -1.
         21    1    1    2  503  502  0.66012450044E+02  0.85392453057E+02  0.26655734626E+03  0.28758013396E+03  0.00000000000E+00 0. -1.
          1    1    1    2  501    0 -0.12480991822E+03  0.28266931179E+03  0.91164668802E+03  0.96258980843E+03  0.00000000000E+00 0. -1.
<scales pt_clust_5="13000.00000" pt_clust_6="13000.00000" pt_clust_7="13000.00000" pt_clust_8="13000.00000" pt_clust_9="97.60965" pt_clust_10="13000.00000"></scales>
<clustering>
<clus scale="   80.875">  5  6 -1 -1</clus>
<clus scale="   87.746">  7  8 -1 -1</clus>
<clus scale="   97.362">  1  5  2 -1</clus>
<clus scale="   97.610">  2  9  1 -1</clus>
<clus scale="  300.269">  7 10 -1 -1</clus>
<clus scale="   97.610">  2  5  1 -1</clus>
</clustering>
</event>
<event>
10    4  0.7508634E-005  0.2439292E+03  0.7546771E-02  0.1146710E+00
         21   -1    0    0  501  502  0.00000000000E+00  0.00000000000E+00  0.35003860955E+03  0.35003860955E+03  0.00000000000E+00 0.  1.
          2   -1    0    0  503    0 -0.00000000000E+00 -0.00000000000E+00 -0.13962364893E+03  0.13962364893E+03  0.00000000000E+00 0. -1.
         24    2    1    2    0    0 -0.91918850434E+02  0.57192460411E+00  0.76863814177E+02  0.14384084489E+03  0.79578518239E+02 0.  0.
         23    2    1    2    0    0 -0.57193999977E+02 -0.22768541145E+02  0.19798192625E+02  0.10636025683E+03  0.84445104664E+02 0.  0.
        -11    1    3    3    0    0 -0.40233281008E+02  0.51327943211E+01 -0.10799944259E+02  0.41972625296E+02  0.00000000000E+00 0.  1.
         12    1    3    3    0    0 -0.51685569426E+02 -0.45608697170E+01  0.87663758437E+02  0.10186821959E+03  0.00000000000E+00 0. -1.
        -13    1    4    4    0    0 -0.17211326064E+02 -0.48861286539E+02  0.26432766733E+02  0.58157942057E+02  0.00000000000E+00 0.  1.
         13    1    4    4    0    0 -0.39982673913E+02  0.26092745395E+02 -0.66345741084E+01  0.48202314769E+02  0.00000000000E+00 0. -1.
         21    1    1    2  503  502  0.11014648147E+02  0.23437415786E+02  0.96938002085E+02  0.10033748642E+03  0.00000000000E+00 0.  1.
          1    1    1    2  501    0  0.13809820226E+03 -0.12407992458E+01  0.16814951733E+02  0.13912367036E+03  0.00000000000E+00 0. -1.
<scales pt_clust_5="13000.00000" pt_clust_6="13000.00000" pt_clust_7="13000.00000" pt_clust_8="13000.00000" pt_clust_9="25.89662" pt_clust_10="13000.00000"></scales>
<clustering>
<clus scale="   25.897">  1  9  2 -1</clus>
<clus scale="   79.579">  5  6 -1 -1</clus>
<clus scale="   84.445">  7  8 -1 -1</clus>
<clus scale="  118.466">  2  5  1 -1</clus>
<clus scale="   89.623">  7 10 -1 -1</clus>
<clus scale="   25.897">  1  5  2 -1</clus>
</clustering>
</event>
<event>
10    4  0.7508634E-005  0.7050820E+03  0.7546771E-02  0.9771398E-01
         21   -1    0    0  501  502  0.00000000000E+00  0.00000000000E+00  0.46246310760E+03  0.46246310760E+03  0.00000000000E+00 0. -1.
          2   -1    0    0  503    0 -0.00000000000E+00 -0.00000000000E+00 -0.20090455798E+04  0.20090455798E+04  0.00000000000E+00 0. -1.
         24    2    1    2    0    0 -0.26253826316E+03  0.49989111788E+03  0.53558449804E+00  0.57001139692E+03  0.78071995058E+02 0.  0.
         23    2    1    2    0    0  0.23082845462E+03 -0.55916701562E+02 -0.76361054120E+03  0.80524546947E+03  0.94396792821E+02 0.  0.
        -11    1    3    3    0    0 -0.17675041715E+03  0.25312389317E+03  0.32099456592E+01  0.30874377566E+03  0.00000000000E+00 0.  1.
         12    1    3    3    0    0 -0.85787846013E+02  0.24676722471E+03 -0.26743611612E+01  0.26126762127E+03  0.00000000000E+00 0. -1.
        -13    1    4    4    0    0  0.57565733610E+02  0.25800569498E+02 -0.16094826861E+03  0.17286939649E+03  0.00000000000E+00 0.  1.
         13    1    4    4    0    0  0.17326272101E+03 -0.81717271060E+02 -0.60266227259E+03  0.63237607298E+03  0.00000000000E+00 0. -1.
         21    1    1    2  503  502 -0.19658032126E+02 -0.76108493800E+01  0.10390575240E+03  0.10602249118E+03  0.00000000000E+00 0.  1.
          1    1    1    2  501    0  0.51367840665E+02 -0.43636356694E+03 -0.88741326787E+03  0.99022932980E+03  0.00000000000E+00 0. -1.
<scales pt_clust_5="13000.00000" pt_clust_6="13000.00000" pt_clust_7="13000.00000" pt_clust_8="13000.00000" pt_clust_9="21.07993" pt_clust_10="13000.00000"></scales>
<clustering>
<clus scale="   21.080">  1  9  2 -1</clus>
<clus scale="   78.072">  5  6 -1 -1</clus>
<clus scale="   94.397">  7  8 -1 -1</clus>
<clus scale="  440.143">  7 10 -1 -1</clus>
<clus scale="  572.154">  2  5  1 -1</clus>
<clus scale="   21.080">  1  5  2 -1</clus>
</clustering>
</event>
<event>
10    4  0.7508634E-005  0.1777490E+03  0.7546771E-02  0.1201230E+00
         21   -1    0    0  503  502  0.00000000000E+00  0.00000000000E+00  0.25924219591E+03  0.25924219591E+03  0.00000000000E+00 0. -1.
         -3   -1    0    0    0  501 -0.00000000000E+00 -0.00000000000E+00 -0.24811981363E+03  0.24811981363E+03  0.00000000000E+00 0.  1.
         24    2    1    2    0    0 -0.41156222564E+02 -0.20959326042E+02 -0.67865152613E+02  0.11427879604E+03  0.79503687222E+02 0.  0.
         23    2    1    2    0    0 -0.10043934136E+02 -0.42535243622E+02 -0.81861883950E+02  0.13024229603E+03  0.91386870329E+02 0.  0.
        -13    1    3    3    0    0 -0.25426271098E+02 -0.48909387815E+02 -0.59548148289E+02  0.81145581784E+02  0.00000000000E+00 0.  1.
         14    1    3    3    0    0 -0.15729951466E+02  0.27950061772E+02 -0.83170043239E+01  0.33133214259E+02  0.00000000000E+00 0. -1.
        -11    1    4    4    0    0 -0.30914223322E+02  0.11597273349E+02 -0.59535350561E+02  0.68078219125E+02  0.00000000000E+00 0. -1.
         11    1    4    4    0    0  0.20870289186E+02 -0.54132516971E+02 -0.22326533388E+02  0.62164076906E+02  0.00000000000E+00 0.  1.
         21    1    1    2  503  501  0.26970764599E+02 -0.32621304886E+01  0.18564247145E+03  0.18761980397E+03  0.00000000000E+00 0. -1.
         -4    1    1    2    0  502  0.24229392102E+02  0.66756700153E+02 -0.24793052609E+02  0.75221113490E+02  0.00000000000E+00 0.  1.
<scales pt_clust_5="13000.00000" pt_clust_6="13000.00000" pt_clust_7="13000.00000" pt_clust_8="13000.00000" pt_clust_9="27.16733" pt_clust_10="13000.00000"></scales>
<clustering>
<clus scale="   27.167">  1  9  2 -1</clus>
<clus scale="   79.504">  5  6 -1 -1</clus>
<clus scale="   88.677">  2  5  1 -1</clus>
<clus scale="   91.387">  7  8 -1 -1</clus>
<clus scale="   62.429">  7 10 -1 -1</clus>
<clus scale="   27.167">  1  5  2 -1</clus>
</clustering>
</event>
<event>
10    4  0.7508634E-005  0.2082064E+03  0.7546771E-02  0.1174779E+00
         21   -1    0    0  501  502  0.00000000000E+00  0.00000000000E+00  0.19578087837E+03  0.19578087837E+03  0.00000000000E+00 0.  1.
          2   -1    0    0  503    0 -0.00000000000E+00 -0.00000000000E+00 -0.42276132159E+03  0.42276132159E+03  0.00000000000E+00 0. -1.
         24    2    1    2    0    0  0.50159453489E+02 -0.60630489623E+01 -0.27928346094E+02  0.10095849977E+03  0.82824482034E+02 0.  0.
         23    2    1    2    0    0  0.82241416579E+01 -0.14605536677E+02 -0.53612987112E+02  0.10935060210E+03  0.93820272782E+02 0.  0.
        -11    1    3    3    0    0  0.50811127425E+02 -0.35614163107E+02 -0.27173677860E+01  0.62108963698E+02  0.00000000000E+00 0.  1.
         12    1    3    3    0    0 -0.65167393572E+00  0.29551114144E+02 -0.25210978308E+02  0.38849536076E+02  0.00000000000E+00 0. -1.
        -11    1    4    4    0    0  0.30907098415E+02  0.16149290169E+02 -0.61154877314E+02  0.70398631554E+02  0.00000000000E+00 0.  1.
         11    1    4    4    0    0 -0.22682956757E+02 -0.30754826846E+02  0.75418902022E+01  0.38951970546E+02  0.00000000000E+00 0. -1.
         21    1    1    2  503  502 -0.58312520583E+00  0.53007962538E+02  0.12183852321E+03  0.13287140349E+03  0.00000000000E+00 0.  1.
          1    1    1    2  501    0 -0.57800469941E+02 -0.32339376899E+02 -0.26727763323E+03  0.27536169459E+03  0.00000000000E+00 0. -1.
<scales pt_clust_5="13000.00000" pt_clust_6="13000.00000" pt_clust_7="13000.00000" pt_clust_8="13000.00000" pt_clust_9="53.01117" pt_clust_10="13000.00000"></scales>
<clustering>
<clus scale="   53.011">  1  9  2 -1</clus>
<clus scale="   82.824">  5  6 -1 -1</clus>
<clus scale="   93.820">  7  8 -1 -1</clus>
<clus scale="   64.792">  7 10 -1 -1</clus>
<clus scale="   99.190">  2  5  1 -1</clus>
<clus scale="   53.011">  1  5  2 -1</clus>
</clustering>
</event>
<event>
10    4  0.7508634E-005  0.4776357E+03  0.7546771E-02  0.1061381E+00
          2   -1    0    0  502    0 -0.00000000000E+00  0.00000000000E+00  0.21496060019E+04  0.21496060019E+04  0.00000000000E+00 0. -1.
         21   -1    0    0  503  502  0.00000000000E+00 -0.00000000000E+00 -0.64141357123E+02  0.64141357123E+02  0.00000000000E+00 0.  1.
         24    2    1    2    0    0  0.62496882531E+02 -0.93441834539E+02  0.32586680901E+03  0.35368460327E+03  0.79160499057E+02 0.  0.
         23    2    1    2    0    0  0.17801896415E+03  0.22755481818E+02  0.63670694991E+03  0.66767991611E+03  0.90510589251E+02 0.  0.
        -11    1    3    3    0    0  0.16419436743E+02 -0.78651656284E+02  0.13801078546E+03  0.15969551604E+03  0.00000000000E+00 0.  1.
         12    1    3    3    0    0  0.46077445788E+02 -0.14790178254E+02  0.18785602355E+03  0.19398908723E+03  0.00000000000E+00 0. -1.
        -13    1    4    4    0    0  0.14923912931E+03  0.20374652721E+02  0.61008280035E+03  0.62840151773E+03  0.00000000000E+00 0.  1.
         13    1    4    4    0    0  0.28779834831E+02  0.23808290975E+01  0.26624149553E+02  0.39278398383E+02  0.00000000000E+00 0. -1.
         21    1    1    2  503  501  0.25466650113E+02 -0.68975960587E+01 -0.83752198370E+01  0.27681607733E+02  0.00000000000E+00 0.  1.
          1    1    1    2  501    0 -0.26598249679E+03  0.77583948779E+02  0.11312661057E+04  0.11647012319E+04  0.00000000000E+00 0. -1.
<scales pt_clust_5="13000.00000" pt_clust_6="13000.00000" pt_clust_7="13000.00000" pt_clust_8="13000.00000" pt_clust_9="26.38422" pt_clust_10="13000.00000"></scales>
<clustering>
<clus scale="   26.384">  2  9  1 -1</clus>
<clus scale="   79.160">  5  6 -1 -1</clus>
<clus scale="   90.511">  7  8 -1 -1</clus>
<clus scale="  142.534">  1  5  2 -1</clus>
<clus scale="  215.143">  7 10 -1 -1</clus>
<clus scale="   26.384">  2  5  1 -1</clus>
</clustering>
</event>
<event>
10    4  0.7508634E-005  0.1739548E+03  0.7546771E-02  0.1189551E+00
         21   -1    0    0  501  502  0.00000000000E+00  0.00000000000E+00  0.12288630372E+03  0.12288630372E+03  0.00000000000E+00 0. -1.
          2   -1    0    0  503    0 -0.00000000000E+00 -0.00000000000E+00 -0.29346911479E+03  0.29346911479E+03  0.00000000000E+00 0. -1.
         24    2    1    2    0    0 -0.82489491732E+02 -0.50765677564E+02 -0.16385374333E+03  0.20680357942E+03  0.80857906190E+02 0.  0.
         23    2    1    2    0    0  0.45950649168E+00  0.33620271647E+02 -0.44810343427E+02  0.10550975432E+03  0.89408095647E+02 0.  0.
        -11    1    3    3    0    0 -0.59186929124E+02 -0.61763764899E+02 -0.73294117111E+02  0.11264938010E+03  0.00000000000E+00 0.  1.
         12    1    3    3    0    0 -0.23302562608E+02  0.10998087335E+02 -0.90559626216E+02  0.94154199320E+02  0.00000000000E+00 0. -1.
        -11    1    4    4    0    0  0.43324252950E+02  0.20467592783E+02 -0.35708675675E+02  0.59758035162E+02  0.00000000000E+00 0.  1.
         11    1    4    4    0    0 -0.42864746458E+02  0.13152678864E+02 -0.91016677523E+01  0.45751719160E+02  0.00000000000E+00 0. -1.
         21    1    1    2  503  502  0.38776866016E+02 -0.14196966634E+02  0.59848685906E+01  0.41725506009E+02  0.00000000000E+00 0. -1.
          1    1    1    2  501    0  0.43253119224E+02  0.31342372551E+02  0.32096407101E+02  0.62316578761E+02  0.00000000000E+00 0. -1.
<scales pt_clust_5="13000.00000" pt_clust_6="13000.00000" pt_clust_7="13000.00000" pt_clust_8="13000.00000" pt_clust_9="41.29406" pt_clust_10="13000.00000"></scales>
<clustering>
<clus scale="   41.294">  1  9  2 -1</clus>
<clus scale="   80.858">  5  6 -1 -1</clus>
<clus scale="   89.408">  7  8 -1 -1</clus>
<clus scale="   66.449">  7 10 -1 -1</clus>
<clus scale="  122.169">  2  5  1 -1</clus>
<clus scale="   41.294">  1  5  2 -1</clus>
</clustering>
</event>
<event>
10    4  0.7508634E-005  0.4123028E+03  0.7546771E-02  0.1090511E+00
         21   -1    0    0  501  502  0.00000000000E+00  0.00000000000E+00  0.26080615574E+03  0.26080615574E+03  0.00000000000E+00 0.  1.
          2   -1    0    0  503    0 -0.00000000000E+00 -0.00000000000E+00 -0.78196626657E+03  0.78196626657E+03  0.00000000000E+00 0. -1.
         24    2    1    2    0    0 -0.57572604211E+02  0.82029799839E+01 -0.32936334608E+03  0.34434992561E+03  0.81943662937E+02 0.  0.
         23    2    1    2    0    0  0.11868018189E+03 -0.87646431474E+02  0.10525061764E+01  0.17289098676E+03  0.90129368176E+02 0.  0.
        -13    1    3    3    0    0 -0.22603299163E+01  0.20467339140E+02 -0.16468819956E+02  0.26367462782E+02  0.00000000000E+00 0.  1.
         14    1    3    3    0    0 -0.55312274294E+02 -0.12264359156E+02 -0.31289452612E+03  0.31798246283E+03  0.00000000000E+00 0. -1.
        -11    1    4    4    0    0  0.98576112115E+02 -0.10049653533E+03 -0.18578939570E+02  0.14199288887E+03  0.00000000000E+00 0.  1.
         11    1    4    4    0    0  0.20104069779E+02  0.12850103861E+02  0.19631445747E+02  0.30898097887E+02  0.00000000000E+00 0. -1.
         21    1    1    2  503  502 -0.83576500877E+02 -0.85487110264E+02  0.12110860697E+03  0.17017747266E+03  0.00000000000E+00 0.  1.
          1    1    1    2  501    0  0.22468923193E+02  0.16493056175E+03 -0.31395787790E+03  0.35535403727E+03  0.00000000000E+00 0. -1.
<scales pt_clust_5="13000.00000" pt_clust_6="13000.00000" pt_clust_7="13000.00000" pt_clust_8="13000.00000" pt_clust_9="121.47629" pt_clust_10="13000.00000"></scales>
<clustering>
<clus scale="   81.944">  5  6 -1 -1</clus>
<clus scale="   90.129">  7  8 -1 -1</clus>
<clus scale="  100.482">  2  5  1 -1</clus>
<clus scale="  121.476">  1  9  2 -1</clus>
<clus scale="  155.272">  7 10 -1 -1</clus>
<clus scale="  121.476">  1  5  2 -1</clus>
</clustering>
</event>
<event>
10    4  0.7508634E-005  0.4018552E+03  0.7546771E-02  0.1098038E+00
         21   -1    0    0  503  502  0.00000000000E+00  0.00000000000E+00  0.39299033415E+03  0.39299033415E+03  0.00000000000E+00 0. -1.
          2   -1    0    0  502    0 -0.00000000000E+00 -0.00000000000E+00 -0.10152773104E+04  0.10152773104E+04  0.00000000000E+00 0. -1.
         24    2    1    2    0    0  0.37466443575E+02  0.34727753451E+01 -0.18512657645E+03  0.20517510400E+03  0.80057350883E+02 0.  0.
         23    2    1    2    0    0  0.98217590705E+02 -0.63970431622E+01 -0.66213832198E+03  0.68020961215E+03  0.12070767057E+03 0.  0.
        -11    1    3    3    0    0  0.48247761160E+02 -0.18573994206E+02 -0.16656660419E+03  0.17440548543E+03  0.00000000000E+00 0.  1.
         12    1    3    3    0    0 -0.10781317586E+02  0.22046769551E+02 -0.18559972265E+02  0.30769618571E+02  0.00000000000E+00 0. -1.
        -13    1    4    4    0    0  0.64283216583E+02  0.51389599590E+02 -0.26592490639E+03  0.27836896149E+03  0.00000000000E+00 0. -1.
         13    1    4    4    0    0  0.33934374122E+02 -0.57786642752E+02 -0.39621341559E+03  0.40184065066E+03  0.00000000000E+00 0.  1.
         21    1    1    2  503  501  0.62894838163E+01 -0.61077103749E+02  0.32960015275E+03  0.33527038477E+03  0.00000000000E+00 0. -1.
          1    1    1    2  501    0 -0.14197351810E+03  0.64001371566E+02 -0.10462223059E+03  0.18761254365E+03  0.00000000000E+00 0. -1.
<scales pt_clust_5="13000.00000" pt_clust_6="13000.00000" pt_clust_7="13000.00000" pt_clust_8="13000.00000" pt_clust_9="61.40008" pt_clust_10="13000.00000"></scales>
<clustering>
<clus scale="   61.400">  1  9  2 -1</clus>
<clus scale="   80.057">  5  6 -1 -1</clus>
<clus scale="   89.085">  2  5  1 -1</clus>
<clus scale="  120.708">  7  8 -1 -1</clus>
<clus scale="  133.255">  7 10 -1 -1</clus>
<clus scale="   61.400">  1  5  2 -1</clus>
</clustering>
</event>
<event>
10    4  0.7508634E-005  0.5662228E+03  0.7546771E-02  0.1018432E+00
          2   -1    0    0  502    0 -0.00000000000E+00  0.00000000000E+00  0.15462591776E+04  0.15462591776E+04  0.00000000000E+00 0. -1.
         21   -1    0    0  503  502  0.00000000000E+00 -0.00000000000E+00 -0.26663428507E+03  0.26663428507E+03  0.00000000000E+00 0. -1.
         24    2    1    2    0    0 -0.67092133679E+02  0.28031254114E+03  0.90560148692E+03  0.95345470578E+03  0.76716020073E+02 0.  0.
         23    2    1    2    0    0  0.16264939755E+03  0.46632069731E+02  0.34456544803E+03  0.39441040909E+03  0.90580607043E+02 0.  0.
        -11    1    3    3    0    0 -0.57066541069E+02  0.20293086937E+03  0.54147459353E+03  0.58106132490E+03  0.00000000000E+00 0.  1.
         12    1    3    3    0    0 -0.10025592610E+02  0.77381671764E+02  0.36412689339E+03  0.37239338088E+03  0.00000000000E+00 0. -1.
        -11    1    4    4    0    0  0.10433662494E+03  0.28224291610E+02  0.29962113345E+03  0.31852090285E+03  0.00000000000E+00 0.  1.
         11    1    4    4    0    0  0.58312772609E+02  0.18407778121E+02  0.44944314580E+02  0.75889506243E+02  0.00000000000E+00 0. -1.
         21    1    1    2  503  501 -0.45104519342E+02 -0.81544183000E+01 -0.10562584594E+03  0.11514222307E+03  0.00000000000E+00 0. -1.
          1    1    1    2  501    0 -0.50452744527E+02 -0.31879019257E+03  0.13508380354E+03  0.34988612474E+03  0.00000000000E+00 0. -1.
<scales pt_clust_5="13000.00000" pt_clust_6="13000.00000" pt_clust_7="13000.00000" pt_clust_8="13000.00000" pt_clust_9="45.83571" pt_clust_10="13000.00000"></scales>
<clustering>
<clus scale="   45.836">  2  9  1 -1</clus>
<clus scale="   76.716">  5  6 -1 -1</clus>
<clus scale="   90.581">  7  8 -1 -1</clus>
<clus scale="  298.727">  1  5  2 -1</clus>
<clus scale="  233.521">  7 10 -1 -1</clus>
<clus scale="   45.836">  2  5  1 -1</clus>
</clustering>
</event>
<event>
10    4  0.7508634E-005  0.1156907E+03  0.7546771E-02  0.1264114E+00
         -1   -1    0    0    0  501 -0.00000000000E+00  0.00000000000E+00  0.15471201616E+03  0.15471201616E+03  0.00000000000E+00 0.  1.
         21   -1    0    0  503  502  0.00000000000E+00 -0.00000000000E+00 -0.15564750315E+03  0.15564750315E+03  0.00000000000E+00 0.  1.
         24    2    1    2    0    0  0.93187180554E+01 -0.58137181618E+02 -0.47103712978E+02  0.10988441855E+03  0.79931566181E+02 0.  0.
         23    2    1    2    0    0 -0.11873816858E+01  0.13004120212E+02  0.50816395461E+02  0.99617160563E+02  0.84680314201E+02 0.  0.
        -13    1    3    3    0    0  0.17041594421E+02 -0.76958373539E+02 -0.35321740854E+02  0.86374953401E+02  0.00000000000E+00 0.  1.
         14    1    3    3    0    0 -0.77228763654E+01  0.18821191920E+02 -0.11781972125E+02  0.23509465154E+02  0.00000000000E+00 0. -1.
        -11    1    4    4    0    0  0.17871256275E+02  0.44358304921E+02  0.36783960839E+02  0.60333247810E+02  0.00000000000E+00 0.  1.
         11    1    4    4    0    0 -0.19058637960E+02 -0.31354184710E+02  0.14032434622E+02  0.39283912753E+02  0.00000000000E+00 0. -1.
         21    1    1    2  503  501 -0.31586670283E+02  0.32141453991E+02 -0.37377394589E+02  0.58547932760E+02  0.00000000000E+00 0.  1.
         -2    1    1    2    0  502  0.23455333914E+02  0.12991607416E+02  0.32729225115E+02  0.42310007432E+02  0.00000000000E+00 0.  1.
<scales pt_clust_5="13000.00000" pt_clust_6="13000.00000" pt_clust_7="13000.00000" pt_clust_8="13000.00000" pt_clust_9="45.06430" pt_clust_10="13000.00000"></scales>
<clustering>
<clus scale="   45.064">  2  9  1 -1</clus>
<clus scale="   79.932">  5  6 -1 -1</clus>
<clus scale="   84.680">  7  8 -1 -1</clus>
<clus scale="   26.347">  7 10 -1 -1</clus>
<clus scale="   88.213">  1  5  2 -1</clus>
<clus scale="   45.064">  2  5  1 -1</clus>
</clustering>
</event>
<event>
10    4  0.7508634E-005  0.2210355E+03  0.7546771E-02  0.1176637E+00
         21   -1    0    0  503  502  0.00000000000E+00  0.00000000000E+00  0.10239920659E+03  0.10239920659E+03  0.00000000000E+00 0. -1.
          2   -1    0    0  502    0 -0.00000000000E+00 -0.00000000000E+00 -0.60479757670E+03  0.60479757670E+03  0.00000000000E+00 0. -1.
         24    2    1    2    0    0  0.47872137052E+00  0.71877904919E+01 -0.36639329432E+03  0.37488558095E+03  0.79014297318E+02 0.  0.
         23    2    1    2    0    0 -0.68249650691E+02 -0.65357003052E+02 -0.11629064386E+03  0.17932909673E+03  0.98518315124E+02 0.  0.
        -11    1    3    3    0    0  0.38109175897E+02  0.14080770331E+02 -0.20874423256E+03  0.21266107309E+03  0.00000000000E+00 0.  1.
         12    1    3    3    0    0 -0.37630454527E+02 -0.68929798388E+01 -0.15764906175E+03  0.16222450786E+03  0.00000000000E+00 0. -1.
        -13    1    4    4    0    0 -0.70797768185E+02 -0.15998069197E+01 -0.46248992386E+02  0.84580450808E+02  0.00000000000E+00 0. -1.
         13    1    4    4    0    0  0.25481174945E+01 -0.63757196132E+02 -0.70041651478E+02  0.94748645918E+02  0.00000000000E+00 0.  1.
         21    1    1    2  503  501 -0.90854703585E+01  0.19855058305E+02  0.41927253182E+02  0.47272229388E+02  0.00000000000E+00 0. -1.
          1    1    1    2  501    0  0.76856399679E+02  0.38314154255E+02 -0.61641685110E+02  0.10570987622E+03  0.00000000000E+00 0. -1.
<scales pt_clust_5="13000.00000" pt_clust_6="13000.00000" pt_clust_7="13000.00000" pt_clust_8="13000.00000" pt_clust_9="21.83504" pt_clust_10="13000.00000"></scales>
<clustering>
<clus scale="   21.835">  1  9  2 -1</clus>
<clus scale="   79.014">  5  6 -1 -1</clus>
<clus scale="   79.486">  2  5  1 -1</clus>
<clus scale="   98.518">  7  8 -1 -1</clus>
<clus scale="   88.252">  7 10 -1 -1</clus>
<clus scale="   21.835">  1  5  2 -1</clus>
</clustering>
</event>
<event>
10    4  0.1741779E-004  0.3376128E+03  0.7546771E-02  0.1118819E+00
          2   -1    0    0  503    0 -0.00000000000E+00  0.00000000000E+00  0.41542267895E+03  0.41542267895E+03  0.00000000000E+00 0. -1.
         21   -1    0    0  501  502  0.00000000000E+00 -0.00000000000E+00 -0.46804884781E+03  0.46804884781E+03  0.00000000000E+00 0. -1.
         24    2    1    2    0    0 -0.54921133944E+02 -0.17070546141E+02 -0.28523107609E+03  0.30200800540E+03  0.80897058392E+02 0.  0.
         23    2    1    2    0    0 -0.79415611134E+02  0.10666906670E+02  0.34329990763E+03  0.36386291028E+03  0.90115307853E+02 0.  0.
        -11    1    3    3    0    0  0.40031208598E+01 -0.25974681504E+02 -0.29872150389E+02  0.39787616475E+02  0.00000000000E+00 0.  1.
         12    1    3    3    0    0 -0.58924254804E+02  0.89041353633E+01 -0.25535892570E+03  0.26222038892E+03  0.00000000000E+00 0. -1.
        -11    1    4    4    0    0 -0.52370728606E+01 -0.23829800037E+02  0.23904620949E+02  0.34157242346E+02  0.00000000000E+00 0.  1.
         11    1    4    4    0    0 -0.74178538274E+02  0.34496706708E+02  0.31939528668E+03  0.32970566794E+03  0.00000000000E+00 0. -1.
         21    1    1    2  503  502  0.24151005832E+02  0.18304263122E+02 -0.10203081099E+03  0.10643591275E+03  0.00000000000E+00 0. -1.
          1    1    1    2  501    0  0.11018573925E+03 -0.11900623651E+02 -0.86641894136E+01  0.11116469833E+03  0.00000000000E+00 0. -1.
<scales pt_clust_5="13000.00000" pt_clust_6="13000.00000" pt_clust_7="13000.00000" pt_clust_8="13000.00000" pt_clust_9="30.30375" pt_clust_10="13000.00000"></scales>
<clustering>
<clus scale="   30.304">  2  9  1 -1</clus>
<clus scale="   80.897">  5  6 -1 -1</clus>
<clus scale="   88.345">  1  5  2 -1</clus>
<clus scale="   90.115">  7  8 -1 -1</clus>
<clus scale="  109.743">  7 10 -1 -1</clus>
<clus scale="   30.304">  2  5  1 -1</clus>
</clustering>
</event>
<event>
10    4  0.7508634E-005  0.4197443E+03  0.7546771E-02  0.1087831E+00
         21   -1    0    0  501  502  0.00000000000E+00  0.00000000000E+00  0.18339483429E+03  0.18339483429E+03  0.00000000000E+00 0.  1.
          2   -1    0    0  503    0 -0.00000000000E+00 -0.00000000000E+00 -0.10210068758E+04  0.10210068758E+04  0.00000000000E+00 0. -1.
         24    2    1    2    0    0  0.64696971989E+02  0.17867960469E+02 -0.29107221916E+03  0.30902719765E+03  0.79182131354E+02 0.  0.
         23    2    1    2    0    0  0.34606494868E+02  0.11168423873E+02  0.12199230073E+02  0.10542187333E+03  0.98196776845E+02 0.  0.
        -13    1    3    3    0    0  0.85067669327E+01 -0.27496615938E+02 -0.53894337807E+02  0.61098515688E+02  0.00000000000E+00 0.  1.
         14    1    3    3    0    0  0.56190205056E+02  0.45364576407E+02 -0.23717788135E+03  0.24792868196E+03  0.00000000000E+00 0. -1.
        -11    1    4    4    0    0 -0.28187678310E+02 -0.14097287120E+02  0.19939438734E+02  0.37294234537E+02  0.00000000000E+00 0. -1.
         11    1    4    4    0    0  0.62794173178E+02  0.25265710994E+02 -0.77402086614E+01  0.68127638791E+02  0.00000000000E+00 0.  1.
         21    1    1    2  503  502 -0.53573532868E+01 -0.70038312535E+02  0.10059824443E+03  0.12269504163E+03  0.00000000000E+00 0.  1.
          1    1    1    2  501    0 -0.93946113571E+02  0.41001928193E+02 -0.65933729682E+03  0.66725759744E+03  0.00000000000E+00 0. -1.
<scales pt_clust_5="13000.00000" pt_clust_6="13000.00000" pt_clust_7="13000.00000" pt_clust_8="13000.00000" pt_clust_9="70.24291" pt_clust_10="13000.00000"></scales>
<clustering>
<clus scale="   70.243">  1  9  2 -1</clus>
<clus scale="   79.182">  5  6 -1 -1</clus>
<clus scale="   98.197">  7  8 -1 -1</clus>
<clus scale="  101.295">  7 10 -1 -1</clus>
<clus scale="  102.236">  2  5  1 -1</clus>
<clus scale="   70.243">  1  5  2 -1</clus>
</clustering>
</event>
<event>
10    4  0.7508634E-005  0.1698072E+03  0.7546771E-02  0.1210755E+00
          2   -1    0    0  503    0 -0.00000000000E+00  0.00000000000E+00  0.72973600879E+03  0.72973600879E+03  0.00000000000E+00 0. -1.
         21   -1    0    0  501  502  0.00000000000E+00 -0.00000000000E+00 -0.87421765699E+02  0.87421765699E+02  0.00000000000E+00 0.  1.
         24    2    1    2    0    0  0.15305510677E+02 -0.17745234405E+02  0.36144812666E+03  0.37105549378E+03  0.80549855337E+02 0.  0.
         23    2    1    2    0    0 -0.64505192168E+01  0.63205123246E+02  0.19641521031E+03  0.22526657482E+03  0.90164283891E+02 0.  0.
        -11    1    3    3    0    0  0.43295541417E+02  0.80792934001E+01  0.23103347407E+03  0.23519405824E+03  0.00000000000E+00 0.  1.
         12    1    3    3    0    0 -0.27990030740E+02 -0.25824527805E+02  0.13041465259E+03  0.13586143554E+03  0.00000000000E+00 0. -1.
        -11    1    4    4    0    0  0.16350016243E+02  0.20209244290E+02  0.34071371353E+01  0.26217268534E+02  0.00000000000E+00 0.  1.
         11    1    4    4    0    0 -0.22800535460E+02  0.42995878956E+02  0.19300807317E+03  0.19904930629E+03  0.00000000000E+00 0. -1.
         21    1    1    2  503  502 -0.19607775418E+02  0.10049098886E+02 -0.60959738035E+02  0.64819278818E+02  0.00000000000E+00 0.  1.
          1    1    1    2  501    0  0.10752783957E+02 -0.55508987728E+02  0.14541064416E+03  0.15601642707E+03  0.00000000000E+00 0. -1.
<scales pt_clust_5="13000.00000" pt_clust_6="13000.00000" pt_clust_7="13000.00000" pt_clust_8="13000.00000" pt_clust_9="22.03291" pt_clust_10="13000.00000"></scales>
<clustering>
<clus scale="   22.033">  2  9  1 -1</clus>
<clus scale="   80.550">  5  6 -1 -1</clus>
<clus scale="   82.878">  1  5  2 -1</clus>
<clus scale="   90.164">  7  8 -1 -1</clus>
<clus scale="   60.180">  7 10 -1 -1</clus>
<clus scale="   22.033">  2  5  1 -1</clus>
</clustering>
</event>
<event>
10    4  0.7508634E-005  0.3197107E+03  0.7546771E-02  0.1098527E+00
         21   -1    0    0  501  502  0.00000000000E+00  0.00000000000E+00  0.59835573165E+02  0.59835573165E+02  0.00000000000E+00 0.  1.
          2   -1    0    0  503    0 -0.00000000000E+00 -0.00000000000E+00 -0.12078986060E+04  0.12078986060E+04  0.00000000000E+00 0. -1.
         24    2    1    2    0    0 -0.16402550789E+03 -0.19906306212E+02 -0.36803949733E+03  0.41119694970E+03  0.79556467870E+02 0.  0.
         23    2    1    2    0    0  0.21305368718E+03 -0.13297608866E+02 -0.62472863973E+03  0.66655545123E+03  0.91878159756E+02 0.  0.
        -13    1    3    3    0    0 -0.19146980124E+02  0.25005039061E+02 -0.56114129336E+02  0.64347916342E+02  0.00000000000E+00 0.  1.
         14    1    3    3    0    0 -0.14487852776E+03 -0.44911345274E+02 -0.31192536800E+03  0.34684903336E+03  0.00000000000E+00 0. -1.
        -11    1    4    4    0    0  0.20966729845E+02 -0.21041697016E+02 -0.17436662938E+03  0.17687871046E+03  0.00000000000E+00 0. -1.
         11    1    4    4    0    0  0.19208695734E+03  0.77440881494E+01 -0.45036201035E+03  0.48967674077E+03  0.00000000000E+00 0.  1.
         21    1    1    2  503  502  0.23153121520E+02  0.48356231535E+01 -0.10827659525E+02  0.26013236981E+02  0.00000000000E+00 0.  1.
          1    1    1    2  501    0 -0.72181300816E+02  0.28368291925E+02 -0.14446723628E+03  0.16396854129E+03  0.00000000000E+00 0. -1.
<scales pt_clust_5="13000.00000" pt_clust_6="13000.00000" pt_clust_7="13000.00000" pt_clust_8="13000.00000" pt_clust_9="23.65270" pt_clust_10="13000.00000"></scales>
<clustering>
<clus scale="   23.653">  1  9  2 -1</clus>
<clus scale="   79.556">  5  6 -1 -1</clus>
<clus scale="   91.878">  7  8 -1 -1</clus>
<clus scale="   73.904">  7 10 -1 -1</clus>
<clus scale="  174.667">  2  5  1 -1</clus>
<clus scale="   23.653">  1  5  2 -1</clus>
</clustering>
</event>
<event>
10    4  0.7508634E-005  0.2849888E+03  0.7546771E-02  0.1115389E+00
         21   -1    0    0  501  502  0.00000000000E+00  0.00000000000E+00  0.12882879743E+03  0.12882879743E+03  0.00000000000E+00 0.  1.
         -3   -1    0    0    0  501 -0.00000000000E+00 -0.00000000000E+00 -0.46246915462E+03  0.46246915462E+03  0.00000000000E+00 0.  1.
         24    2    1    2    0    0  0.30076168814E+01  0.15395696304E+03 -0.82366317897E+02  0.19160542604E+03  0.78845651347E+02 0.  0.
         23    2    1    2    0    0 -0.10745785056E+03 -0.61025741231E+02 -0.80768770771E+02  0.17391830256E+03  0.91938299385E+02 0.  0.
        -13    1    3    3    0    0 -0.21504097033E+02  0.76311508114E+02 -0.76175062512E+02  0.10994777219E+03  0.00000000000E+00 0.  1.
         14    1    3    3    0    0  0.24511713915E+02  0.77645454929E+02 -0.61912553846E+01  0.81657653857E+02  0.00000000000E+00 0. -1.
        -13    1    4    4    0    0 -0.38395193537E+02 -0.74357127475E+02 -0.43311796289E+02  0.94228896793E+02  0.00000000000E+00 0.  1.
         13    1    4    4    0    0 -0.69062657022E+02  0.13331386244E+02 -0.37456974482E+02  0.79689405767E+02  0.00000000000E+00 0. -1.
         21    1    1    2  503  502  0.75884502303E+01 -0.32913549298E+02 -0.33452107170E+02  0.47538718729E+02  0.00000000000E+00 0. -1.
         -4    1    1    2    0  503  0.96861783448E+02 -0.60017672513E+02 -0.13705316135E+03  0.17823550472E+03  0.00000000000E+00 0.  1.
<scales pt_clust_5="13000.00000" pt_clust_6="13000.00000" pt_clust_7="13000.00000" pt_clust_8="13000.00000" pt_clust_9="33.77703" pt_clust_10="13000.00000"></scales>
<clustering>
<clus scale="   33.777">  1  9  2 -1</clus>
<clus scale="   78.846">  5  6 -1 -1</clus>
<clus scale="   91.938">  7  8 -1 -1</clus>
<clus scale="  118.040">  7 10 -1 -1</clus>
<clus scale="  160.104">  2  5  1 -1</clus>
<clus scale="   33.777">  1  5  2 -1</clus>
</clustering>
</event>
<event>
10    4  0.7508634E-005  0.3871904E+03  0.7546771E-02  0.1077663E+00
         21   -1    0    0  501  502  0.00000000000E+00  0.00000000000E+00  0.11762057081E+03  0.11762057081E+03  0.00000000000E+00 0. -1.
          2   -1    0    0  503    0 -0.00000000000E+00 -0.00000000000E+00 -0.11017463936E+04  0.11017463936E+04  0.00000000000E+00 0. -1.
         24    2    1    2    0    0  0.15488629037E+03 -0.14050411516E+02 -0.60262536706E+02  0.18530601656E+03  0.80743850743E+02 0.  0.
         23    2    1    2    0    0  0.86428202094E+02 -0.18534943631E+01 -0.15961520871E+03  0.20204682517E+03  0.88727871331E+02 0.  0.
        -11    1    3    3    0    0  0.11757997242E+02  0.21271132626E+02  0.37388147655E+01  0.24590451768E+02  0.00000000000E+00 0.  1.
         12    1    3    3    0    0  0.14312829313E+03 -0.35321544142E+02 -0.64001351472E+02  0.16071556479E+03  0.00000000000E+00 0. -1.
        -13    1    4    4    0    0  0.52546404059E+02  0.13919126310E+02 -0.15516313075E+03  0.16440943951E+03  0.00000000000E+00 0. -1.
         13    1    4    4    0    0  0.33881798035E+02 -0.15772620673E+02 -0.44520779609E+01  0.37637385658E+02  0.00000000000E+00 0.  1.
         21    1    1    2  503  502 -0.11127331335E+02 -0.23967890191E+02  0.60172323843E+01  0.27101371707E+02  0.00000000000E+00 0. -1.
          1    1    1    2  501    0 -0.23018716113E+03  0.39871796070E+02 -0.77026530979E+03  0.80491275101E+03  0.00000000000E+00 0. -1.
<scales pt_clust_5="13000.00000" pt_clust_6="13000.00000" pt_clust_7="13000.00000" pt_clust_8="13000.00000" pt_clust_9="26.42494" pt_clust_10="13000.00000"></scales>
<clustering>
<clus scale="   26.425">  1  9  2 -1</clus>
<clus scale="   80.744">  5  6 -1 -1</clus>
<clus scale="   88.728">  7  8 -1 -1</clus>
<clus scale="  171.050">  2  5  1 -1</clus>
<clus scale="  112.065">  7 10 -1 -1</clus>
<clus scale="   26.425">  1  5  2 -1</clus>
</clustering>
</event>
<event>
10    4  0.7508634E-005  0.1812621E+03  0.7546771E-02  0.1189789E+00
          2   -1    0    0  502    0 -0.00000000000E+00  0.00000000000E+00  0.46488260749E+03  0.46488260749E+03  0.00000000000E+00 0. -1.
         21   -1    0    0  503  502  0.00000000000E+00 -0.00000000000E+00 -0.21672513565E+03  0.21672513565E+03  0.00000000000E+00 0.  1.
         24    2    1    2    0    0  0.23933451300E+02  0.93585852219E+02 -0.15630824212E+02  0.13436060712E+03  0.92072407665E+02 0.  0.
         23    2    1    2    0    0  0.66218789465E+02 -0.36844544085E+02  0.29000041484E+03  0.31337357412E+03  0.91434719031E+02 0.  0.
        -11    1    3    3    0    0  0.25111305026E+02  0.48605833571E+02 -0.52774429467E+02  0.76014768978E+02  0.00000000000E+00 0.  1.
         12    1    3    3    0    0 -0.11778537259E+01  0.44980018649E+02  0.37143605255E+02  0.58345838141E+02  0.00000000000E+00 0. -1.
        -11    1    4    4    0    0  0.83399599210E+02 -0.77307477585E+01  0.18528324778E+03  0.20333504252E+03  0.00000000000E+00 0. -1.
         11    1    4    4    0    0 -0.17180809745E+02 -0.29113796326E+02  0.10471716706E+03  0.11003853160E+03  0.00000000000E+00 0.  1.
         21    1    1    2  503  501 -0.33938495307E+02 -0.48576535194E+02 -0.11447995520E+03  0.12890756912E+03  0.00000000000E+00 0.  1.
          1    1    1    2  501    0 -0.56213745459E+02 -0.81647729413E+01  0.88267836415E+02  0.10496599278E+03  0.00000000000E+00 0. -1.
<scales pt_clust_5="13000.00000" pt_clust_6="13000.00000" pt_clust_7="13000.00000" pt_clust_8="13000.00000" pt_clust_9="59.25792" pt_clust_10="13000.00000"></scales>
<clustering>
<clus scale="   59.258">  2  9  1 -1</clus>
<clus scale="   91.435">  7  8 -1 -1</clus>
<clus scale="   60.487">  7 10 -1 -1</clus>
<clus scale="   92.072">  5  6 -1 -1</clus>
<clus scale="  107.416">  1  5  2 -1</clus>
<clus scale="   59.258">  2  5  1 -1</clus>
</clustering>
</event>
<event>
10    4  0.7508634E-005  0.2286342E+03  0.7546771E-02  0.1157347E+00
         21   -1    0    0  501  502  0.00000000000E+00  0.00000000000E+00  0.23575806441E+03  0.23575806441E+03  0.00000000000E+00 0. -1.
          2   -1    0    0  503    0 -0.00000000000E+00 -0.00000000000E+00 -0.99552095972E+03  0.99552095972E+03  0.00000000000E+00 0. -1.
         24    2    1    2    0    0 -0.64910822603E+02 -0.43937624488E+02 -0.68728104793E+03  0.69660193110E+03  0.82189304829E+02 0.  0.
         23    2    1    2    0    0  0.22074359089E+02  0.84787970164E+02 -0.28091819529E+03  0.30886828811E+03  0.93852595816E+02 0.  0.
        -13    1    3    3    0    0 -0.24604427355E+02 -0.62943107058E+02 -0.35845420538E+03  0.36476928315E+03  0.00000000000E+00 0.  1.
         14    1    3    3    0    0 -0.40306395247E+02  0.19005482570E+02 -0.32882684255E+03  0.33183264795E+03  0.00000000000E+00 0. -1.
        -11    1    4    4    0    0 -0.14449871352E+02 -0.15780403412E+02 -0.47009805177E+02  0.51650185834E+02  0.00000000000E+00 0.  1.
         11    1    4    4    0    0  0.36524230441E+02  0.10056837358E+03 -0.23390839011E+03  0.25721810228E+03  0.00000000000E+00 0. -1.
         21    1    1    2  503  502  0.39970911246E+02 -0.14459569363E+02  0.18676317798E+03  0.19153912797E+03  0.00000000000E+00 0. -1.
          1    1    1    2  501    0  0.28655522684E+01 -0.26390776313E+02  0.21673169919E+02  0.34269676954E+02  0.00000000000E+00 0. -1.
<scales pt_clust_5="13000.00000" pt_clust_6="13000.00000" pt_clust_7="13000.00000" pt_clust_8="13000.00000" pt_clust_9="42.50592" pt_clust_10="13000.00000"></scales>
<clustering>
<clus scale="   42.506">  1  9  2 -1</clus>
<clus scale="   82.189">  5  6 -1 -1</clus>
<clus scale="   93.853">  7  8 -1 -1</clus>
<clus scale="   44.170">  7 10 -1 -1</clus>
<clus scale="  111.916">  2  5  1 -1</clus>
<clus scale="   42.506">  1  5  2 -1</clus>
</clustering>
</event>
<event>
10    4  0.9501904E-005  0.4714804E+03  0.7546771E-02  0.1027673E+00
         -1   -1    0    0    0  501 -0.00000000000E+00  0.00000000000E+00  0.15026108254E+04  0.15026108254E+04  0.00000000000E+00 0.  1.
         21   -1    0    0  503  502  0.00000000000E+00 -0.00000000000E+00 -0.42463791705E+03  0.42463791705E+03  0.00000000000E+00 0.  1.
         24    2    1    2    0    0 -0.33071630078E+02 -0.39322085545E+03 -0.21309618436E+03  0.45581731578E+03  0.81505016386E+02 0.  0.
         23    2    1    2    0    0  0.82660422189E+02  0.96334984396E+02  0.28343873393E+03  0.32328337128E+03  0.89785564740E+02 0.  0.
        -11    1    3    3    0    0 -0.48086504507E+02 -0.33834200294E+03 -0.20455411949E+03  0.39828383180E+03  0.00000000000E+00 0.  1.
         12    1    3    3    0    0  0.15014874429E+02 -0.54878852506E+02 -0.85420648717E+01  0.57533483979E+02  0.00000000000E+00 0. -1.
        -13    1    4    4    0    0  0.54838936246E+02  0.54670914535E+01  0.14717080029E+03  0.15715101806E+03  0.00000000000E+00 0. -1.
         13    1    4    4    0    0  0.27821485943E+02  0.90867892942E+02  0.13626793364E+03  0.16613235322E+03  0.00000000000E+00 0.  1.
         21    1    1    2  503  501  0.24172391399E+02  0.11359959995E+02 -0.46456295970E+02  0.53586757994E+02  0.00000000000E+00 0.  1.
         -2    1    1    2    0  502 -0.73761183510E+02  0.28552591106E+03  0.10540866548E+04  0.10945612974E+04  0.00000000000E+00 0.  1.
<scales pt_clust_5="13000.00000" pt_clust_6="13000.00000" pt_clust_7="13000.00000" pt_clust_8="13000.00000" pt_clust_9="26.70867" pt_clust_10="13000.00000"></scales>
<clustering>
<clus scale="   26.709">  2  9  1 -1</clus>
<clus scale="   81.505">  5  6 -1 -1</clus>
<clus scale="   89.786">  7  8 -1 -1</clus>
<clus scale="  295.171">  7 10 -1 -1</clus>
<clus scale="  391.822">  1  5  2 -1</clus>
<clus scale="   26.709">  2  5  1 -1</clus>
</clustering>
</event>
<event>
10    4  0.7508634E-005  0.3904222E+03  0.7546771E-02  0.1055981E+00
          2   -1    0    0  503    0 -0.00000000000E+00  0.00000000000E+00  0.11721275389E+04  0.11721275389E+04  0.00000000000E+00 0. -1.
         21   -1    0    0  501  502  0.00000000000E+00 -0.00000000000E+00 -0.42122177410E+03  0.42122177410E+03  0.00000000000E+00 0. -1.
         24    2    1    2    0    0  0.19298124048E+03  0.22154691836E+03  0.50327069023E+03  0.58779391158E+03  0.76782150462E+02 0.  0.
         23    2    1    2    0    0  0.18391305538E+02  0.38928741113E+02  0.10711559501E+03  0.14678758912E+03  0.90659575457E+02 0.  0.
        -13    1    3    3    0    0  0.53066166022E+02  0.57653291818E+02  0.20784660963E+03  0.22212639008E+03  0.00000000000E+00 0.  1.
         14    1    3    3    0    0  0.13991507445E+03  0.16389362654E+03  0.29542408060E+03  0.36566752150E+03  0.00000000000E+00 0. -1.
        -13    1    4    4    0    0  0.53036702803E+02  0.11097955678E+02  0.45130142462E+02  0.70517985104E+02  0.00000000000E+00 0.  1.
         13    1    4    4    0    0 -0.34645397265E+02  0.27830785435E+02  0.61985452547E+02  0.76269604018E+02  0.00000000000E+00 0. -1.
         21    1    1    2  503  502 -0.30537696887E+03 -0.22102253300E+03 -0.25185731305E+03  0.45336316496E+03  0.00000000000E+00 0. -1.
          1    1    1    2  501    0  0.94004422853E+02 -0.39453126469E+02  0.39237679261E+03  0.40540464734E+03  0.00000000000E+00 0. -1.
<scales pt_clust_5="13000.00000" pt_clust_6="13000.00000" pt_clust_7="13000.00000" pt_clust_8="13000.00000" pt_clust_9="331.11768" pt_clust_10="13000.00000"></scales>
<clustering>
<clus scale="   76.782">  5  6 -1 -1</clus>
<clus scale="   90.660">  7  8 -1 -1</clus>
<clus scale="  101.948">  7 10 -1 -1</clus>
<clus scale="  303.678">  1  5  2 -1</clus>
<clus scale="  331.118">  2  9  1 -1</clus>
<clus scale="  331.118">  2  5  1 -1</clus>
</clustering>
</event>
<event>
10    4  0.7508634E-005  0.2010837E+03  0.7546771E-02  0.1187183E+00
         21   -1    0    0  503  502  0.00000000000E+00  0.00000000000E+00  0.60749605523E+02  0.60749605523E+02  0.00000000000E+00 0. -1.
          2   -1    0    0  502    0 -0.00000000000E+00 -0.00000000000E+00 -0.53520345274E+03  0.53520345274E+03  0.00000000000E+00 0. -1.
         24    2    1    2    0    0  0.27712078370E+02  0.28943433510E+02 -0.74960080508E+02  0.11794296330E+03  0.81767030587E+02 0.  0.
         23    2    1    2    0    0  0.78466139906E+02 -0.14202259827E+01 -0.26094379093E+03  0.28769304139E+03  0.92285816284E+02 0.  0.
        -13    1    3    3    0    0  0.23861124513E+02 -0.25082013139E+02 -0.42435400684E+02  0.54765170294E+02  0.00000000000E+00 0.  1.
         14    1    3    3    0    0  0.38509538571E+01  0.54025446649E+02 -0.32524679824E+02  0.63177793004E+02  0.00000000000E+00 0. -1.
        -13    1    4    4    0    0  0.27509856073E+02  0.23998405007E+02 -0.23268471873E+02  0.43291308681E+02  0.00000000000E+00 0.  1.
         13    1    4    4    0    0  0.50956283833E+02 -0.25418630990E+02 -0.23767531906E+03  0.24440173271E+03  0.00000000000E+00 0. -1.
         21    1    1    2  503  501 -0.47327536162E+02 -0.37253755721E+02 -0.10712391882E+03  0.12289537005E+03  0.00000000000E+00 0. -1.
          1    1    1    2  501    0 -0.58850682114E+02  0.97305481934E+01 -0.31426056951E+02  0.67421683522E+02  0.00000000000E+00 0. -1.
<scales pt_clust_5="13000.00000" pt_clust_6="13000.00000" pt_clust_7="13000.00000" pt_clust_8="13000.00000" pt_clust_9="60.23074" pt_clust_10="13000.00000"></scales>
<clustering>
<clus scale="   60.231">  1  9  2 -1</clus>
<clus scale="   81.767">  5  6 -1 -1</clus>
<clus scale="   83.355">  2  5  1 -1</clus>
<clus scale="   92.286">  7  8 -1 -1</clus>
<clus scale="   72.409">  7 10 -1 -1</clus>
<clus scale="   60.231">  1  5  2 -1</clus>
</clustering>
</event>
<event>
10    4  0.7508634E-005  0.2748472E+03  0.7546771E-02  0.1102953E+00
         21   -1    0    0  501  502  0.00000000000E+00  0.00000000000E+00  0.60622720953E+02  0.60622720953E+02  0.00000000000E+00 0.  1.
         -3   -1    0    0    0  501 -0.00000000000E+00 -0.00000000000E+00 -0.19616143242E+04  0.19616143242E+04  0.00000000000E+00 0.  1.
         24    2    1    2    0    0  0.60172067740E+02  0.22909658993E+03 -0.11997304589E+04  0.12254946752E+04  0.79863005205E+02 0.  0.
         23    2    1    2    0    0 -0.60338420666E+02 -0.64403040817E+02 -0.33713020562E+03  0.36015448090E+03  0.90917533487E+02 0.  0.
        -11    1    3    3    0    0  0.50084789771E+02  0.23353804370E+03 -0.11534401792E+04  0.11779103323E+04  0.00000000000E+00 0.  1.
         12    1    3    3    0    0  0.10087277970E+02 -0.44414537723E+01 -0.46290279714E+02  0.47584342849E+02  0.00000000000E+00 0. -1.
        -11    1    4    4    0    0  0.11384040694E+02 -0.40962448291E+02 -0.64316859157E+02  0.77098488470E+02  0.00000000000E+00 0.  1.
         11    1    4    4    0    0 -0.71722461361E+02 -0.23440592526E+02 -0.27281334647E+03  0.28305599243E+03  0.00000000000E+00 0. -1.
         21    1    1    2  503  502  0.42179168852E+02 -0.28441818665E+02 -0.61327705473E+01  0.51240903667E+02  0.00000000000E+00 0.  1.
         -4    1    1    2    0  503 -0.42012815926E+02 -0.13625173044E+03 -0.35799816817E+03  0.38534698541E+03  0.00000000000E+00 0.  1.
<scales pt_clust_5="13000.00000" pt_clust_6="13000.00000" pt_clust_7="13000.00000" pt_clust_8="13000.00000" pt_clust_9="50.87258" pt_clust_10="13000.00000"></scales>
<clustering>
<clus scale="   50.873">  1  9  2 -1</clus>
<clus scale="   79.863">  5  6 -1 -1</clus>
<clus scale="   90.918">  7  8 -1 -1</clus>
<clus scale="  148.911">  7 10 -1 -1</clus>
<clus scale="  245.129">  2  5  1 -1</clus>
<clus scale="   50.873">  1  5  2 -1</clus>
</clustering>
</event>
<event>
10    4  0.7508634E-005  0.4321212E+03  0.7546771E-02  0.1035143E+00
         21   -1    0    0  503  502  0.00000000000E+00  0.00000000000E+00  0.18200397695E+03  0.18200397695E+03  0.00000000000E+00 0. -1.
          2   -1    0    0  502    0 -0.00000000000E+00 -0.00000000000E+00 -0.23066888356E+04  0.23066888356E+04  0.00000000000E+00 0. -1.
         24    2    1    2    0    0  0.47491337498E+02  0.38564769314E+03 -0.17071355758E+04  0.17526322681E+04  0.80177443397E+02 0.  0.
         23    2    1    2    0    0 -0.92306694132E+02 -0.37902455079E+03 -0.32484380222E+03  0.51600983047E+03  0.92533850114E+02 0.  0.
        -11    1    3    3    0    0  0.25240848317E+02  0.27887458660E+02 -0.13430013196E+03  0.13946804730E+03  0.00000000000E+00 0.  1.
         12    1    3    3    0    0  0.22250489181E+02  0.35776023448E+03 -0.15728354439E+04  0.16131642208E+04  0.00000000000E+00 0. -1.
        -11    1    4    4    0    0 -0.50385876917E+02 -0.33943340096E+03 -0.28235330587E+03  0.44438402269E+03  0.00000000000E+00 0. -1.
         11    1    4    4    0    0 -0.41920817215E+02 -0.39591149826E+02 -0.42490496346E+02  0.71625807781E+02  0.00000000000E+00 0.  1.
         21    1    1    2  503  501  0.30010526231E+02  0.60945423854E+02  0.33793561975E+02  0.75874773175E+02  0.00000000000E+00 0. -1.
          1    1    1    2  501    0  0.14804830403E+02 -0.67568566205E+02 -0.12649904254E+03  0.14417594080E+03  0.00000000000E+00 0. -1.
<scales pt_clust_5="13000.00000" pt_clust_6="13000.00000" pt_clust_7="13000.00000" pt_clust_8="13000.00000" pt_clust_9="67.93362" pt_clust_10="13000.00000"></scales>
<clustering>
<clus scale="   67.934">  1  9  2 -1</clus>
<clus scale="   80.177">  5  6 -1 -1</clus>
<clus scale="   92.534">  7  8 -1 -1</clus>
<clus scale="   65.546">  7 10 -1 -1</clus>
<clus scale="  408.013">  2  5  1 -1</clus>
<clus scale="   67.934">  1  5  2 -1</clus>
</clustering>
</event>
<event>
10    4  0.7508634E-005  0.3493666E+03  0.7546771E-02  0.1109624E+00
         21   -1    0    0  501  502  0.00000000000E+00  0.00000000000E+00  0.10282490513E+03  0.10282490513E+03  0.00000000000E+00 0.  1.
          2   -1    0    0  503    0 -0.00000000000E+00 -0.00000000000E+00 -0.60857381852E+03  0.60857381852E+03  0.00000000000E+00 0. -1.
         24    2    1    2    0    0 -0.67128609076E+02 -0.19443523369E+02 -0.97136779550E+02  0.13669289683E+03  0.66068853064E+02 0.  0.
         23    2    1    2    0    0  0.19877127623E+03 -0.43157113768E+02 -0.18141055570E+03  0.28788576149E+03  0.92713889089E+02 0.  0.
        -13    1    3    3    0    0 -0.58670425329E+02  0.14296465155E+02 -0.51875431253E+02  0.79609472376E+02  0.00000000000E+00 0.  1.
         14    1    3    3    0    0 -0.84581837467E+01 -0.33739988524E+02 -0.45261348297E+02  0.57083424455E+02  0.00000000000E+00 0. -1.
        -13    1    4    4    0    0  0.37946524000E+02  0.27854826199E+02 -0.47651425547E+02  0.66981253967E+02  0.00000000000E+00 0. -1.
         13    1    4    4    0    0  0.16082475223E+03 -0.71011939967E+02 -0.13375913015E+03  0.22090450753E+03  0.00000000000E+00 0.  1.
         21    1    1    2  503  502 -0.30442082425E+02  0.14757881097E+02 -0.32641256541E+00  0.33832262443E+02  0.00000000000E+00 0.  1.
          1    1    1    2  501    0 -0.10120058473E+03  0.47842756040E+02 -0.22687516557E+03  0.25298780288E+03  0.00000000000E+00 0. -1.
<scales pt_clust_5="13000.00000" pt_clust_6="13000.00000" pt_clust_7="13000.00000" pt_clust_8="13000.00000" pt_clust_9="33.83069" pt_clust_10="13000.00000"></scales>
<clustering>
<clus scale="   33.831">  1  9  2 -1</clus>
<clus scale="   66.069">  5  6 -1 -1</clus>
<clus scale="   92.714">  7  8 -1 -1</clus>
<clus scale="  100.584">  2  5  1 -1</clus>
<clus scale="  153.167">  7 10 -1 -1</clus>
<clus scale="   33.831">  1  5  2 -1</clus>
</clustering>
</event>
<event>
10    4  0.7508634E-005  0.3193811E+03  0.7546771E-02  0.1127884E+00
          2   -1    0    0  503    0 -0.00000000000E+00  0.00000000000E+00  0.84651040282E+03  0.84651040282E+03  0.00000000000E+00 0. -1.
         21   -1    0    0  501  502  0.00000000000E+00 -0.00000000000E+00 -0.82961371451E+03  0.82961371451E+03  0.00000000000E+00 0. -1.
         24    2    1    2    0    0  0.20126312797E+02  0.10373771794E+02  0.17589249812E+03  0.19462074364E+03  0.80164701421E+02 0.  0.
         23    2    1    2    0    0  0.15052221941E+03  0.80450030472E+02  0.37368079286E+03  0.42106868433E+03  0.92370753152E+02 0.  0.
        -13    1    3    3    0    0  0.64962410899E+01  0.43324590960E+02  0.67114554459E+02  0.80147269139E+02  0.00000000000E+00 0.  1.
         14    1    3    3    0    0  0.13630071707E+02 -0.32950819165E+02  0.10877794366E+03  0.11447347451E+03  0.00000000000E+00 0. -1.
        -11    1    4    4    0    0  0.92320828061E+02  0.68477456195E+02  0.14630865151E+03  0.18606052458E+03  0.00000000000E+00 0.  1.
         11    1    4    4    0    0  0.58201391344E+02  0.11972574277E+02  0.22737214134E+03  0.23500815975E+03  0.00000000000E+00 0. -1.
         21    1    1    2  503  502 -0.52674655254E+02 -0.10758127766E+03 -0.77828409348E+03  0.78744808131E+03  0.00000000000E+00 0. -1.
          1    1    1    2  501    0 -0.11797387695E+03  0.16757475391E+02  0.24560749081E+03  0.27298660804E+03  0.00000000000E+00 0. -1.
<scales pt_clust_5="13000.00000" pt_clust_6="13000.00000" pt_clust_7="13000.00000" pt_clust_8="13000.00000" pt_clust_9="119.65875" pt_clust_10="13000.00000"></scales>
<clustering>
<clus scale="   80.165">  5  6 -1 -1</clus>
<clus scale="   83.301">  1  5  2 -1</clus>
<clus scale="   92.371">  7  8 -1 -1</clus>
<clus scale="  112.034">  7 10 -1 -1</clus>
<clus scale="  119.659">  2  9  1 -1</clus>
<clus scale="  119.659">  2  5  1 -1</clus>
</clustering>
</event>
<event>
10    4  0.7508634E-005  0.3508838E+03  0.7546771E-02  0.1114676E+00
         21   -1    0    0  503  502  0.00000000000E+00  0.00000000000E+00  0.22173742043E+03  0.22173742043E+03  0.00000000000E+00 0.  1.
          2   -1    0    0  502    0 -0.00000000000E+00 -0.00000000000E+00 -0.46050779921E+03  0.46050779921E+03  0.00000000000E+00 0. -1.
         24    2    1    2    0    0 -0.21428045121E+02  0.25902999521E+02 -0.88242422314E+02  0.12415671639E+03  0.80610412644E+02 0.  0.
         23    2    1    2    0    0  0.11173017090E+03 -0.12729630322E+03  0.11256960327E+02  0.19233832562E+03  0.90439661896E+02 0.  0.
        -13    1    3    3    0    0 -0.42878342610E+02  0.58547437809E+01 -0.15936925388E+02  0.46117414070E+02  0.00000000000E+00 0.  1.
         14    1    3    3    0    0  0.21450297489E+02  0.20048255740E+02 -0.72305496926E+02  0.78039302318E+02  0.00000000000E+00 0. -1.
        -11    1    4    4    0    0 -0.12711168478E+02 -0.30970758671E+02 -0.60597410007E+01  0.34021789455E+02  0.00000000000E+00 0. -1.
         11    1    4    4    0    0  0.12444133937E+03 -0.96325544550E+02  0.17316701328E+02  0.15831653616E+03  0.00000000000E+00 0.  1.
         21    1    1    2  503  501 -0.40845700169E+02  0.12156365293E+03  0.57145710357E+02  0.14039845137E+03  0.00000000000E+00 0.  1.
          1    1    1    2  501    0 -0.49456425607E+02 -0.20170349231E+02 -0.21893062715E+03  0.22535172626E+03  0.00000000000E+00 0. -1.
<scales pt_clust_5="13000.00000" pt_clust_6="13000.00000" pt_clust_7="13000.00000" pt_clust_8="13000.00000" pt_clust_9="131.93653" pt_clust_10="13000.00000"></scales>
<clustering>
<clus scale="   80.610">  5  6 -1 -1</clus>
<clus scale="   87.339">  2  5  1 -1</clus>
<clus scale="   90.440">  7  8 -1 -1</clus>
<clus scale="   63.014">  7 10 -1 -1</clus>
<clus scale="  131.937">  1  9  2 -1</clus>
<clus scale="  131.937">  1  5  2 -1</clus>
</clustering>
</event>
<event>
10    4  0.7508634E-005  0.6326144E+03  0.7546771E-02  0.1047853E+00
          2   -1    0    0  503    0 -0.00000000000E+00  0.00000000000E+00  0.15346416906E+04  0.15346416906E+04  0.00000000000E+00 0. -1.
         21   -1    0    0  501  502  0.00000000000E+00 -0.00000000000E+00 -0.24062557212E+03  0.24062557212E+03  0.00000000000E+00 0. -1.
         24    2    1    2    0    0  0.21527857120E+02  0.22746489928E+02  0.17457675894E+03  0.19638154418E+03  0.84307856657E+02 0.  0.
         23    2    1    2    0    0 -0.33019749573E+02  0.61206233731E+02  0.10122067619E+02  0.11359520724E+03  0.89246332952E+02 0.  0.
        -11    1    3    3    0    0 -0.18038974434E+02  0.39048580800E+02  0.11690411875E+03  0.12456632467E+03  0.00000000000E+00 0.  1.
         12    1    3    3    0    0  0.39566831554E+02 -0.16302090872E+02  0.57672640196E+02  0.71815219510E+02  0.00000000000E+00 0. -1.
        -11    1    4    4    0    0 -0.17265349494E+02  0.42144353234E+02  0.49393595742E+02  0.67186055867E+02  0.00000000000E+00 0.  1.
         11    1    4    4    0    0 -0.15754400079E+02  0.19061880498E+02 -0.39271528123E+02  0.46409151372E+02  0.00000000000E+00 0. -1.
         21    1    1    2  503  502  0.39297490062E+03  0.14813354912E+03  0.22935611566E+03  0.47851546337E+03  0.00000000000E+00 0. -1.
          1    1    1    2  501    0 -0.38148300817E+03 -0.23208627278E+03  0.87996117626E+03  0.98677504795E+03  0.00000000000E+00 0. -1.
<scales pt_clust_5="13000.00000" pt_clust_6="13000.00000" pt_clust_7="13000.00000" pt_clust_8="13000.00000" pt_clust_9="427.37212" pt_clust_10="13000.00000"></scales>
<clustering>
<clus scale="   84.308">  5  6 -1 -1</clus>
<clus scale="   89.246">  7  8 -1 -1</clus>
<clus scale="   89.937">  1  5  2 -1</clus>
<clus scale="  425.671">  7 10 -1 -1</clus>
<clus scale="  427.372">  2  9  1 -1</clus>
<clus scale="  427.372">  2  5  1 -1</clus>
</clustering>
</event>
<event>
10    4  0.7508634E-005  0.5203508E+03  0.7546771E-02  0.1059408E+00
          2   -1    0    0  502    0 -0.00000000000E+00  0.00000000000E+00  0.20178586247E+04  0.20178586247E+04  0.00000000000E+00 0. -1.
         21   -1    0    0  503  502  0.00000000000E+00 -0.00000000000E+00 -0.65240746522E+02  0.65240746522E+02  0.00000000000E+00 0. -1.
         24    2    1    2    0    0 -0.88173154735E+02 -0.34373374818E+02  0.18277558403E+03  0.22118700750E+03  0.80998420097E+02 0.  0.
         23    2    1    2    0    0 -0.16854151377E+03 -0.14421426588E+03  0.76011393359E+03  0.79714335259E+03  0.91980085872E+02 0.  0.
        -13    1    3    3    0    0 -0.57629538810E+02 -0.39074053401E+02  0.17638464155E+03  0.18962986887E+03  0.00000000000E+00 0.  1.
         14    1    3    3    0    0 -0.30543615925E+02  0.47006785821E+01  0.63909424786E+01  0.31557138633E+02  0.00000000000E+00 0. -1.
        -13    1    4    4    0    0 -0.43082430960E+02 -0.60567285214E+02  0.13508635282E+03  0.15418435269E+03  0.00000000000E+00 0.  1.
         13    1    4    4    0    0 -0.12545908281E+03 -0.83646980664E+02  0.62502758077E+03  0.64295899991E+03  0.00000000000E+00 0. -1.
         21    1    1    2  503  501  0.24392517492E+02  0.28236618888E+02  0.33734926392E+02  0.50302552763E+02  0.00000000000E+00 0. -1.
          1    1    1    2  501    0  0.23232215101E+03  0.15035102181E+03  0.97599343416E+03  0.10144664584E+04  0.00000000000E+00 0. -1.
<scales pt_clust_5="13000.00000" pt_clust_6="13000.00000" pt_clust_7="13000.00000" pt_clust_8="13000.00000" pt_clust_9="37.31356" pt_clust_10="13000.00000"></scales>
<clustering>
<clus scale="   37.314">  2  9  1 -1</clus>
<clus scale="   80.998">  5  6 -1 -1</clus>
<clus scale="   91.980">  7  8 -1 -1</clus>
<clus scale="  116.491">  1  5  2 -1</clus>
<clus scale="  241.009">  7 10 -1 -1</clus>
<clus scale="   37.314">  2  5  1 -1</clus>
</clustering>
</event>
<event>
10    4  0.7508634E-005  0.3159992E+03  0.7546771E-02  0.1098950E+00
         21   -1    0    0  501  502  0.00000000000E+00  0.00000000000E+00  0.43311795022E+03  0.43311795022E+03  0.00000000000E+00 0. -1.
          2   -1    0    0  503    0 -0.00000000000E+00 -0.00000000000E+00 -0.33486421710E+03  0.33486421710E+03  0.00000000000E+00 0. -1.
         24    2    1    2    0    0  0.16700034995E+03  0.10047339685E+02 -0.20964931916E+03  0.28070538001E+03  0.82780477321E+02 0.  0.
         23    2    1    2    0    0  0.68737856419E+02  0.16849323340E+02  0.11726258253E+03  0.16429024447E+03  0.90730251652E+02 0.  0.
        -11    1    3    3    0    0  0.40450750441E+02  0.14609841726E+02 -0.97942578394E+01  0.44109388718E+02  0.00000000000E+00 0.  1.
         12    1    3    3    0    0  0.12654959951E+03 -0.45625020414E+01 -0.19985506132E+03  0.23659599129E+03  0.00000000000E+00 0. -1.
        -13    1    4    4    0    0  0.80196987804E+02  0.35956680672E+02  0.11012040361E+03  0.14089337468E+03  0.00000000000E+00 0. -1.
         13    1    4    4    0    0 -0.11459131385E+02 -0.19107357332E+02  0.71421789226E+01  0.23396869793E+02  0.00000000000E+00 0.  1.
         21    1    1    2  503  502 -0.73439841563E+02  0.52027738255E+01  0.12485321686E+03  0.14494414422E+03  0.00000000000E+00 0. -1.
          1    1    1    2  501    0 -0.16229836480E+03 -0.32099436850E+02  0.65787252891E+02  0.17804239862E+03  0.00000000000E+00 0. -1.
<scales pt_clust_5="13000.00000" pt_clust_6="13000.00000" pt_clust_7="13000.00000" pt_clust_8="13000.00000" pt_clust_9="73.62390" pt_clust_10="13000.00000"></scales>
<clustering>
<clus scale="   73.624">  1  9  2 -1</clus>
<clus scale="   82.780">  5  6 -1 -1</clus>
<clus scale="   90.730">  7  8 -1 -1</clus>
<clus scale="  178.913">  2  5  1 -1</clus>
<clus scale="   76.885">  7 10 -1 -1</clus>
<clus scale="   73.624">  1  5  2 -1</clus>
</clustering>
</event>
<event>
10    4  0.7508634E-005  0.2386703E+03  0.7546771E-02  0.1154593E+00
          2   -1    0    0  502    0 -0.00000000000E+00  0.00000000000E+00  0.79631322908E+03  0.79631322908E+03  0.00000000000E+00 0. -1.
         21   -1    0    0  503  502  0.00000000000E+00 -0.00000000000E+00 -0.64830078327E+02  0.64830078327E+02  0.00000000000E+00 0.  1.
         24    2    1    2    0    0 -0.12736299665E+02  0.73952737177E+02  0.39718848067E+03  0.41202529383E+03  0.79843176986E+02 0.  0.
         23    2    1    2    0    0 -0.35331202099E+02 -0.10299642953E+03  0.16362392027E+03  0.21652089135E+03  0.90840248635E+02 0.  0.
        -13    1    3    3    0    0  0.26151639055E+02  0.57584360214E+02  0.18028877994E+03  0.19105996686E+03  0.00000000000E+00 0.  1.
         14    1    3    3    0    0 -0.38887938721E+02  0.16368376964E+02  0.21689970073E+03  0.22096532696E+03  0.00000000000E+00 0. -1.
        -11    1    4    4    0    0  0.25803904271E+02 -0.64706251710E+02  0.79339342509E+02  0.10558158815E+03  0.00000000000E+00 0.  1.
         11    1    4    4    0    0 -0.61135106370E+02 -0.38290177816E+02  0.84284577759E+02  0.11093930321E+03  0.00000000000E+00 0. -1.
         21    1    1    2  503  501  0.26608408507E+01 -0.40673189790E+02 -0.21239482656E+01  0.40815433331E+02  0.00000000000E+00 0.  1.
          1    1    1    2  501    0  0.45406660913E+02  0.69716882139E+02  0.17279469809E+03  0.19178168890E+03  0.00000000000E+00 0. -1.
<scales pt_clust_5="13000.00000" pt_clust_6="13000.00000" pt_clust_7="13000.00000" pt_clust_8="13000.00000" pt_clust_9="40.76013" pt_clust_10="13000.00000"></scales>
<clustering>
<clus scale="   40.760">  2  9  1 -1</clus>
<clus scale="   79.843">  5  6 -1 -1</clus>
<clus scale="   90.840">  7  8 -1 -1</clus>
<clus scale="   76.244">  7 10 -1 -1</clus>
<clus scale="  104.947">  1  5  2 -1</clus>
<clus scale="   40.760">  2  5  1 -1</clus>
</clustering>
</event>
<event>
10    4  0.7508634E-005  0.6847701E+03  0.7546771E-02  0.1021539E+00
         21   -1    0    0  501  502  0.00000000000E+00  0.00000000000E+00  0.76874601148E+03  0.76874601148E+03  0.00000000000E+00 0. -1.
          2   -1    0    0  503    0 -0.00000000000E+00 -0.00000000000E+00 -0.34507966274E+03  0.34507966274E+03  0.00000000000E+00 0. -1.
         24    2    1    2    0    0  0.12672073103E+03 -0.16021175202E+02  0.31574414960E+02  0.15386472065E+03  0.79765825095E+02 0.  0.
         23    2    1    2    0    0 -0.22501381014E+02 -0.15115175549E+03 -0.21587176169E+03  0.27879227581E+03  0.88155262026E+02 0.  0.
        -13    1    3    3    0    0  0.13156441568E+02  0.23307942241E+02 -0.69627687285E+01  0.27655601144E+02  0.00000000000E+00 0.  1.
         14    1    3    3    0    0  0.11356428946E+03 -0.39329117444E+02  0.38537183689E+02  0.12620911951E+03  0.00000000000E+00 0. -1.
        -13    1    4    4    0    0  0.22663625772E+02 -0.65693132631E+02 -0.13858832018E+03  0.15503531888E+03  0.00000000000E+00 0. -1.
         13    1    4    4    0    0 -0.45165006786E+02 -0.85458622855E+02 -0.77283441501E+02  0.12375695693E+03  0.00000000000E+00 0.  1.
         21    1    1    2  503  502  0.15537708286E+02 -0.33819242479E+02  0.25500992880E+03  0.25771151571E+03  0.00000000000E+00 0. -1.
          1    1    1    2  501    0 -0.11975705830E+03  0.20099217317E+03  0.35295376667E+03  0.42345716205E+03  0.00000000000E+00 0. -1.
<scales pt_clust_5="13000.00000" pt_clust_6="13000.00000" pt_clust_7="13000.00000" pt_clust_8="13000.00000" pt_clust_9="37.21776" pt_clust_10="13000.00000"></scales>
<clustering>
<clus scale="   37.218">  1  9  2 -1</clus>
<clus scale="   79.766">  5  6 -1 -1</clus>
<clus scale="   88.155">  7  8 -1 -1</clus>
<clus scale="  153.725">  2  5  1 -1</clus>
<clus scale="  197.334">  7 10 -1 -1</clus>
<clus scale="   37.218">  1  5  2 -1</clus>
</clustering>
</event>
<event>
10    4  0.7508634E-005  0.1271958E+03  0.7546771E-02  0.1248633E+00
          2   -1    0    0  502    0 -0.00000000000E+00  0.00000000000E+00  0.21197334452E+03  0.21197334452E+03  0.00000000000E+00 0. -1.
         21   -1    0    0  503  502  0.00000000000E+00 -0.00000000000E+00 -0.96938761948E+02  0.96938761948E+02  0.00000000000E+00 0.  1.
         24    2    1    2    0    0 -0.15261874871E+02  0.25588459610E+02 -0.31526756011E+02  0.89531256801E+02  0.78321232817E+02 0.  0.
         23    2    1    2    0    0  0.33351783420E+01 -0.44258425046E+02  0.10292622824E+03  0.14500429491E+03  0.91991877250E+02 0.  0.
        -13    1    3    3    0    0 -0.45280569322E+02  0.24253107115E+02 -0.94113823719E+01  0.52221808481E+02  0.00000000000E+00 0.  1.
         14    1    3    3    0    0  0.30018694450E+02  0.13353524942E+01 -0.22115373639E+02  0.37309448321E+02  0.00000000000E+00 0. -1.
        -13    1    4    4    0    0 -0.46620491216E+01 -0.70104491432E+02  0.92156752260E+02  0.11588460384E+03  0.00000000000E+00 0. -1.
         13    1    4    4    0    0  0.79972274637E+01  0.25846066386E+02  0.10769475976E+02  0.29119691061E+02  0.00000000000E+00 0.  1.
         21    1    1    2  503  501 -0.12466938090E+02  0.16651360559E+02 -0.36619847033E+01  0.21121138363E+02  0.00000000000E+00 0.  1.
          1    1    1    2  501    0  0.24393634619E+02  0.20186048779E+01  0.47297095053E+02  0.53255416401E+02  0.00000000000E+00 0. -1.
<scales pt_clust_5="13000.00000" pt_clust_6="13000.00000" pt_clust_7="13000.00000" pt_clust_8="13000.00000" pt_clust_9="20.80126" pt_clust_10="13000.00000"></scales>
<clustering>
<clus scale="   20.801">  2  9  1 -1</clus>
<clus scale="   78.321">  5  6 -1 -1</clus>
<clus scale="   90.145">  1  5  2 -1</clus>
<clus scale="   91.992">  7  8 -1 -1</clus>
<clus scale="   21.637">  7 10 -1 -1</clus>
<clus scale="   20.801">  2  5  1 -1</clus>
</clustering>
</event>
<event>
10    4  0.7508634E-005  0.3126391E+03  0.7546771E-02  0.1123401E+00
          2   -1    0    0  503    0 -0.00000000000E+00  0.00000000000E+00  0.87844410351E+03  0.87844410351E+03  0.00000000000E+00 0. -1.
         21   -1    0    0  501  502  0.00000000000E+00 -0.00000000000E+00 -0.11694732023E+03  0.11694732023E+03  0.00000000000E+00 0. -1.
         24    2    1    2    0    0 -0.18489070437E+02  0.47877653630E+02  0.27512496677E+03  0.29230302591E+03  0.84339766260E+02 0.  0.
         23    2    1    2    0    0 -0.52321282266E+02  0.95864916869E+02  0.22870972518E+03  0.27068910680E+03  0.95062375773E+02 0.  0.
        -11    1    3    3    0    0  0.20168380708E+02 -0.11288440261E+02  0.11461389197E+03  0.11692107037E+03  0.00000000000E+00 0.  1.
         12    1    3    3    0    0 -0.38657451145E+02  0.59166093891E+02  0.16051107480E+03  0.17538195554E+03  0.00000000000E+00 0. -1.
        -11    1    4    4    0    0  0.23195280683E+01  0.59206892144E+02  0.41736385237E+02  0.72475941805E+02  0.00000000000E+00 0. -1.
         11    1    4    4    0    0 -0.54640810334E+02  0.36658024724E+02  0.18697333994E+03  0.19821316500E+03  0.00000000000E+00 0.  1.
         21    1    1    2  503  502 -0.20474216234E+02 -0.26429327664E+01 -0.65215459469E+02  0.68404932408E+02  0.00000000000E+00 0. -1.
          1    1    1    2  501    0  0.91284568937E+02 -0.14109963773E+03  0.32287755080E+03  0.36399435861E+03  0.00000000000E+00 0. -1.
<scales pt_clust_5="13000.00000" pt_clust_6="13000.00000" pt_clust_7="13000.00000" pt_clust_8="13000.00000" pt_clust_9="20.64409" pt_clust_10="13000.00000"></scales>
<clustering>
<clus scale="   20.644">  2  9  1 -1</clus>
<clus scale="   84.340">  5  6 -1 -1</clus>
<clus scale="   95.062">  7  8 -1 -1</clus>
<clus scale="   99.228">  1  5  2 -1</clus>
<clus scale="  135.514">  7 10 -1 -1</clus>
<clus scale="   20.644">  2  5  1 -1</clus>
</clustering>
</event>
<event>
10    4  0.7508634E-005  0.4286595E+03  0.7546771E-02  0.1058069E+00
          2   -1    0    0  502    0 -0.00000000000E+00  0.00000000000E+00  0.34119614524E+03  0.34119614524E+03  0.00000000000E+00 0. -1.
         21   -1    0    0  503  502  0.00000000000E+00 -0.00000000000E+00 -0.36735901489E+03  0.36735901489E+03  0.00000000000E+00 0. -1.
         24    2    1    2    0    0 -0.11542078205E+03  0.14854495794E+03 -0.39990213415E+02  0.21005120176E+03  0.84467323455E+02 0.  0.
         23    2    1    2    0    0  0.15923801267E+03 -0.13103381652E+03 -0.11811774071E+03  0.25412473426E+03  0.90005411724E+02 0.  0.
        -11    1    3    3    0    0 -0.35007214384E+02  0.37697004897E+01 -0.26163829718E+02  0.43866407264E+02  0.00000000000E+00 0.  1.
         12    1    3    3    0    0 -0.80413567671E+02  0.14477525745E+03 -0.13826383697E+02  0.16618479449E+03  0.00000000000E+00 0. -1.
        -11    1    4    4    0    0  0.15608370722E+02 -0.40518851511E+02  0.59824900889E+01  0.43831367216E+02  0.00000000000E+00 0.  1.
         11    1    4    4    0    0  0.14362964195E+03 -0.90514965004E+02 -0.12410023080E+03  0.21029336704E+03  0.00000000000E+00 0. -1.
         21    1    1    2  503  501 -0.19774117916E+02  0.19773525477E+02 -0.49899459492E+02  0.57201084839E+02  0.00000000000E+00 0. -1.
          1    1    1    2  501    0 -0.24043112703E+02 -0.37284666898E+02  0.18184454397E+03  0.18717813928E+03  0.00000000000E+00 0. -1.
<scales pt_clust_5="13000.00000" pt_clust_6="13000.00000" pt_clust_7="13000.00000" pt_clust_8="13000.00000" pt_clust_9="27.96441" pt_clust_10="13000.00000"></scales>
<clustering>
<clus scale="   27.964">  2  9  1 -1</clus>
<clus scale="   84.467">  5  6 -1 -1</clus>
<clus scale="   90.005">  7  8 -1 -1</clus>
<clus scale="   44.315">  7 10 -1 -1</clus>
<clus scale="  216.346">  1  5  2 -1</clus>
<clus scale="   27.964">  2  5  1 -1</clus>
</clustering>
</event>
<event>
10    4  0.7508634E-005  0.7641408E+03  0.7546771E-02  0.9842228E-01
          2   -1    0    0  502    0 -0.00000000000E+00  0.00000000000E+00  0.31100055392E+04  0.31100055392E+04  0.00000000000E+00 0. -1.
         21   -1    0    0  503  502  0.00000000000E+00 -0.00000000000E+00 -0.15813207098E+03  0.15813207098E+03  0.00000000000E+00 0. -1.
         24    2    1    2    0    0  0.22647330026E+03  0.30814083500E+03  0.37386277868E+03  0.54084332708E+03  0.80605193605E+02 0.  0.
         23    2    1    2    0    0 -0.29626966392E+03  0.13569530882E+03  0.14332831348E+04  0.14727050225E+04  0.91491027545E+02 0.  0.
        -13    1    3    3    0    0  0.49181487180E+02  0.75841790296E+02  0.45231005934E+02  0.10107739477E+03  0.00000000000E+00 0.  1.
         14    1    3    3    0    0  0.17729181308E+03  0.23229904470E+03  0.32863177275E+03  0.43976593230E+03  0.00000000000E+00 0. -1.
        -13    1    4    4    0    0 -0.36445180349E+02  0.47672187419E+02  0.35714066655E+03  0.36214685464E+03  0.00000000000E+00 0.  1.
         13    1    4    4    0    0 -0.25982448357E+03  0.88023121397E+02  0.10761424683E+04  0.11105581679E+04  0.00000000000E+00 0. -1.
         21    1    1    2  503  501 -0.24958543995E+02 -0.54295582276E+02  0.24142271055E+02  0.64449890804E+02  0.00000000000E+00 0.  1.
          1    1    1    2  501    0  0.94754907653E+02 -0.38954056154E+03  0.11205852837E+04  0.11901393698E+04  0.00000000000E+00 0. -1.
<scales pt_clust_5="13000.00000" pt_clust_6="13000.00000" pt_clust_7="13000.00000" pt_clust_8="13000.00000" pt_clust_9="59.75734" pt_clust_10="13000.00000"></scales>
<clustering>
<clus scale="   59.757">  2  9  1 -1</clus>
<clus scale="   80.605">  5  6 -1 -1</clus>
<clus scale="   91.491">  7  8 -1 -1</clus>
<clus scale="  356.311">  1  5  2 -1</clus>
<clus scale="  333.405">  7 10 -1 -1</clus>
<clus scale="   59.757">  2  5  1 -1</clus>
</clustering>
</event>
<event>
10    4  0.7508634E-005  0.4079151E+03  0.7546771E-02  0.1076598E+00
          2   -1    0    0  502    0 -0.00000000000E+00  0.00000000000E+00  0.54334057508E+03  0.54334057508E+03  0.00000000000E+00 0. -1.
         21   -1    0    0  503  502  0.00000000000E+00 -0.00000000000E+00 -0.61653384737E+03  0.61653384737E+03  0.00000000000E+00 0. -1.
         24    2    1    2    0    0 -0.98182609242E+02  0.76276149145E+01 -0.31966449723E+03  0.34372969417E+03  0.79162532776E+02 0.  0.
         23    2    1    2    0    0  0.10178502578E+03 -0.92607905068E+02  0.50341815902E+03  0.52768514385E+03  0.78008670413E+02 0.  0.
        -11    1    3    3    0    0 -0.15749020733E+02 -0.17555262182E+02 -0.17110855119E+02  0.29137608811E+02  0.00000000000E+00 0.  1.
         12    1    3    3    0    0 -0.82433588509E+02  0.25182877097E+02 -0.30255364211E+03  0.31459208536E+03  0.00000000000E+00 0. -1.
        -13    1    4    4    0    0  0.82683532058E+02 -0.40250974753E+02  0.39750317475E+03  0.40800181541E+03  0.00000000000E+00 0. -1.
         13    1    4    4    0    0  0.19101493719E+02 -0.52356930315E+02  0.10591498427E+03  0.11968332844E+03  0.00000000000E+00 0.  1.
         21    1    1    2  503  501 -0.31554654685E+02  0.31998189755E+02 -0.20277221714E+03  0.20769244671E+03  0.00000000000E+00 0. -1.
          1    1    1    2  501    0  0.27952238150E+02  0.52982100399E+02 -0.54174716945E+02  0.80767137725E+02  0.00000000000E+00 0. -1.
<scales pt_clust_5="13000.00000" pt_clust_6="13000.00000" pt_clust_7="13000.00000" pt_clust_8="13000.00000" pt_clust_9="44.93974" pt_clust_10="13000.00000"></scales>
<clustering>
<clus scale="   44.940">  2  9  1 -1</clus>
<clus scale="   78.009">  7  8 -1 -1</clus>
<clus scale="   62.527">  7 10 -1 -1</clus>
<clus scale="   79.163">  5  6 -1 -1</clus>
<clus scale="  150.562">  1  5  2 -1</clus>
<clus scale="   44.940">  2  5  1 -1</clus>
</clustering>
</event>
<event>
10    4  0.7508634E-005  0.4358345E+03  0.7546771E-02  0.1083577E+00
         21   -1    0    0  501  502  0.00000000000E+00  0.00000000000E+00  0.33576177419E+03  0.33576177419E+03  0.00000000000E+00 0. -1.
          2   -1    0    0  503    0 -0.00000000000E+00 -0.00000000000E+00 -0.32932323424E+03  0.32932323424E+03  0.00000000000E+00 0. -1.
         24    2    1    2    0    0  0.77663092001E+01  0.60575358189E+02 -0.10124787337E+03  0.14309732447E+03  0.80597908350E+02 0.  0.
         23    2    1    2    0    0  0.54044606914E+01 -0.13783878510E+03  0.20578703176E+03  0.27379181827E+03  0.11655435829E+03 0.  0.
        -13    1    3    3    0    0  0.28157228019E+02  0.40880031032E+02 -0.10336775815E+03  0.11466865244E+03  0.00000000000E+00 0.  1.
         14    1    3    3    0    0 -0.20390918819E+02  0.19695327157E+02  0.21198847795E+01  0.28428672034E+02  0.00000000000E+00 0. -1.
        -13    1    4    4    0    0  0.43498190014E+02 -0.55574803796E+02  0.31390610248E+02  0.77240026950E+02  0.00000000000E+00 0.  1.
         13    1    4    4    0    0 -0.38093729323E+02 -0.82263981308E+02  0.17439642151E+03  0.19655179132E+03  0.00000000000E+00 0. -1.
         21    1    1    2  503  502  0.55533090141E+02  0.16384138338E+02  0.48297172808E+02  0.75398812928E+02  0.00000000000E+00 0. -1.
          1    1    1    2  501    0 -0.68703860033E+02  0.60879288577E+02 -0.14639779125E+03  0.17279705277E+03  0.00000000000E+00 0. -1.
<scales pt_clust_5="13000.00000" pt_clust_6="13000.00000" pt_clust_7="13000.00000" pt_clust_8="13000.00000" pt_clust_9="57.89960" pt_clust_10="13000.00000"></scales>
<clustering>
<clus scale="   57.900">  1  9  2 -1</clus>
<clus scale="   80.598">  5  6 -1 -1</clus>
<clus scale="  102.288">  2  5  1 -1</clus>
<clus scale="  116.554">  7  8 -1 -1</clus>
<clus scale="  123.138">  7 10 -1 -1</clus>
<clus scale="   57.900">  1  5  2 -1</clus>
</clustering>
</event>
<event>
10    4  0.7508634E-005  0.7202266E+03  0.7546771E-02  0.1002745E+00
          2   -1    0    0  502    0 -0.00000000000E+00  0.00000000000E+00  0.44386484147E+04  0.44386484147E+04  0.00000000000E+00 0. -1.
         21   -1    0    0  503  502  0.00000000000E+00 -0.00000000000E+00 -0.16964818985E+03  0.16964818985E+03  0.00000000000E+00 0.  1.
         24    2    1    2    0    0 -0.19118259918E+03  0.11089047276E+03  0.11312965199E+04  0.11555486670E+04  0.81322953545E+02 0.  0.
         23    2    1    2    0    0 -0.23789793965E+03  0.51914439755E+02  0.84950018341E+03  0.88822248545E+03  0.89432003801E+02 0.  0.
        -11    1    3    3    0    0 -0.16596236036E+03  0.10983023783E+03  0.10821611139E+04  0.11003085307E+04  0.00000000000E+00 0.  1.
         12    1    3    3    0    0 -0.25220238821E+02  0.10602349265E+01  0.49135405983E+02  0.55240136363E+02  0.00000000000E+00 0. -1.
        -13    1    4    4    0    0 -0.13495185135E+03  0.23746493374E+02  0.62222619835E+03  0.63713526039E+03  0.00000000000E+00 0. -1.
         13    1    4    4    0    0 -0.10294608830E+03  0.28167946381E+02  0.22727398506E+03  0.25108722506E+03  0.00000000000E+00 0.  1.
         21    1    1    2  503  501 -0.68804430450E+01 -0.24851629694E+03  0.15821587461E+02  0.24911445757E+03  0.00000000000E+00 0.  1.
          1    1    1    2  501    0  0.43596098187E+03  0.85711384420E+02  0.22723819341E+04  0.23154109946E+04  0.00000000000E+00 0. -1.
<scales pt_clust_5="13000.00000" pt_clust_6="13000.00000" pt_clust_7="13000.00000" pt_clust_8="13000.00000" pt_clust_9="244.49278" pt_clust_10="13000.00000"></scales>
<clustering>
<clus scale="   81.323">  5  6 -1 -1</clus>
<clus scale="   89.432">  7  8 -1 -1</clus>
<clus scale="  235.501">  1  5  2 -1</clus>
<clus scale="  244.493">  2  9  1 -1</clus>
<clus scale="  303.468">  7 10 -1 -1</clus>
<clus scale="  244.493">  2  5  1 -1</clus>
</clustering>
</event>
<event>
10    4  0.7508634E-005  0.7127513E+03  0.7546771E-02  0.1010424E+00
         21   -1    0    0  501  502  0.00000000000E+00  0.00000000000E+00  0.56618526881E+03  0.56618526881E+03  0.00000000000E+00 0. -1.
          2   -1    0    0  503    0 -0.00000000000E+00 -0.00000000000E+00 -0.53380534693E+03  0.53380534693E+03  0.00000000000E+00 0. -1.
         24    2    1    2    0    0 -0.15590256828E+03 -0.80010445899E+02  0.11162776475E+02  0.19354129533E+03  0.81402353581E+02 0.  0.
         23    2    1    2    0    0  0.74418410894E+02  0.17527879695E+03  0.22566300265E+03  0.31255456997E+03  0.10249786292E+03 0.  0.
        -13    1    3    3    0    0 -0.70586584487E+02 -0.70499722340E+02 -0.20856216009E+02  0.10191986316E+03  0.00000000000E+00 0.  1.
         14    1    3    3    0    0 -0.85315983792E+02 -0.95107235589E+01  0.32018992483E+02  0.91621432169E+02  0.00000000000E+00 0. -1.
        -13    1    4    4    0    0  0.58038517970E+02  0.11594773525E+03  0.74969937691E+02  0.14977596081E+03  0.00000000000E+00 0.  1.
         13    1    4    4    0    0  0.16379892924E+02  0.59331061703E+02  0.15069306496E+03  0.16277860917E+03  0.00000000000E+00 0. -1.
         21    1    1    2  503  502 -0.21291611549E+02  0.66549875931E+02  0.16416526975E+03  0.17841651970E+03  0.00000000000E+00 0. -1.
          1    1    1    2  501    0  0.10277576893E+03 -0.16181822699E+03 -0.36861112701E+03  0.41547823074E+03  0.00000000000E+00 0. -1.
<scales pt_clust_5="13000.00000" pt_clust_6="13000.00000" pt_clust_7="13000.00000" pt_clust_8="13000.00000" pt_clust_9="69.87288" pt_clust_10="13000.00000"></scales>
<clustering>
<clus scale="   69.873">  1  9  2 -1</clus>
<clus scale="   81.402">  5  6 -1 -1</clus>
<clus scale="  102.498">  7  8 -1 -1</clus>
<clus scale="  187.690">  7 10 -1 -1</clus>
<clus scale="  191.369">  2  5  1 -1</clus>
<clus scale="   69.873">  1  5  2 -1</clus>
</clustering>
</event>
<event>
10    4  0.7508634E-005  0.1866093E+03  0.7546771E-02  0.1192702E+00
          2   -1    0    0  503    0 -0.00000000000E+00  0.00000000000E+00  0.30794766796E+03  0.30794766796E+03  0.00000000000E+00 0. -1.
         21   -1    0    0  501  502  0.00000000000E+00 -0.00000000000E+00 -0.27265679824E+03  0.27265679824E+03  0.00000000000E+00 0.  1.
         24    2    1    2    0    0  0.40905999549E+02 -0.21337118379E+02  0.25214026546E+03  0.26838748012E+03  0.79552200455E+02 0.  0.
         23    2    1    2    0    0 -0.98301031120E+02  0.32672486645E+02 -0.82442971687E+02  0.16130516067E+03  0.92151653126E+02 0.  0.
        -13    1    3    3    0    0  0.48028054862E+02 -0.13124815164E+02  0.69878633236E+02  0.85801970897E+02  0.00000000000E+00 0.  1.
         14    1    3    3    0    0 -0.71220553131E+01 -0.82123032155E+01  0.18226163222E+03  0.18258550922E+03  0.00000000000E+00 0. -1.
        -11    1    4    4    0    0 -0.90281603239E+02  0.58588889546E+02 -0.79929369390E+02  0.13406017288E+03  0.00000000000E+00 0.  1.
         11    1    4    4    0    0 -0.80194278810E+01 -0.25916402902E+02 -0.25136022974E+01  0.27244987785E+02  0.00000000000E+00 0. -1.
         21    1    1    2  503  502  0.12001003543E+02 -0.16084478344E+02 -0.63411385567E+02  0.66511189654E+02  0.00000000000E+00 0. -1.
          1    1    1    2  501    0  0.45394028028E+02  0.47491100792E+01 -0.70995038489E+02  0.84400635763E+02  0.00000000000E+00 0. -1.
<scales pt_clust_5="13000.00000" pt_clust_6="13000.00000" pt_clust_7="13000.00000" pt_clust_8="13000.00000" pt_clust_9="20.06825" pt_clust_10="13000.00000"></scales>
<clustering>
<clus scale="   20.068">  2  9  1 -1</clus>
<clus scale="   79.552">  5  6 -1 -1</clus>
<clus scale="   92.152">  7  8 -1 -1</clus>
<clus scale="   49.900">  7 10 -1 -1</clus>
<clus scale="   92.320">  1  5  2 -1</clus>
<clus scale="   20.068">  2  5  1 -1</clus>
</clustering>
</event>
<event>
10    4  0.7508634E-005  0.3085443E+03  0.7546771E-02  0.1120398E+00
         21   -1    0    0  503  502  0.00000000000E+00  0.00000000000E+00  0.20160177725E+03  0.20160177725E+03  0.00000000000E+00 0. -1.
          2   -1    0    0  502    0 -0.00000000000E+00 -0.00000000000E+00 -0.50548515644E+03  0.50548515644E+03  0.00000000000E+00 0. -1.
         24    2    1    2    0    0 -0.60478979771E+02  0.97402563123E+02 -0.73029913759E+02  0.15828527671E+03  0.81091887523E+02 0.  0.
         23    2    1    2    0    0  0.32832669287E+02  0.11098139669E+03 -0.89928454792E+02  0.17692938991E+03  0.99106142339E+02 0.  0.
        -13    1    3    3    0    0 -0.69549655176E+02  0.78919335191E+02 -0.84309354421E+02  0.13480906218E+03  0.00000000000E+00 0.  1.
         14    1    3    3    0    0  0.90706754050E+01  0.18483227932E+02  0.11279440662E+02  0.23476214532E+02  0.00000000000E+00 0. -1.
        -11    1    4    4    0    0 -0.45437993628E-01  0.11794067868E+03 -0.62066122725E+02  0.13327493891E+03  0.00000000000E+00 0. -1.
         11    1    4    4    0    0  0.32878107281E+02 -0.69592819844E+01 -0.27862332067E+02  0.43654451002E+02  0.00000000000E+00 0.  1.
         21    1    1    2  503  501  0.46674250530E+02 -0.81314297375E+02  0.75367732367E+02  0.12029462042E+03  0.00000000000E+00 0. -1.
          1    1    1    2  501    0 -0.19027940046E+02 -0.12706966244E+03 -0.21629274300E+03  0.25157764665E+03  0.00000000000E+00 0. -1.
<scales pt_clust_5="13000.00000" pt_clust_6="13000.00000" pt_clust_7="13000.00000" pt_clust_8="13000.00000" pt_clust_9="93.75767" pt_clust_10="13000.00000"></scales>
<clustering>
<clus scale="   81.092">  5  6 -1 -1</clus>
<clus scale="   93.758">  1  9  2 -1</clus>
<clus scale="   99.106">  7  8 -1 -1</clus>
<clus scale="  111.257">  2  5  1 -1</clus>
<clus scale="  104.332">  7 10 -1 -1</clus>
<clus scale="   93.758">  1  5  2 -1</clus>
</clustering>
</event>
<event>
10    4  0.7508634E-005  0.1466642E+03  0.7546771E-02  0.1218808E+00
          2   -1    0    0  502    0 -0.00000000000E+00  0.00000000000E+00  0.94870665439E+03  0.94870665439E+03  0.00000000000E+00 0. -1.
         21   -1    0    0  503  502  0.00000000000E+00 -0.00000000000E+00 -0.73491412101E+02  0.73491412101E+02  0.00000000000E+00 0.  1.
         24    2    1    2    0    0 -0.46875075830E+02  0.57309053814E+02  0.63707910715E+03  0.64619392292E+03  0.78836519916E+02 0.  0.
         23    2    1    2    0    0  0.43549238790E+02 -0.24554016984E+02  0.25696149453E+03  0.27723726762E+03  0.91279005996E+02 0.  0.
        -13    1    3    3    0    0 -0.68664386429E+02  0.35918965905E+02  0.44262498320E+03  0.44935714730E+03  0.00000000000E+00 0.  1.
         14    1    3    3    0    0  0.21789310599E+02  0.21390087909E+02  0.19445412395E+03  0.19683677563E+03  0.00000000000E+00 0. -1.
        -11    1    4    4    0    0 -0.97638594219E+01 -0.38468417323E+02  0.54547214319E+02  0.67457769546E+02  0.00000000000E+00 0.  1.
         11    1    4    4    0    0  0.53313098211E+02  0.13914400339E+02  0.20241428021E+03  0.20977949807E+03  0.00000000000E+00 0. -1.
         21    1    1    2  503  501 -0.29810887436E+02 -0.23856397069E+02 -0.42461057802E+02  0.57103048259E+02  0.00000000000E+00 0.  1.
          1    1    1    2  501    0  0.33136724476E+02 -0.88986397609E+01  0.23635698412E+02  0.41663827693E+02  0.00000000000E+00 0. -1.
<scales pt_clust_5="13000.00000" pt_clust_6="13000.00000" pt_clust_7="13000.00000" pt_clust_8="13000.00000" pt_clust_9="38.18137" pt_clust_10="13000.00000"></scales>
<clustering>
<clus scale="   38.181">  2  9  1 -1</clus>
<clus scale="   78.837">  5  6 -1 -1</clus>
<clus scale="   91.279">  7  8 -1 -1</clus>
<clus scale="   28.253">  7 10 -1 -1</clus>
<clus scale="  108.454">  1  5  2 -1</clus>
<clus scale="   38.181">  2  5  1 -1</clus>
</clustering>
</event>
<event>
10    4  0.7508634E-005  0.6959326E+03  0.7546771E-02  0.1035782E+00
          2   -1    0    0  502    0 -0.00000000000E+00  0.00000000000E+00  0.42836899947E+03  0.42836899947E+03  0.00000000000E+00 0. -1.
         21   -1    0    0  503  502  0.00000000000E+00 -0.00000000000E+00 -0.62093916813E+03  0.62093916813E+03  0.00000000000E+00 0.  1.
         24    2    1    2    0    0 -0.26431621753E+02 -0.60991384740E+02  0.12628653452E+03  0.15867907713E+03  0.69369885953E+02 0.  0.
         23    2    1    2    0    0 -0.77917177059E+02 -0.10500844957E+03 -0.37750943449E+03  0.40951311402E+03  0.89943073442E+02 0.  0.
        -13    1    3    3    0    0 -0.27621935172E+02 -0.34607588078E+01  0.11195974193E+02  0.30004966127E+02  0.00000000000E+00 0.  1.
         14    1    3    3    0    0  0.11903134186E+01 -0.57530625932E+02  0.11509056033E+03  0.12867411100E+03  0.00000000000E+00 0. -1.
        -11    1    4    4    0    0 -0.62162721327E+02 -0.24626471076E+02 -0.24295200077E+03  0.25198480446E+03  0.00000000000E+00 0.  1.
         11    1    4    4    0    0 -0.15754455732E+02 -0.80381978498E+02 -0.13455743372E+03  0.15752830956E+03  0.00000000000E+00 0. -1.
         21    1    1    2  503  501  0.30785407101E+02 -0.37590048454E+01 -0.17802498172E+03  0.18070629631E+03  0.00000000000E+00 0.  1.
          1    1    1    2  501    0  0.73563391711E+02  0.16975883916E+03  0.23667771303E+03  0.30040968014E+03  0.00000000000E+00 0. -1.
<scales pt_clust_5="13000.00000" pt_clust_6="13000.00000" pt_clust_7="13000.00000" pt_clust_8="13000.00000" pt_clust_9="31.01405" pt_clust_10="13000.00000"></scales>
<clustering>
<clus scale="   31.014">  2  9  1 -1</clus>
<clus scale="   69.370">  5  6 -1 -1</clus>
<clus scale="   89.943">  7  8 -1 -1</clus>
<clus scale="   95.860">  1  5  2 -1</clus>
<clus scale="  123.223">  7 10 -1 -1</clus>
<clus scale="   31.014">  2  5  1 -1</clus>
</clustering>
</event>
<event>
10    4  0.7508634E-005  0.2226606E+03  0.7546771E-02  0.1153626E+00
         21   -1    0    0  503  502  0.00000000000E+00  0.00000000000E+00  0.48141813444E+02  0.48141813444E+02  0.00000000000E+00 0. -1.
          2   -1    0    0  502    0 -0.00000000000E+00 -0.00000000000E+00 -0.10079867939E+04  0.10079867939E+04  0.00000000000E+00 0. -1.
         24    2    1    2    0    0  0.56583451593E+02  0.51897420084E+01 -0.14647783135E+03  0.19097106830E+03  0.10856138095E+03 0.  0.
         23    2    1    2    0    0 -0.13982614339E+03 -0.36974739987E+02 -0.55456184622E+03  0.58028870807E+03  0.90981655608E+02 0.  0.
        -13    1    3    3    0    0  0.15741063452E+02 -0.21643908965E+02 -0.13897668835E+03  0.14153006670E+03  0.00000000000E+00 0.  1.
         14    1    3    3    0    0  0.40842388141E+02  0.26833650974E+02 -0.75011430039E+01  0.49441001608E+02  0.00000000000E+00 0. -1.
        -13    1    4    4    0    0 -0.77249342852E+02 -0.58784029390E+02 -0.24128821127E+03  0.26008272526E+03  0.00000000000E+00 0. -1.
         13    1    4    4    0    0 -0.62576800537E+02  0.21809289403E+02 -0.31327363495E+03  0.32020598281E+03  0.00000000000E+00 0.  1.
         21    1    1    2  503  501  0.29716570863E+02  0.17901455589E+02 -0.20638573198E+02  0.40366909712E+02  0.00000000000E+00 0. -1.
          1    1    1    2  501    0  0.53526120934E+02  0.13883542390E+02 -0.23816672967E+03  0.24450192125E+03  0.00000000000E+00 0. -1.
<scales pt_clust_5="13000.00000" pt_clust_6="13000.00000" pt_clust_7="13000.00000" pt_clust_8="13000.00000" pt_clust_9="34.69203" pt_clust_10="13000.00000"></scales>
<clustering>
<clus scale="   34.692">  1  9  2 -1</clus>
<clus scale="   90.982">  7  8 -1 -1</clus>
<clus scale="   58.055">  7 10 -1 -1</clus>
<clus scale="  108.561">  5  6 -1 -1</clus>
<clus scale="  132.224">  2  5  1 -1</clus>
<clus scale="   34.692">  1  5  2 -1</clus>
</clustering>
</event>
<event>
10    4  0.7508634E-005  0.3320842E+03  0.7546771E-02  0.1083587E+00
         21   -1    0    0  501  502  0.00000000000E+00  0.00000000000E+00  0.43302873788E+03  0.43302873788E+03  0.00000000000E+00 0. -1.
          2   -1    0    0  503    0 -0.00000000000E+00 -0.00000000000E+00 -0.40669819286E+03  0.40669819286E+03  0.00000000000E+00 0. -1.
         24    2    1    2    0    0 -0.18314632421E+03  0.17657395137E+03  0.68835990313E+02  0.27564582690E+03  0.80754516569E+02 0.  0.
         23    2    1    2    0    0  0.28050309383E+02  0.26986612972E+01 -0.13509870074E+03  0.16496280542E+03  0.90371265362E+02 0.  0.
        -11    1    3    3    0    0 -0.13405792234E+02  0.18226804439E+02 -0.16842060916E+02  0.28206146163E+02  0.00000000000E+00 0.  1.
         12    1    3    3    0    0 -0.16974053198E+03  0.15834714693E+03  0.85678051228E+02  0.24743968073E+03  0.00000000000E+00 0. -1.
        -11    1    4    4    0    0 -0.33115529828E+02  0.46402879430E+01 -0.49638500424E+02  0.59851076117E+02  0.00000000000E+00 0.  1.
         11    1    4    4    0    0  0.61165839210E+02 -0.19416266458E+01 -0.85460200314E+02  0.10511172931E+03  0.00000000000E+00 0. -1.
         21    1    1    2  503  502  0.12473401028E+03  0.21874637417E+02  0.14150322134E+03  0.18989532573E+03  0.00000000000E+00 0. -1.
          1    1    1    2  501    0  0.30362004555E+02 -0.20114725009E+03 -0.48909965891E+02  0.20922297269E+03  0.00000000000E+00 0. -1.
<scales pt_clust_5="13000.00000" pt_clust_6="13000.00000" pt_clust_7="13000.00000" pt_clust_8="13000.00000" pt_clust_9="126.63757" pt_clust_10="13000.00000"></scales>
<clustering>
<clus scale="   80.755">  5  6 -1 -1</clus>
<clus scale="   90.371">  7  8 -1 -1</clus>
<clus scale="  126.638">  1  9  2 -1</clus>
<clus scale="  206.050">  7 10 -1 -1</clus>
<clus scale="  231.169">  2  5  1 -1</clus>
<clus scale="  126.638">  1  5  2 -1</clus>
</clustering>
</event>
<event>
10    4  0.7508634E-005  0.3795399E+03  0.7546771E-02  0.1095277E+00
          2   -1    0    0  502    0 -0.00000000000E+00  0.00000000000E+00  0.10260413631E+04  0.10260413631E+04  0.00000000000E+00 0. -1.
         21   -1    0    0  503  502  0.00000000000E+00 -0.00000000000E+00 -0.53990210925E+03  0.53990210925E+03  0.00000000000E+00 0.  1.
         24    2    1    2    0    0  0.47248065872E+02  0.82539896725E+02  0.27730495083E+03  0.30401572050E+03  0.80512783317E+02 0.  0.
         23    2    1    2    0    0  0.91664756767E+02 -0.91951132376E+02  0.11999768610E+03  0.19937274175E+03  0.92155342247E+02 0.  0.
        -13    1    3    3    0    0  0.51910460700E+02  0.41266625726E+02  0.23713529574E+03  0.24623317976E+03  0.00000000000E+00 0.  1.
         14    1    3    3    0    0 -0.46623948282E+01  0.41273270999E+02  0.40169655088E+02  0.57782540740E+02  0.00000000000E+00 0. -1.
        -13    1    4    4    0    0  0.13860489021E+02 -0.30470171014E+02 -0.10854864195E+02  0.35190517959E+02  0.00000000000E+00 0.  1.
         13    1    4    4    0    0  0.77804267746E+02 -0.61480961362E+02  0.13085255030E+03  0.16418222379E+03  0.00000000000E+00 0. -1.
         21    1    1    2  503  501 -0.28474175131E+02 -0.61635279777E+02 -0.47693514431E+03  0.48174351915E+03  0.00000000000E+00 0.  1.
          1    1    1    2  501    0 -0.11043864751E+03  0.71046515428E+02  0.56577176119E+03  0.58081149092E+03  0.00000000000E+00 0. -1.
<scales pt_clust_5="13000.00000" pt_clust_6="13000.00000" pt_clust_7="13000.00000" pt_clust_8="13000.00000" pt_clust_9="67.89467" pt_clust_10="13000.00000"></scales>
<clustering>
<clus scale="   67.895">  2  9  1 -1</clus>
<clus scale="   80.513">  5  6 -1 -1</clus>
<clus scale="   92.155">  7  8 -1 -1</clus>
<clus scale="  113.642">  1  5  2 -1</clus>
<clus scale="  141.426">  7 10 -1 -1</clus>
<clus scale="   67.895">  2  5  1 -1</clus>
</clustering>
</event>
<event>
10    4  0.7508634E-005  0.4757414E+03  0.7546771E-02  0.1072887E+00
          2   -1    0    0  503    0 -0.00000000000E+00  0.00000000000E+00  0.58456301739E+03  0.58456301739E+03  0.00000000000E+00 0. -1.
         21   -1    0    0  501  502  0.00000000000E+00 -0.00000000000E+00 -0.20204349149E+03  0.20204349149E+03  0.00000000000E+00 0. -1.
         24    2    1    2    0    0 -0.79218600070E+01 -0.69461134945E+02  0.14007411562E+03  0.17322204134E+03  0.74145212953E+02 0.  0.
         23    2    1    2    0    0  0.12545212331E+03  0.24460558123E+03  0.80925809874E+02  0.30173567923E+03  0.94473847226E+02 0.  0.
        -11    1    3    3    0    0  0.14782931671E+02 -0.28064781778E+02  0.11593301654E+03  0.12019414033E+03  0.00000000000E+00 0.  1.
         12    1    3    3    0    0 -0.22704791678E+02 -0.41396353167E+02  0.24141099084E+02  0.53027901011E+02  0.00000000000E+00 0. -1.
        -11    1    4    4    0    0  0.61572829842E+02  0.34905357744E+02  0.10926730355E+02  0.71616972920E+02  0.00000000000E+00 0.  1.
         11    1    4    4    0    0  0.63879293464E+02  0.20970022348E+03  0.69999079519E+02  0.23011870631E+03  0.00000000000E+00 0. -1.
         21    1    1    2  503  502 -0.25533457012E+02 -0.38957919681E+02 -0.32933767684E+02  0.57046559815E+02  0.00000000000E+00 0.  1.
          1    1    1    2  501    0 -0.91996806286E+02 -0.13618652660E+03  0.19445336808E+03  0.25460222849E+03  0.00000000000E+00 0. -1.
<scales pt_clust_5="13000.00000" pt_clust_6="13000.00000" pt_clust_7="13000.00000" pt_clust_8="13000.00000" pt_clust_9="46.57979" pt_clust_10="13000.00000"></scales>
<clustering>
<clus scale="   46.580">  2  9  1 -1</clus>
<clus scale="   74.145">  5  6 -1 -1</clus>
<clus scale="   94.474">  7  8 -1 -1</clus>
<clus scale="  104.991">  1  5  2 -1</clus>
<clus scale="  215.026">  7 10 -1 -1</clus>
<clus scale="   46.580">  2  5  1 -1</clus>
</clustering>
</event>
<event>
10    4  0.7508634E-005  0.3958627E+03  0.7546771E-02  0.1072389E+00
         21   -1    0    0  501  502  0.00000000000E+00  0.00000000000E+00  0.28527091663E+03  0.28527091663E+03  0.00000000000E+00 0.  1.
          2   -1    0    0  503    0 -0.00000000000E+00 -0.00000000000E+00 -0.90282778627E+03  0.90282778627E+03  0.00000000000E+00 0. -1.
         24    2    1    2    0    0 -0.46179663390E+02  0.12676717425E+03 -0.43144304174E+02  0.16275784564E+03  0.80163629893E+02 0.  0.
         23    2    1    2    0    0 -0.84516219871E+02  0.49721032507E+02 -0.28335551085E+03  0.31399633833E+03  0.93210420332E+02 0.  0.
        -11    1    3    3    0    0 -0.43017365056E+02  0.13762805098E+03 -0.33841982776E+02  0.14811230169E+03  0.00000000000E+00 0.  1.
         12    1    3    3    0    0 -0.31622983340E+01 -0.10860876736E+02 -0.93023213981E+01  0.14645543951E+02  0.00000000000E+00 0. -1.
        -13    1    4    4    0    0 -0.51465696609E+02  0.76686830687E+02 -0.20298415491E+03  0.22300707404E+03  0.00000000000E+00 0.  1.
         13    1    4    4    0    0 -0.33050523262E+02 -0.26965798180E+02 -0.80371355941E+02  0.90989264285E+02  0.00000000000E+00 0. -1.
         21    1    1    2  503  502  0.24349410463E+01  0.62924046754E+02  0.16718890968E+03  0.17865468401E+03  0.00000000000E+00 0.  1.
          1    1    1    2  501    0  0.12826094222E+03 -0.23941225351E+03 -0.45824596429E+03  0.53268983491E+03  0.00000000000E+00 0. -1.
<scales pt_clust_5="13000.00000" pt_clust_6="13000.00000" pt_clust_7="13000.00000" pt_clust_8="13000.00000" pt_clust_9="62.97114" pt_clust_10="13000.00000"></scales>
<clustering>
<clus scale="   62.971">  1  9  2 -1</clus>
<clus scale="   80.164">  5  6 -1 -1</clus>
<clus scale="   93.210">  7  8 -1 -1</clus>
<clus scale="  184.730">  2  5  1 -1</clus>
<clus scale="  162.665">  7 10 -1 -1</clus>
<clus scale="   62.971">  1  5  2 -1</clus>
</clustering>
</event>
<event>
10    4  0.7508634E-005  0.4583297E+03  0.7546771E-02  0.1066880E+00
          2   -1    0    0  503    0 -0.00000000000E+00  0.00000000000E+00  0.27174086275E+04  0.27174086275E+04  0.00000000000E+00 0. -1.
         21   -1    0    0  501  502  0.00000000000E+00 -0.00000000000E+00 -0.53140704167E+02  0.53140704167E+02  0.00000000000E+00 0.  1.
         24    2    1    2    0    0  0.10576812326E+03 -0.29091217230E+02  0.10441624710E+04  0.10528530076E+04  0.78682875923E+02 0.  0.
         23    2    1    2    0    0 -0.30761143796E+03  0.24849831569E+02  0.81513796843E+03  0.87725732885E+03  0.99439441679E+02 0.  0.
        -11    1    3    3    0    0  0.51644624313E+02 -0.44047724618E+02  0.35668587367E+03  0.36308701676E+03  0.00000000000E+00 0.  1.
         12    1    3    3    0    0  0.54123498949E+02  0.14956507388E+02  0.68747659728E+03  0.68976599080E+03  0.00000000000E+00 0. -1.
        -11    1    4    4    0    0 -0.29532172332E+03  0.42660130778E+02  0.71420321089E+03  0.77402909084E+03  0.00000000000E+00 0.  1.
         11    1    4    4    0    0 -0.12289714638E+02 -0.17810299209E+02  0.10093475753E+03  0.10322823801E+03  0.00000000000E+00 0. -1.
         21    1    1    2  503  502  0.63122589785E+02  0.62700481882E+02  0.35403894072E+03  0.36504709739E+03  0.00000000000E+00 0. -1.
          1    1    1    2  501    0  0.13872072491E+03 -0.58459096221E+02  0.45092854328E+03  0.47539189791E+03  0.00000000000E+00 0. -1.
<scales pt_clust_5="13000.00000" pt_clust_6="13000.00000" pt_clust_7="13000.00000" pt_clust_8="13000.00000" pt_clust_9="88.97089" pt_clust_10="13000.00000"></scales>
<clustering>
<clus scale="   78.683">  5  6 -1 -1</clus>
<clus scale="   88.971">  2  9  1 -1</clus>
<clus scale="   99.439">  7  8 -1 -1</clus>
<clus scale="  138.475">  1  5  2 -1</clus>
<clus scale="  210.744">  7 10 -1 -1</clus>
<clus scale="   88.971">  2  5  1 -1</clus>
</clustering>
</event>
<event>
10    4  0.7508634E-005  0.8359825E+03  0.7546771E-02  0.9988614E-01
         21   -1    0    0  501  502  0.00000000000E+00  0.00000000000E+00  0.19316648735E+03  0.19316648735E+03  0.00000000000E+00 0. -1.
          2   -1    0    0  503    0 -0.00000000000E+00 -0.00000000000E+00 -0.15854654036E+04  0.15854654036E+04  0.00000000000E+00 0. -1.
         24    2    1    2    0    0  0.75509856834E+02  0.12138042415E+03 -0.23924738383E+03  0.28974582592E+03  0.79236274049E+02 0.  0.
         23    2    1    2    0    0  0.21992573064E+03  0.22959416724E+03 -0.56576945101E+03  0.65523331526E+03  0.90304025944E+02 0.  0.
        -11    1    3    3    0    0  0.79874566180E+01  0.65755339485E+02 -0.15379557274E+03  0.16745340346E+03  0.00000000000E+00 0.  1.
         12    1    3    3    0    0  0.67522400216E+02  0.55625084665E+02 -0.85451811087E+02  0.12229242247E+03  0.00000000000E+00 0. -1.
        -11    1    4    4    0    0  0.84181532557E+02  0.88517299313E+02 -0.13500688466E+03  0.18206784891E+03  0.00000000000E+00 0.  1.
         11    1    4    4    0    0  0.13574419809E+03  0.14107686793E+03 -0.43076256635E+03  0.47316546635E+03  0.00000000000E+00 0. -1.
         21    1    1    2  503  502  0.57380826371E+01  0.54153927646E+02  0.58628343361E+01  0.54771765521E+02  0.00000000000E+00 0. -1.
          1    1    1    2  501    0 -0.30117367012E+03 -0.40512851904E+03 -0.59314491571E+03  0.77888098420E+03  0.00000000000E+00 0. -1.
<scales pt_clust_5="13000.00000" pt_clust_6="13000.00000" pt_clust_7="13000.00000" pt_clust_8="13000.00000" pt_clust_9="54.45708" pt_clust_10="13000.00000"></scales>
<clustering>
<clus scale="   54.457">  1  9  2 -1</clus>
<clus scale="   79.236">  5  6 -1 -1</clus>
<clus scale="   90.304">  7  8 -1 -1</clus>
<clus scale="  170.168">  2  5  1 -1</clus>
<clus scale="  406.072">  7 10 -1 -1</clus>
<clus scale="   54.457">  1  5  2 -1</clus>
</clustering>
</event>
<event>
10    4  0.7508634E-005  0.3236796E+03  0.7546771E-02  0.1097638E+00
         21   -1    0    0  501  502  0.00000000000E+00  0.00000000000E+00  0.31961902580E+03  0.31961902580E+03  0.00000000000E+00 0. -1.
          2   -1    0    0  503    0 -0.00000000000E+00 -0.00000000000E+00 -0.26916934634E+03  0.26916934634E+03  0.00000000000E+00 0. -1.
         24    2    1    2    0    0  0.13481905373E+03  0.77788662954E+02 -0.18089194405E+02  0.17960467074E+03  0.87768818297E+02 0.  0.
         23    2    1    2    0    0 -0.10485316220E+03 -0.17008388188E+03 -0.63975198452E+02  0.22817695969E+03  0.89717258187E+02 0.  0.
        -13    1    3    3    0    0  0.10239174838E+01  0.22189854320E+02  0.19895720888E+02  0.29820760410E+02  0.00000000000E+00 0.  1.
         14    1    3    3    0    0  0.13379513624E+03  0.55598808634E+02 -0.37984915293E+02  0.14978391033E+03  0.00000000000E+00 0. -1.
        -11    1    4    4    0    0 -0.63419794068E+02 -0.50713242992E+02 -0.61384090762E+02  0.10179346685E+03  0.00000000000E+00 0.  1.
         11    1    4    4    0    0 -0.41433368134E+02 -0.11937063889E+03 -0.25911076902E+01  0.12638349284E+03  0.00000000000E+00 0. -1.
         21    1    1    2  503  502 -0.37191625903E+02  0.18532394917E+02  0.80078427967E+02  0.90217633112E+02  0.00000000000E+00 0.  1.
          1    1    1    2  501    0  0.72257343790E+01  0.73762824007E+02  0.52435644347E+02  0.90789108603E+02  0.00000000000E+00 0. -1.
<scales pt_clust_5="13000.00000" pt_clust_6="13000.00000" pt_clust_7="13000.00000" pt_clust_8="13000.00000" pt_clust_9="41.55318" pt_clust_10="13000.00000"></scales>
<clustering>
<clus scale="   41.553">  1  9  2 -1</clus>
<clus scale="   87.769">  5  6 -1 -1</clus>
<clus scale="   89.717">  7  8 -1 -1</clus>
<clus scale="   79.531">  7 10 -1 -1</clus>
<clus scale="  172.263">  2  5  1 -1</clus>
<clus scale="   41.553">  1  5  2 -1</clus>
</clustering>
</event>
<event>
10    4  0.7508634E-005  0.2642918E+03  0.7546771E-02  0.1121800E+00
         21   -1    0    0  501  502  0.00000000000E+00  0.00000000000E+00  0.17443196475E+03  0.17443196475E+03  0.00000000000E+00 0.  1.
         -3   -1    0    0    0  501 -0.00000000000E+00 -0.00000000000E+00 -0.57751450287E+03  0.57751450287E+03  0.00000000000E+00 0.  1.
         24    2    1    2    0    0  0.62101951279E+02 -0.16370708438E+03  0.13819813879E+02  0.19415035384E+03  0.82744853678E+02 0.  0.
         23    2    1    2    0    0  0.20095068598E+00  0.13150628451E+02 -0.62219359545E+02  0.11129836434E+03  0.91340559407E+02 0.  0.
        -11    1    3    3    0    0  0.74883676938E+02 -0.10180298799E+03  0.27830924029E+02  0.12940623543E+03  0.00000000000E+00 0.  1.
         12    1    3    3    0    0 -0.12781725659E+02 -0.61904096395E+02 -0.14011110150E+02  0.64744118412E+02  0.00000000000E+00 0. -1.
        -11    1    4    4    0    0 -0.22708856468E+02  0.12393129231E+02  0.15575109100E+02  0.30197116380E+02  0.00000000000E+00 0. -1.
         11    1    4    4    0    0  0.22909807154E+02  0.75749922023E+00 -0.77794468644E+02  0.81101247959E+02  0.00000000000E+00 0.  1.
         21    1    1    2  503  502 -0.38438465319E+01  0.35289759847E+02  0.26306465471E+02  0.44183395431E+02  0.00000000000E+00 0. -1.
         -4    1    1    2    0  503 -0.58459055433E+02  0.11526669609E+03 -0.38098945793E+03  0.40231435401E+03  0.00000000000E+00 0.  1.
<scales pt_clust_5="13000.00000" pt_clust_6="13000.00000" pt_clust_7="13000.00000" pt_clust_8="13000.00000" pt_clust_9="35.49848" pt_clust_10="13000.00000"></scales>
<clustering>
<clus scale="   35.498">  1  9  2 -1</clus>
<clus scale="   82.745">  5  6 -1 -1</clus>
<clus scale="   91.341">  7  8 -1 -1</clus>
<clus scale="  131.791">  7 10 -1 -1</clus>
<clus scale="  170.933">  2  5  1 -1</clus>
<clus scale="   35.498">  1  5  2 -1</clus>
</clustering>
</event>
<event>
10    4  0.7508634E-005  0.3837616E+03  0.7546771E-02  0.1101400E+00
         21   -1    0    0  501  502  0.00000000000E+00  0.00000000000E+00  0.36348028667E+03  0.36348028667E+03  0.00000000000E+00 0.  1.
          2   -1    0    0  503    0 -0.00000000000E+00 -0.00000000000E+00 -0.28197233811E+03  0.28197233811E+03  0.00000000000E+00 0. -1.
         24    2    1    2    0    0  0.47152310484E+01 -0.46310129872E+02 -0.11321959217E+03  0.14715408752E+03  0.81662646847E+02 0.  0.
         23    2    1    2    0    0  0.16800550401E+03 -0.79800357838E+02  0.46957121419E+02  0.21155099014E+03  0.89190266793E+02 0.  0.
        -11    1    3    3    0    0  0.21800391030E+02  0.10419131266E+02 -0.69336602911E+02  0.73426016157E+02  0.00000000000E+00 0.  1.
         12    1    3    3    0    0 -0.17085159981E+02 -0.56729261137E+02 -0.43882989263E+02  0.73728071367E+02  0.00000000000E+00 0. -1.
        -11    1    4    4    0    0  0.96886508391E+02 -0.88485066832E+02  0.48495556442E+02  0.13988717438E+03  0.00000000000E+00 0.  1.
         11    1    4    4    0    0  0.71118995619E+02  0.86847089938E+01 -0.15384350231E+01  0.71663815768E+02  0.00000000000E+00 0. -1.
         21    1    1    2  503  502 -0.41619975126E+02  0.52901221820E+01  0.90065650756E+02  0.99358085571E+02  0.00000000000E+00 0.  1.
          1    1    1    2  501    0 -0.13110075993E+03  0.12082036553E+03  0.57704768563E+02  0.18738946154E+03  0.00000000000E+00 0. -1.
<scales pt_clust_5="13000.00000" pt_clust_6="13000.00000" pt_clust_7="13000.00000" pt_clust_8="13000.00000" pt_clust_9="41.95483" pt_clust_10="13000.00000"></scales>
<clustering>
<clus scale="   41.955">  1  9  2 -1</clus>
<clus scale="   81.663">  5  6 -1 -1</clus>
<clus scale="   89.190">  7  8 -1 -1</clus>
<clus scale="   93.739">  2  5  1 -1</clus>
<clus scale="  179.007">  7 10 -1 -1</clus>
<clus scale="   41.955">  1  5  2 -1</clus>
</clustering>
</event>
<event>
10    4  0.7508634E-005  0.2840002E+03  0.7546771E-02  0.1101491E+00
          2   -1    0    0  503    0 -0.00000000000E+00  0.00000000000E+00  0.83654570608E+03  0.83654570608E+03  0.00000000000E+00 0. -1.
         21   -1    0    0  501  502  0.00000000000E+00 -0.00000000000E+00 -0.38669947643E+03  0.38669947643E+03  0.00000000000E+00 0. -1.
         24    2    1    2    0    0  0.21016791367E+03 -0.16273588662E+03  0.75338643777E+02  0.28766586392E+03  0.80138737738E+02 0.  0.
         23    2    1    2    0    0 -0.16089521893E+02  0.61050342889E+02  0.16536040121E+03  0.19624659465E+03  0.84750495814E+02 0.  0.
        -11    1    3    3    0    0  0.54207402017E+01 -0.36016356074E+02  0.15298409701E+02  0.39504476564E+02  0.00000000000E+00 0.  1.
         12    1    3    3    0    0  0.20474717347E+03 -0.12671953055E+03  0.60040234076E+02  0.24816138735E+03  0.00000000000E+00 0. -1.
        -11    1    4    4    0    0  0.15014579774E+02  0.51909617256E+02  0.15175346856E+03  0.16108743337E+03  0.00000000000E+00 0.  1.
         11    1    4    4    0    0 -0.31104101666E+02  0.91407256332E+01  0.13606932648E+02  0.35159161276E+02  0.00000000000E+00 0. -1.
         21    1    1    2  503  502 -0.47349653620E+02  0.41537279728E+02 -0.24778501463E+03  0.25566530618E+03  0.00000000000E+00 0. -1.
          1    1    1    2  501    0 -0.14672873816E+03  0.60148264005E+02  0.45693219929E+03  0.48366741777E+03  0.00000000000E+00 0. -1.
<scales pt_clust_5="13000.00000" pt_clust_6="13000.00000" pt_clust_7="13000.00000" pt_clust_8="13000.00000" pt_clust_9="62.98679" pt_clust_10="13000.00000"></scales>
<clustering>
<clus scale="   62.987">  2  9  1 -1</clus>
<clus scale="   80.139">  5  6 -1 -1</clus>
<clus scale="   84.750">  7  8 -1 -1</clus>
<clus scale="  164.490">  7 10 -1 -1</clus>
<clus scale="  230.743">  1  5  2 -1</clus>
<clus scale="   62.987">  2  5  1 -1</clus>
</clustering>
</event>
<event>
10    4  0.7508634E-005  0.3700927E+03  0.7546771E-02  0.1080679E+00
          2   -1    0    0  503    0 -0.00000000000E+00  0.00000000000E+00  0.13298824064E+04  0.13298824064E+04  0.00000000000E+00 0. -1.
         21   -1    0    0  501  502  0.00000000000E+00 -0.00000000000E+00 -0.12666212761E+03  0.12666212761E+03  0.00000000000E+00 0.  1.
         24    2    1    2    0    0  0.11962553222E+02  0.16195818683E+03  0.16345373069E+03  0.24355635686E+03  0.78924140340E+02 0.  0.
         23    2    1    2    0    0 -0.32476894671E+02 -0.22371296236E+02  0.45427827475E+02  0.10237965924E+03  0.82841315381E+02 0.  0.
        -13    1    3    3    0    0  0.73029079586E+01  0.16581347986E+03  0.16787034201E+03  0.23606756298E+03  0.00000000000E+00 0.  1.
         14    1    3    3    0    0  0.46596452633E+01 -0.38552930218E+01 -0.44166113153E+01  0.74887938798E+01  0.00000000000E+00 0. -1.
        -11    1    4    4    0    0 -0.30920070210E+02 -0.50946120650E+02  0.43336991342E+02  0.73686177602E+02  0.00000000000E+00 0.  1.
         11    1    4    4    0    0 -0.15568244614E+01  0.28574824414E+02  0.20908361322E+01  0.28693481637E+02  0.00000000000E+00 0. -1.
         21    1    1    2  503  502  0.13370915528E+03 -0.23224835448E+03  0.30539140421E+03  0.40630203806E+03  0.00000000000E+00 0.  1.
          1    1    1    2  501    0 -0.11319481383E+03  0.92661463885E+02  0.68894731638E+03  0.70430647982E+03  0.00000000000E+00 0. -1.
<scales pt_clust_5="13000.00000" pt_clust_6="13000.00000" pt_clust_7="13000.00000" pt_clust_8="13000.00000" pt_clust_9="227.36282" pt_clust_10="13000.00000"></scales>
<clustering>
<clus scale="   78.924">  5  6 -1 -1</clus>
<clus scale="   82.841">  7  8 -1 -1</clus>
<clus scale="  146.285">  7 10 -1 -1</clus>
<clus scale="  180.562">  1  5  2 -1</clus>
<clus scale="  227.363">  2  9  1 -1</clus>
<clus scale="  227.363">  2  5  1 -1</clus>
</clustering>
</event>
<event>
10    4  0.7508634E-005  0.2453210E+03  0.7546771E-02  0.1151403E+00
         -1   -1    0    0    0  501 -0.00000000000E+00  0.00000000000E+00  0.18470828444E+03  0.18470828444E+03  0.00000000000E+00 0.  1.
         21   -1    0    0  503  502  0.00000000000E+00 -0.00000000000E+00 -0.96269387585E+03  0.96269387585E+03  0.00000000000E+00 0.  1.
         24    2    1    2    0    0  0.62889726580E+02  0.24137780148E+02  0.14869489307E+03  0.18173074237E+03  0.79863266626E+02 0.  0.
         23    2    1    2    0    0  0.50419255689E+02  0.52816889973E+02 -0.25379304228E+03  0.27831280707E+03  0.87837264626E+02 0.  0.
        -13    1    3    3    0    0  0.58219897711E+02  0.41446707274E+02  0.14733330858E+03  0.16375130488E+03  0.00000000000E+00 0.  1.
         14    1    3    3    0    0  0.46698288691E+01 -0.17308927126E+02  0.13615844893E+01  0.17979437484E+02  0.00000000000E+00 0. -1.
        -13    1    4    4    0    0  0.72999007249E+02  0.48453550343E+02 -0.22503684212E+03  0.24149157731E+03  0.00000000000E+00 0.  1.
         13    1    4    4    0    0 -0.22579751560E+02  0.43633396301E+01 -0.28756200163E+02  0.36821229760E+02  0.00000000000E+00 0. -1.
         21    1    1    2  503  501 -0.14743351294E+02 -0.24604427594E+02 -0.14126319016E+03  0.14414587458E+03  0.00000000000E+00 0.  1.
         -2    1    1    2    0  502 -0.98565630975E+02 -0.52350242527E+02 -0.53162425204E+03  0.54321273628E+03  0.00000000000E+00 0.  1.
<scales pt_clust_5="13000.00000" pt_clust_6="13000.00000" pt_clust_7="13000.00000" pt_clust_8="13000.00000" pt_clust_9="28.68352" pt_clust_10="13000.00000"></scales>
<clustering>
<clus scale="   28.684">  2  9  1 -1</clus>
<clus scale="   79.863">  5  6 -1 -1</clus>
<clus scale="   87.837">  7  8 -1 -1</clus>
<clus scale="  104.187">  1  5  2 -1</clus>
<clus scale="  101.199">  7 10 -1 -1</clus>
<clus scale="   28.684">  2  5  1 -1</clus>
</clustering>
</event>
<event>
10    4  0.7508634E-005  0.2029140E+03  0.7546771E-02  0.1160227E+00
          2   -1    0    0  502    0 -0.00000000000E+00  0.00000000000E+00  0.10464320050E+04  0.10464320050E+04  0.00000000000E+00 0. -1.
         21   -1    0    0  503  502  0.00000000000E+00 -0.00000000000E+00 -0.43001548591E+02  0.43001548591E+02  0.00000000000E+00 0. -1.
         24    2    1    2    0    0 -0.19349279935E+02  0.12657687823E+03  0.34315328284E+03  0.37530035588E+03  0.81854021646E+02 0.  0.
         23    2    1    2    0    0  0.24459892567E+02 -0.85829747284E+02  0.28748272224E+03  0.31440838072E+03  0.90781509236E+02 0.  0.
        -13    1    3    3    0    0  0.22610443121E+02  0.59388116367E+02  0.90960751285E+02  0.11095962679E+03  0.00000000000E+00 0.  1.
         14    1    3    3    0    0 -0.41959723055E+02  0.67188761866E+02  0.25219253155E+03  0.26434072908E+03  0.00000000000E+00 0. -1.
        -11    1    4    4    0    0  0.57192882176E+01 -0.59484119233E+02  0.27213569276E+03  0.27861964391E+03  0.00000000000E+00 0.  1.
         11    1    4    4    0    0  0.18740604349E+02 -0.26345628051E+02  0.15347029480E+02  0.35788736813E+02  0.00000000000E+00 0. -1.
         21    1    1    2  503  501  0.32783473711E+02 -0.24966896332E+01  0.12100735588E+02  0.35034517400E+02  0.00000000000E+00 0.  1.
          1    1    1    2  501    0 -0.37894086343E+02 -0.38250441316E+02  0.36069371576E+03  0.36469029961E+03  0.00000000000E+00 0. -1.
<scales pt_clust_5="13000.00000" pt_clust_6="13000.00000" pt_clust_7="13000.00000" pt_clust_8="13000.00000" pt_clust_9="32.87841" pt_clust_10="13000.00000"></scales>
<clustering>
<clus scale="   32.878">  2  9  1 -1</clus>
<clus scale="   81.854">  5  6 -1 -1</clus>
<clus scale="   90.782">  7  8 -1 -1</clus>
<clus scale="   52.517">  7 10 -1 -1</clus>
<clus scale="  149.694">  1  5  2 -1</clus>
<clus scale="   32.878">  2  5  1 -1</clus>
</clustering>
</event>
<event>
10    4  0.7508634E-005  0.5938549E+03  0.7546771E-02  0.1057634E+00
         21   -1    0    0  503  502  0.00000000000E+00  0.00000000000E+00  0.28049866400E+03  0.28049866400E+03  0.00000000000E+00 0. -1.
          2   -1    0    0  502    0 -0.00000000000E+00 -0.00000000000E+00 -0.58513783354E+03  0.58513783354E+03  0.00000000000E+00 0. -1.
         24    2    1    2    0    0  0.17910326439E+02 -0.80536889527E+01 -0.93898694978E+02  0.12490511123E+03  0.79991750787E+02 0.  0.
         23    2    1    2    0    0  0.16148698489E+03 -0.13660093950E+03  0.81750756566E+02  0.24395505391E+03  0.89961209246E+02 0.  0.
        -13    1    3    3    0    0  0.33141702440E+02  0.27671222469E+02 -0.55201774154E+02  0.70080702504E+02  0.00000000000E+00 0.  1.
         14    1    3    3    0    0 -0.15231376001E+02 -0.35724911422E+02 -0.38696920824E+02  0.54824408727E+02  0.00000000000E+00 0. -1.
        -13    1    4    4    0    0  0.16688340218E+03 -0.10581420875E+03  0.78138908445E+02  0.21249095442E+03  0.00000000000E+00 0.  1.
         13    1    4    4    0    0 -0.53964172918E+01 -0.30786730756E+02  0.36118481212E+01  0.31464099496E+02  0.00000000000E+00 0. -1.
         21    1    1    2  503  501 -0.50556934589E+02 -0.10364904439E+03 -0.46783556831E+02  0.12445010738E+03  0.00000000000E+00 0. -1.
          1    1    1    2  501    0 -0.12884037674E+03  0.24830367284E+03 -0.24570767430E+03  0.37232622502E+03  0.00000000000E+00 0. -1.
<scales pt_clust_5="13000.00000" pt_clust_6="13000.00000" pt_clust_7="13000.00000" pt_clust_8="13000.00000" pt_clust_9="115.26566" pt_clust_10="13000.00000"></scales>
<clustering>
<clus scale="   79.992">  5  6 -1 -1</clus>
<clus scale="   82.367">  2  5  1 -1</clus>
<clus scale="   89.961">  7  8 -1 -1</clus>
<clus scale="  115.266">  1  9  2 -1</clus>
<clus scale="  250.027">  7 10 -1 -1</clus>
<clus scale="  115.266">  1  5  2 -1</clus>
</clustering>
</event>
<event>
10    4  0.7508634E-005  0.3947883E+03  0.7546771E-02  0.1093000E+00
         21   -1    0    0  503  502  0.00000000000E+00  0.00000000000E+00  0.93204698616E+03  0.93204698616E+03  0.00000000000E+00 0.  1.
         -1   -1    0    0    0  501 -0.00000000000E+00 -0.00000000000E+00 -0.10766029190E+03  0.10766029190E+03  0.00000000000E+00 0.  1.
         24    2    1    2    0    0 -0.68683922802E+02  0.25141604728E+02 -0.26044743900E+01  0.10809392469E+03  0.79548298087E+02 0.  0.
         23    2    1    2    0    0 -0.28732544573E+02  0.15813788099E+03  0.27035536588E+03  0.32664857045E+03  0.88170948686E+02 0.  0.
        -11    1    3    3    0    0 -0.19058385403E+02 -0.28720631854E+02  0.32525288916E+01  0.34621896142E+02  0.00000000000E+00 0.  1.
         12    1    3    3    0    0 -0.49625537399E+02  0.53862236582E+02 -0.58570032817E+01  0.73472028549E+02  0.00000000000E+00 0. -1.
        -11    1    4    4    0    0  0.14600010878E+02  0.13179846020E+03  0.19696684903E+03  0.23744459153E+03  0.00000000000E+00 0.  1.
         11    1    4    4    0    0 -0.43332555450E+02  0.26339420792E+02  0.73388516853E+02  0.89203978921E+02  0.00000000000E+00 0. -1.
         21    1    1    2  503  501  0.23730550371E+02  0.70641208117E+01  0.12596331797E+03  0.12837366669E+03  0.00000000000E+00 0.  1.
         -2    1    1    2    0  502  0.73685917004E+02 -0.19034360653E+03  0.43067248480E+03  0.47659111623E+03  0.00000000000E+00 0.  1.
<scales pt_clust_5="13000.00000" pt_clust_6="13000.00000" pt_clust_7="13000.00000" pt_clust_8="13000.00000" pt_clust_9="24.75966" pt_clust_10="13000.00000"></scales>
<clustering>
<clus scale="   24.760">  1  9  2 -1</clus>
<clus scale="   79.548">  5  6 -1 -1</clus>
<clus scale="   88.171">  7  8 -1 -1</clus>
<clus scale="  107.190">  2  5  1 -1</clus>
<clus scale="  183.792">  7 10 -1 -1</clus>
<clus scale="   24.760">  1  5  2 -1</clus>
</clustering>
</event>
<event>
10    4  0.7508634E-005  0.2275450E+03  0.7546771E-02  0.1152080E+00
         21   -1    0    0  501  502  0.00000000000E+00  0.00000000000E+00  0.54950466451E+02  0.54950466451E+02  0.00000000000E+00 0.  1.
          2   -1    0    0  503    0 -0.00000000000E+00 -0.00000000000E+00 -0.69350509494E+03  0.69350509494E+03  0.00000000000E+00 0. -1.
         24    2    1    2    0    0  0.81458597423E+02  0.58787798827E+02 -0.17858761689E+03  0.22004576071E+03  0.80219022157E+02 0.  0.
         23    2    1    2    0    0  0.60488570136E+01 -0.79219465051E+01 -0.74469014163E+02  0.11820861803E+03  0.91259505794E+02 0.  0.
        -11    1    3    3    0    0  0.41641740693E+02 -0.68459290905E+01 -0.26917205134E+02  0.50054342922E+02  0.00000000000E+00 0.  1.
         12    1    3    3    0    0  0.39816856730E+02  0.65633727917E+02 -0.15167041176E+03  0.16999141779E+03  0.00000000000E+00 0. -1.
        -11    1    4    4    0    0  0.33537867613E+02  0.27266606003E+02 -0.53777100115E+02  0.68994440818E+02  0.00000000000E+00 0.  1.
         11    1    4    4    0    0 -0.27489010599E+02 -0.35188552509E+02 -0.20691914048E+02  0.49214177209E+02  0.00000000000E+00 0. -1.
         21    1    1    2  503  502 -0.19325538531E+02  0.23201027482E+02 -0.38695893112E+02  0.49082952840E+02  0.00000000000E+00 0.  1.
          1    1    1    2  501    0 -0.68181915906E+02 -0.74066879804E+02 -0.34680210432E+03  0.36111822981E+03  0.00000000000E+00 0. -1.
<scales pt_clust_5="13000.00000" pt_clust_6="13000.00000" pt_clust_7="13000.00000" pt_clust_8="13000.00000" pt_clust_9="30.19543" pt_clust_10="13000.00000"></scales>
<clustering>
<clus scale="   30.195">  1  9  2 -1</clus>
<clus scale="   80.219">  5  6 -1 -1</clus>
<clus scale="   91.260">  7  8 -1 -1</clus>
<clus scale="  100.191">  7 10 -1 -1</clus>
<clus scale="  128.490">  2  5  1 -1</clus>
<clus scale="   30.195">  1  5  2 -1</clus>
</clustering>
</event>
<event>
10    4  0.7508634E-005  0.4099065E+03  0.7546771E-02  0.1066072E+00
         21   -1    0    0  501  502  0.00000000000E+00  0.00000000000E+00  0.39816649317E+03  0.39816649317E+03  0.00000000000E+00 0. -1.
          2   -1    0    0  503    0 -0.00000000000E+00 -0.00000000000E+00 -0.10628172182E+04  0.10628172182E+04  0.00000000000E+00 0. -1.
         24    2    1    2    0    0  0.15963502696E+03 -0.84788678761E+02 -0.47592912852E+03  0.51545345329E+03  0.80692411413E+02 0.  0.
         23    2    1    2    0    0  0.37053806770E+02  0.13403092350E+03 -0.35405088763E+03  0.39125805886E+03  0.91616398864E+02 0.  0.
        -13    1    3    3    0    0  0.41387746833E+02 -0.20696476461E+02 -0.47106620743E+02  0.66032745238E+02  0.00000000000E+00 0.  1.
         14    1    3    3    0    0  0.11824728013E+03 -0.64092202300E+02 -0.42882250778E+03  0.44942070805E+03  0.00000000000E+00 0. -1.
        -11    1    4    4    0    0  0.14816633670E+02  0.50266387162E+02 -0.25191306802E+03  0.25730611371E+03  0.00000000000E+00 0.  1.
         11    1    4    4    0    0  0.22237173100E+02  0.83764536339E+02 -0.10213781961E+03  0.13395194515E+03  0.00000000000E+00 0. -1.
         21    1    1    2  503  502 -0.93474178440E+02 -0.23679859252E+03  0.21646617409E+03  0.33416852033E+03  0.00000000000E+00 0. -1.
          1    1    1    2  501    0 -0.10321465529E+03  0.18755634778E+03 -0.51136882966E+02  0.22010367888E+03  0.00000000000E+00 0. -1.
<scales pt_clust_5="13000.00000" pt_clust_6="13000.00000" pt_clust_7="13000.00000" pt_clust_8="13000.00000" pt_clust_9="257.35759" pt_clust_10="13000.00000"></scales>
<clustering>
<clus scale="   80.692">  5  6 -1 -1</clus>
<clus scale="   91.616">  7  8 -1 -1</clus>
<clus scale="  197.949">  2  5  1 -1</clus>
<clus scale="  179.480">  7 10 -1 -1</clus>
<clus scale="  257.358">  1  9  2 -1</clus>
<clus scale="  257.358">  1  5  2 -1</clus>
</clustering>
</event>
<event>
10    4  0.7508634E-005  0.2824098E+03  0.7546771E-02  0.1107888E+00
         21   -1    0    0  503  502  0.00000000000E+00  0.00000000000E+00  0.32939015295E+03  0.32939015295E+03  0.00000000000E+00 0. -1.
          2   -1    0    0  502    0 -0.00000000000E+00 -0.00000000000E+00 -0.90734862560E+03  0.90734862560E+03  0.00000000000E+00 0. -1.
         24    2    1    2    0    0  0.17055487547E+03  0.57274443381E+02 -0.74483428636E+03  0.77043635840E+03  0.80154480784E+02 0.  0.
         23    2    1    2    0    0 -0.98467036809E+02 -0.37182526192E+02  0.88652254163E+02  0.16619404807E+03  0.93182304394E+02 0.  0.
        -13    1    3    3    0    0  0.10392213812E+03  0.73250777595E+02 -0.52466956366E+03  0.53985520118E+03  0.00000000000E+00 0.  1.
         14    1    3    3    0    0  0.66632737349E+02 -0.15976334214E+02 -0.22016472270E+03  0.23058115722E+03  0.00000000000E+00 0. -1.
        -13    1    4    4    0    0 -0.44398964713E+02 -0.36223068022E+02 -0.55551370229E+01  0.57569421326E+02  0.00000000000E+00 0.  1.
         13    1    4    4    0    0 -0.54068072096E+02 -0.95945817033E+00  0.94207391186E+02  0.10862462674E+03  0.00000000000E+00 0. -1.
         21    1    1    2  503  501  0.32794569396E+02 -0.46241325689E+01  0.16177190440E+03  0.16512727042E+03  0.00000000000E+00 0. -1.
          1    1    1    2  501    0 -0.10488240806E+03 -0.15467784620E+02 -0.83548344838E+02  0.13498110166E+03  0.00000000000E+00 0. -1.
<scales pt_clust_5="13000.00000" pt_clust_6="13000.00000" pt_clust_7="13000.00000" pt_clust_8="13000.00000" pt_clust_9="33.11897" pt_clust_10="13000.00000"></scales>
<clustering>
<clus scale="   33.119">  1  9  2 -1</clus>
<clus scale="   80.154">  5  6 -1 -1</clus>
<clus scale="   93.182">  7  8 -1 -1</clus>
<clus scale="  101.104">  7 10 -1 -1</clus>
<clus scale="  199.054">  2  5  1 -1</clus>
<clus scale="   33.119">  1  5  2 -1</clus>
</clustering>
</event>
<event>
10    4  0.7508634E-005  0.2865562E+03  0.7546771E-02  0.1122337E+00
         -1   -1    0    0    0  501 -0.00000000000E+00  0.00000000000E+00  0.30765730888E+03  0.30765730888E+03  0.00000000000E+00 0.  1.
         21   -1    0    0  503  502  0.00000000000E+00 -0.00000000000E+00 -0.43504441668E+03  0.43504441668E+03  0.00000000000E+00 0.  1.
         24    2    1    2    0    0  0.35683985173E+02 -0.96039946078E+02  0.18458826138E+03  0.22537720529E+03  0.78898925106E+02 0.  0.
         23    2    1    2    0    0 -0.35019765137E+02 -0.29790617893E+02 -0.49670090038E+01  0.10709363968E+03  0.96594573438E+02 0.  0.
        -11    1    3    3    0    0  0.85221929066E+01 -0.82209908927E+02  0.17481518192E+03  0.19336867566E+03  0.00000000000E+00 0.  1.
         12    1    3    3    0    0  0.27161792266E+02 -0.13830037151E+02  0.97730794649E+01  0.32008529628E+02  0.00000000000E+00 0. -1.
        -11    1    4    4    0    0  0.18152380312E+02 -0.39349537640E+02  0.19822472613E+02  0.47653178740E+02  0.00000000000E+00 0.  1.
         11    1    4    4    0    0 -0.53172145449E+02  0.95589197471E+01 -0.24789481617E+02  0.59440460944E+02  0.00000000000E+00 0. -1.
         21    1    1    2  503  501 -0.20484216013E+02 -0.59558413926E+02 -0.16269112648E+03  0.17445690129E+03  0.00000000000E+00 0.  1.
         -2    1    1    2    0  502  0.19819995977E+02  0.18538897790E+03 -0.14431723371E+03  0.23577397930E+03  0.00000000000E+00 0.  1.
<scales pt_clust_5="13000.00000" pt_clust_6="13000.00000" pt_clust_7="13000.00000" pt_clust_8="13000.00000" pt_clust_9="62.98260" pt_clust_10="13000.00000"></scales>
<clustering>
<clus scale="   62.983">  2  9  1 -1</clus>
<clus scale="   78.899">  5  6 -1 -1</clus>
<clus scale="   96.595">  7  8 -1 -1</clus>
<clus scale="  132.321">  1  5  2 -1</clus>
<clus scale="  109.661">  7 10 -1 -1</clus>
<clus scale="   62.983">  2  5  1 -1</clus>
</clustering>
</event>
<event>
10    4  0.7508634E-005  0.1811434E+03  0.7546771E-02  0.1192713E+00
         21   -1    0    0  501  502  0.00000000000E+00  0.00000000000E+00  0.78579636354E+03  0.78579636354E+03  0.00000000000E+00 0. -1.
          2   -1    0    0  503    0 -0.00000000000E+00 -0.00000000000E+00 -0.62608345975E+02  0.62608345975E+02  0.00000000000E+00 0. -1.
         24    2    1    2    0    0 -0.72965842880E+02  0.21818369239E+02  0.49677902876E+03  0.50868149639E+03  0.78532833172E+02 0.  0.
         23    2    1    2    0    0 -0.39485128250E+01 -0.10604271627E+02  0.11480394713E+03  0.14448268709E+03  0.86989995169E+02 0.  0.
        -13    1    3    3    0    0 -0.71461933421E+02  0.93589314046E+01  0.21769238057E+03  0.22931282146E+03  0.00000000000E+00 0.  1.
         14    1    3    3    0    0 -0.15039094592E+01  0.12459437834E+02  0.27908664819E+03  0.27936867493E+03  0.00000000000E+00 0. -1.
        -13    1    4    4    0    0 -0.16241389132E+02 -0.29326787760E+02  0.11725341556E+03  0.12195165706E+03  0.00000000000E+00 0.  1.
         13    1    4    4    0    0  0.12292876307E+02  0.18722516133E+02 -0.24494684213E+01  0.22531030021E+02  0.00000000000E+00 0. -1.
         21    1    1    2  503  502  0.29990156902E+02  0.22401529578E+02  0.12950484449E+03  0.13480631582E+03  0.00000000000E+00 0. -1.
          1    1    1    2  501    0  0.46924198803E+02 -0.33615627189E+02 -0.17899802818E+02  0.60434210225E+02  0.00000000000E+00 0. -1.
<scales pt_clust_5="13000.00000" pt_clust_6="13000.00000" pt_clust_7="13000.00000" pt_clust_8="13000.00000" pt_clust_9="37.43311" pt_clust_10="13000.00000"></scales>
<clustering>
<clus scale="   37.433">  1  9  2 -1</clus>
<clus scale="   78.533">  5  6 -1 -1</clus>
<clus scale="   86.990">  7  8 -1 -1</clus>
<clus scale="   58.103">  7 10 -1 -1</clus>
<clus scale="  100.907">  2  5  1 -1</clus>
<clus scale="   37.433">  1  5  2 -1</clus>
</clustering>
</event>
<event>
10    4  0.7508634E-005  0.1912539E+03  0.7546771E-02  0.1185155E+00
          2   -1    0    0  502    0 -0.00000000000E+00  0.00000000000E+00  0.97393288489E+03  0.97393288489E+03  0.00000000000E+00 0. -1.
         21   -1    0    0  503  502  0.00000000000E+00 -0.00000000000E+00 -0.41929703757E+02  0.41929703757E+02  0.00000000000E+00 0.  1.
         24    2    1    2    0    0  0.42756189094E+02 -0.25894780991E+02  0.32040866942E+03  0.33459466507E+03  0.82421132396E+02 0.  0.
         23    2    1    2    0    0 -0.76598188674E+02 -0.21972199085E+02  0.27821149057E+03  0.30461753957E+03  0.95079713333E+02 0.  0.
        -11    1    3    3    0    0  0.49044988094E+02 -0.22170303358E+02  0.95935338639E+02  0.11000237456E+03  0.00000000000E+00 0.  1.
         12    1    3    3    0    0 -0.62887990004E+01 -0.37244776330E+01  0.22447333078E+03  0.22459229051E+03  0.00000000000E+00 0. -1.
        -11    1    4    4    0    0 -0.95088240622E+02 -0.33358508319E+02  0.24525753517E+03  0.26515245075E+03  0.00000000000E+00 0.  1.
         11    1    4    4    0    0  0.18490051947E+02  0.11386309234E+02  0.32953955406E+02  0.39465088823E+02  0.00000000000E+00 0. -1.
         21    1    1    2  503  501  0.28526298340E+02 -0.77636654535E+01 -0.80771210980E+01  0.30647415609E+02  0.00000000000E+00 0.  1.
          1    1    1    2  501    0  0.53157012406E+01  0.55630645530E+02  0.34146014224E+03  0.34600296840E+03  0.00000000000E+00 0. -1.
<scales pt_clust_5="13000.00000" pt_clust_6="13000.00000" pt_clust_7="13000.00000" pt_clust_8="13000.00000" pt_clust_9="29.56390" pt_clust_10="13000.00000"></scales>
<clustering>
<clus scale="   29.564">  2  9  1 -1</clus>
<clus scale="   82.421">  5  6 -1 -1</clus>
<clus scale="   95.080">  7  8 -1 -1</clus>
<clus scale="   55.457">  7 10 -1 -1</clus>
<clus scale="  101.347">  1  5  2 -1</clus>
<clus scale="   29.564">  2  5  1 -1</clus>
</clustering>
</event>
<event>
10    4  0.7508634E-005  0.4292237E+03  0.7546771E-02  0.1080508E+00
          2   -1    0    0  503    0 -0.00000000000E+00  0.00000000000E+00  0.60612036348E+03  0.60612036348E+03  0.00000000000E+00 0. -1.
         21   -1    0    0  501  502  0.00000000000E+00 -0.00000000000E+00 -0.19356336707E+03  0.19356336707E+03  0.00000000000E+00 0. -1.
         24    2    1    2    0    0 -0.23459641843E+01  0.74225433164E+02  0.12478319291E+03  0.16672477175E+03  0.81923048071E+02 0.  0.
         23    2    1    2    0    0  0.53771835882E+02  0.13298543103E+03  0.10608644541E+03  0.20048285938E+03  0.91446748472E+02 0.  0.
        -13    1    3    3    0    0  0.38801398183E+02  0.24893510775E+02  0.46846640674E+02  0.65725513479E+02  0.00000000000E+00 0.  1.
         14    1    3    3    0    0 -0.41147362368E+02  0.49331922389E+02  0.77936552232E+02  0.10099925827E+03  0.00000000000E+00 0. -1.
        -13    1    4    4    0    0  0.12956263298E+02  0.78159882736E+02  0.62255686877E+01  0.79470684742E+02  0.00000000000E+00 0.  1.
         13    1    4    4    0    0  0.40815572584E+02  0.54825548294E+02  0.99860876727E+02  0.12101217464E+03  0.00000000000E+00 0. -1.
         21    1    1    2  503  502 -0.70032467719E+02  0.64228105881E+02  0.12075511281E+03  0.15366064359E+03  0.00000000000E+00 0. -1.
          1    1    1    2  501    0  0.18606596022E+02 -0.27143897008E+03  0.60932245288E+02  0.27881545582E+03  0.00000000000E+00 0. -1.
<scales pt_clust_5="13000.00000" pt_clust_6="13000.00000" pt_clust_7="13000.00000" pt_clust_8="13000.00000" pt_clust_9="95.02529" pt_clust_10="13000.00000"></scales>
<clustering>
<clus scale="   81.923">  5  6 -1 -1</clus>
<clus scale="   91.447">  7  8 -1 -1</clus>
<clus scale="   95.025">  2  9  1 -1</clus>
<clus scale="  116.279">  1  5  2 -1</clus>
<clus scale="  195.557">  7 10 -1 -1</clus>
<clus scale="   95.025">  2  5  1 -1</clus>
</clustering>
</event>
<event>
10    4  0.7508634E-005  0.1730453E+03  0.7546771E-02  0.1202956E+00
          2   -1    0    0  502    0 -0.00000000000E+00  0.00000000000E+00  0.47591202782E+03  0.47591202782E+03  0.00000000000E+00 0. -1.
         21   -1    0    0  503  502  0.00000000000E+00 -0.00000000000E+00 -0.11266040708E+03  0.11266040708E+03  0.00000000000E+00 0. -1.
         24    2    1    2    0    0 -0.40096733762E+02  0.22581414330E+02 -0.49184406354E+01  0.92390290884E+02  0.79963156890E+02 0.  0.
         23    2    1    2    0    0 -0.27580572276E+01 -0.93554117403E+01  0.11222401713E+03  0.14440304354E+03  0.90348648876E+02 0.  0.
        -11    1    3    3    0    0  0.16007703697E+01  0.42081897708E+02  0.11270592038E+02  0.43594435715E+02  0.00000000000E+00 0.  1.
         12    1    3    3    0    0 -0.41697504131E+02 -0.19500483377E+02 -0.16189032674E+02  0.48795855169E+02  0.00000000000E+00 0. -1.
        -11    1    4    4    0    0  0.43328332955E+02  0.18094472893E+01  0.50438292954E+02  0.66517966988E+02  0.00000000000E+00 0. -1.
         11    1    4    4    0    0 -0.46086390183E+02 -0.11164859030E+02  0.61785724174E+02  0.77885076548E+02  0.00000000000E+00 0.  1.
         21    1    1    2  503  501  0.16758346100E+02  0.20298311572E+02 -0.42681047416E+02  0.50145143585E+02  0.00000000000E+00 0. -1.
          1    1    1    2  501    0  0.26096444890E+02 -0.33524314162E+02  0.29862709166E+03  0.30163395689E+03  0.00000000000E+00 0. -1.
<scales pt_clust_5="13000.00000" pt_clust_6="13000.00000" pt_clust_7="13000.00000" pt_clust_8="13000.00000" pt_clust_9="26.32230" pt_clust_10="13000.00000"></scales>
<clustering>
<clus scale="   26.322">  2  9  1 -1</clus>
<clus scale="   79.963">  5  6 -1 -1</clus>
<clus scale="   90.349">  7  8 -1 -1</clus>
<clus scale="   42.358">  7 10 -1 -1</clus>
<clus scale="   92.584">  1  5  2 -1</clus>
<clus scale="   26.322">  2  5  1 -1</clus>
</clustering>
</event>
<event>
10    4  0.7508634E-005  0.1272048E+03  0.7546771E-02  0.1241806E+00
          2   -1    0    0  502    0 -0.00000000000E+00  0.00000000000E+00  0.95057137761E+03  0.95057137761E+03  0.00000000000E+00 0. -1.
         21   -1    0    0  503  502  0.00000000000E+00 -0.00000000000E+00 -0.26052615671E+02  0.26052615671E+02  0.00000000000E+00 0.  1.
         24    2    1    2    0    0 -0.48710863879E+02  0.38581781388E+02  0.61225140912E+03  0.62047175841E+03  0.79196672272E+02 0.  0.
         23    2    1    2    0    0  0.32572942308E+02 -0.62223263222E+02  0.24591227347E+03  0.27245425290E+03  0.93945423639E+02 0.  0.
        -13    1    3    3    0    0  0.14240022146E+02  0.22022834899E+02  0.78477804342E+02  0.82743877489E+02  0.00000000000E+00 0.  1.
         14    1    3    3    0    0 -0.62950886025E+02  0.16558946489E+02  0.53377360478E+03  0.53772788092E+03  0.00000000000E+00 0. -1.
        -11    1    4    4    0    0 -0.15632405376E+02  0.14072026542E+02  0.88890122076E+02  0.91344665041E+02  0.00000000000E+00 0. -1.
         11    1    4    4    0    0  0.48205347683E+02 -0.76295289764E+02  0.15702215140E+03  0.18110958786E+03  0.00000000000E+00 0.  1.
         21    1    1    2  503  501 -0.37264952068E+01  0.28064962537E+02  0.25711803774E+02  0.38244290319E+02  0.00000000000E+00 0. -1.
          1    1    1    2  501    0  0.19864416777E+02 -0.44234807027E+01  0.40643275573E+02  0.45453691651E+02  0.00000000000E+00 0. -1.
<scales pt_clust_5="13000.00000" pt_clust_6="13000.00000" pt_clust_7="13000.00000" pt_clust_8="13000.00000" pt_clust_9="28.31129" pt_clust_10="13000.00000"></scales>
<clustering>
<clus scale="   28.311">  2  9  1 -1</clus>
<clus scale="   79.197">  5  6 -1 -1</clus>
<clus scale="   93.945">  7  8 -1 -1</clus>
<clus scale="   19.438">  7 10 -1 -1</clus>
<clus scale="  103.408">  1  5  2 -1</clus>
<clus scale="   28.311">  2  5  1 -1</clus>
</clustering>
</event>
<event>
10    4  0.7508634E-005  0.2394866E+03  0.7546771E-02  0.1154337E+00
         21   -1    0    0  503  502  0.00000000000E+00  0.00000000000E+00  0.28459200714E+02  0.28459200714E+02  0.00000000000E+00 0. -1.
          2   -1    0    0  502    0 -0.00000000000E+00 -0.00000000000E+00 -0.18294161620E+04  0.18294161620E+04  0.00000000000E+00 0. -1.
         24    2    1    2    0    0 -0.19043567996E+02 -0.64904520779E+02 -0.11593041821E+04  0.11640892561E+04  0.80884826797E+02 0.  0.
         23    2    1    2    0    0 -0.27177673537E+02 -0.20154836466E+02 -0.91394073164E+02  0.13368423775E+03  0.91508226089E+02 0.  0.
        -11    1    3    3    0    0  0.17202811551E+02 -0.29420096355E+02 -0.16452658762E+03  0.16801927517E+03  0.00000000000E+00 0.  1.
         12    1    3    3    0    0 -0.36246379547E+02 -0.35484424424E+02 -0.99477759445E+03  0.99606998089E+03  0.00000000000E+00 0. -1.
        -13    1    4    4    0    0  0.66109537816E+00 -0.21840361790E+02 -0.10164744956E+03  0.10396943037E+03  0.00000000000E+00 0.  1.
         13    1    4    4    0    0 -0.27838768915E+02  0.16855253236E+01  0.10253376392E+02  0.29714807382E+02  0.00000000000E+00 0. -1.
         21    1    1    2  503  501 -0.63143982634E+01  0.19557419780E+02 -0.11317745486E+03  0.11502825993E+03  0.00000000000E+00 0. -1.
          1    1    1    2  501    0  0.52535639796E+02  0.65501937465E+02 -0.43708125118E+03  0.44507360896E+03  0.00000000000E+00 0. -1.
<scales pt_clust_5="13000.00000" pt_clust_6="13000.00000" pt_clust_7="13000.00000" pt_clust_8="13000.00000" pt_clust_9="20.55151" pt_clust_10="13000.00000"></scales>
<clustering>
<clus scale="   20.552">  1  9  2 -1</clus>
<clus scale="   80.885">  5  6 -1 -1</clus>
<clus scale="   91.508">  7  8 -1 -1</clus>
<clus scale="   85.644">  7 10 -1 -1</clus>
<clus scale="  104.504">  2  5  1 -1</clus>
<clus scale="   20.552">  1  5  2 -1</clus>
</clustering>
</event>
<event>
10    4  0.7508634E-005  0.2566177E+03  0.7546771E-02  0.1135410E+00
          2   -1    0    0  502    0 -0.00000000000E+00  0.00000000000E+00  0.44426421481E+03  0.44426421481E+03  0.00000000000E+00 0. -1.
         21   -1    0    0  503  502  0.00000000000E+00 -0.00000000000E+00 -0.20612269690E+03  0.20612269690E+03  0.00000000000E+00 0.  1.
         24    2    1    2    0    0  0.33626181521E+02 -0.10205856127E+03  0.16157417574E+02  0.13453483501E+03  0.79321432645E+02 0.  0.
         23    2    1    2    0    0  0.31332584577E+02 -0.73345247849E+01  0.14424031373E+03  0.17367558035E+03  0.91227260162E+02 0.  0.
        -11    1    3    3    0    0  0.39163883863E+02 -0.71282635968E+02  0.44169649795E+02  0.92552590200E+02  0.00000000000E+00 0.  1.
         12    1    3    3    0    0 -0.55377023424E+01 -0.30775925304E+02 -0.28012232221E+02  0.41982244813E+02  0.00000000000E+00 0. -1.
        -11    1    4    4    0    0 -0.19819669490E+02 -0.15836229281E+02  0.60556512486E+01  0.26082108208E+02  0.00000000000E+00 0.  1.
         11    1    4    4    0    0  0.51152254067E+02  0.85017044959E+01  0.13818466248E+03  0.14759347215E+03  0.00000000000E+00 0. -1.
         21    1    1    2  503  501  0.68950126706E+02  0.13994624848E+03 -0.40232897988E+02  0.16111411644E+03  0.00000000000E+00 0.  1.
          1    1    1    2  501    0 -0.13390889280E+03 -0.30553162423E+02  0.11797668459E+03  0.18106237990E+03  0.00000000000E+00 0. -1.
<scales pt_clust_5="13000.00000" pt_clust_6="13000.00000" pt_clust_7="13000.00000" pt_clust_8="13000.00000" pt_clust_9="143.97487" pt_clust_10="13000.00000"></scales>
<clustering>
<clus scale="   79.321">  5  6 -1 -1</clus>
<clus scale="   91.227">  7  8 -1 -1</clus>
<clus scale="  133.561">  1  5  2 -1</clus>
<clus scale="  140.141">  7 10 -1 -1</clus>
<clus scale="  143.975">  2  9  1 -1</clus>
<clus scale="  143.975">  2  5  1 -1</clus>
</clustering>
</event>
<event>
10    4  0.7508634E-005  0.4080986E+03  0.7546771E-02  0.1101479E+00
         21   -1    0    0  503  502  0.00000000000E+00  0.00000000000E+00  0.31702684213E+03  0.31702684213E+03  0.00000000000E+00 0. -1.
          4   -1    0    0  502    0 -0.00000000000E+00 -0.00000000000E+00 -0.25598357424E+03  0.25598357424E+03  0.00000000000E+00 0. -1.
         24    2    1    2    0    0 -0.74762567047E+01  0.86190811940E+01 -0.63142748776E+02  0.10035929384E+03  0.77167338705E+02 0.  0.
         23    2    1    2    0    0 -0.77774879093E+02  0.18341776985E+03  0.43874381435E+02  0.22339189876E+03  0.91038282995E+02 0.  0.
        -13    1    3    3    0    0  0.25746966837E+02 -0.20847860584E+02 -0.21597286027E+02  0.39547216792E+02  0.00000000000E+00 0.  1.
         14    1    3    3    0    0 -0.33223223542E+02  0.29466941778E+02 -0.41545462749E+02  0.60812077051E+02  0.00000000000E+00 0. -1.
        -11    1    4    4    0    0 -0.70332112861E+02  0.97949088051E+02  0.62174324771E+02  0.13566973358E+03  0.00000000000E+00 0.  1.
         11    1    4    4    0    0 -0.74427662325E+01  0.85468681794E+02 -0.18299943336E+02  0.87722165175E+02  0.00000000000E+00 0. -1.
         21    1    1    2  503  501  0.14593184401E+02 -0.16853354461E+02  0.54150455259E+02  0.58559955535E+02  0.00000000000E+00 0. -1.
          3    1    1    2  501    0  0.70657951396E+02 -0.17518349658E+03  0.26161179977E+02  0.19069926824E+03  0.00000000000E+00 0. -1.
<scales pt_clust_5="13000.00000" pt_clust_6="13000.00000" pt_clust_7="13000.00000" pt_clust_8="13000.00000" pt_clust_9="22.29342" pt_clust_10="13000.00000"></scales>
<clustering>
<clus scale="   22.293">  1  9  2 -1</clus>
<clus scale="   77.167">  5  6 -1 -1</clus>
<clus scale="   77.789">  2  5  1 -1</clus>
<clus scale="   91.038">  7  8 -1 -1</clus>
<clus scale="  192.822">  7 10 -1 -1</clus>
<clus scale="   22.293">  1  5  2 -1</clus>
</clustering>
</event>
<event>
10    4  0.7508634E-005  0.5932436E+03  0.7546771E-02  0.1057280E+00
         21   -1    0    0  501  502  0.00000000000E+00  0.00000000000E+00  0.44902204903E+03  0.44902204903E+03  0.00000000000E+00 0.  1.
          2   -1    0    0  503    0 -0.00000000000E+00 -0.00000000000E+00 -0.40403862441E+03  0.40403862441E+03  0.00000000000E+00 0. -1.
         24    2    1    2    0    0  0.16103698385E+02 -0.36767131891E+01  0.60855300365E+02  0.10328250183E+03  0.81798901456E+02 0.  0.
         23    2    1    2    0    0  0.20000843642E+03  0.12704689827E+03 -0.35196164804E+02  0.25692856598E+03  0.92893643462E+02 0.  0.
        -11    1    3    3    0    0 -0.27841184127E+02  0.16823288939E+02  0.12635379525E+02  0.34897097301E+02  0.00000000000E+00 0.  1.
         12    1    3    3    0    0  0.43944882512E+02 -0.20500002128E+02  0.48219920840E+02  0.68385404525E+02  0.00000000000E+00 0. -1.
        -13    1    4    4    0    0  0.11471760370E+03  0.77008165376E+02 -0.66320060828E+02  0.15326035561E+03  0.00000000000E+00 0. -1.
         13    1    4    4    0    0  0.85290832729E+02  0.50038732898E+02  0.31123896024E+02  0.10366821037E+03  0.00000000000E+00 0.  1.
         21    1    1    2  503  502  0.12282306366E+03 -0.81669004281E+02  0.32772771899E+02  0.15109396350E+03  0.00000000000E+00 0.  1.
          1    1    1    2  501    0 -0.33893519847E+03 -0.41701180804E+02 -0.13448482843E+02  0.34175564214E+03  0.00000000000E+00 0. -1.
<scales pt_clust_5="13000.00000" pt_clust_6="13000.00000" pt_clust_7="13000.00000" pt_clust_8="13000.00000" pt_clust_9="149.88653" pt_clust_10="13000.00000"></scales>
<clustering>
<clus scale="   81.799">  5  6 -1 -1</clus>
<clus scale="   83.450">  2  5  1 -1</clus>
<clus scale="   92.894">  7  8 -1 -1</clus>
<clus scale="  149.887">  1  9  2 -1</clus>
<clus scale="  277.223">  7 10 -1 -1</clus>
<clus scale="  149.887">  1  5  2 -1</clus>
</clustering>
</event>
<event>
10    4  0.7508634E-005  0.5072234E+03  0.7546771E-02  0.1060537E+00
          2   -1    0    0  503    0 -0.00000000000E+00  0.00000000000E+00  0.13901349749E+04  0.13901349749E+04  0.00000000000E+00 0. -1.
         21   -1    0    0  501  502  0.00000000000E+00 -0.00000000000E+00 -0.76826226032E+02  0.76826226032E+02  0.00000000000E+00 0.  1.
         24    2    1    2    0    0 -0.59883225690E+02 -0.72921143322E+02  0.27392401933E+03  0.30066439042E+03  0.80381673531E+02 0.  0.
         23    2    1    2    0    0 -0.61341315494E+02 -0.12064430954E+03  0.85770134560E+02  0.18410708601E+03  0.90670263725E+02 0.  0.
        -11    1    3    3    0    0 -0.72106488727E+02 -0.30135073911E+02  0.15280367182E+03  0.17162875784E+03  0.00000000000E+00 0.  1.
         12    1    3    3    0    0  0.12223263037E+02 -0.42786069410E+02  0.12112034751E+03  0.12903563258E+03  0.00000000000E+00 0. -1.
        -11    1    4    4    0    0 -0.13822845923E+02 -0.11358108737E+03  0.54080907321E+02  0.12655622867E+03  0.00000000000E+00 0.  1.
         11    1    4    4    0    0 -0.47518469571E+02 -0.70632221748E+01  0.31689227239E+02  0.57550857342E+02  0.00000000000E+00 0. -1.
         21    1    1    2  503  502 -0.23772135889E+01  0.22370300528E+02  0.63299857722E+02  0.67178519467E+02  0.00000000000E+00 0.  1.
          1    1    1    2  501    0  0.12360175477E+03  0.17119515234E+03  0.89031473730E+03  0.91501120508E+03  0.00000000000E+00 0. -1.
<scales pt_clust_5="13000.00000" pt_clust_6="13000.00000" pt_clust_7="13000.00000" pt_clust_8="13000.00000" pt_clust_9="22.49627" pt_clust_10="13000.00000"></scales>
<clustering>
<clus scale="   22.496">  2  9  1 -1</clus>
<clus scale="   80.382">  5  6 -1 -1</clus>
<clus scale="   90.670">  7  8 -1 -1</clus>
<clus scale="  121.857">  1  5  2 -1</clus>
<clus scale="  136.991">  7 10 -1 -1</clus>
<clus scale="   22.496">  2  5  1 -1</clus>
</clustering>
</event>
<event>
10    4  0.7508634E-005  0.2116143E+03  0.7546771E-02  0.1181442E+00
          2   -1    0    0  503    0 -0.00000000000E+00  0.00000000000E+00  0.96559165791E+02  0.96559165791E+02  0.00000000000E+00 0. -1.
         21   -1    0    0  501  502  0.00000000000E+00 -0.00000000000E+00 -0.36913216081E+03  0.36913216081E+03  0.00000000000E+00 0. -1.
         24    2    1    2    0    0  0.90351305735E+01 -0.16637570267E+02 -0.21464367749E+02  0.84919214224E+02  0.79950681877E+02 0.  0.
         23    2    1    2    0    0 -0.18120497606E+02 -0.22701588524E+02 -0.15243069334E+03  0.18012093873E+03  0.91458852736E+02 0.  0.
        -13    1    3    3    0    0  0.25810121704E+02  0.71916600171E-01 -0.44782280515E+02  0.51687718101E+02  0.00000000000E+00 0.  1.
         14    1    3    3    0    0 -0.16774991131E+02 -0.16709486867E+02  0.23317912766E+02  0.33231496123E+02  0.00000000000E+00 0. -1.
        -11    1    4    4    0    0 -0.37159833405E+02 -0.44906672971E+02 -0.62087031385E+02  0.85160213493E+02  0.00000000000E+00 0.  1.
         11    1    4    4    0    0  0.19039335800E+02  0.22205084448E+02 -0.90343661951E+02  0.94960725238E+02  0.00000000000E+00 0. -1.
         21    1    1    2  503  502 -0.29504904807E+02  0.91704521190E+01 -0.13574935316E+03  0.13922113160E+03  0.00000000000E+00 0. -1.
          1    1    1    2  501    0  0.38590271839E+02  0.30168706671E+02  0.37071419225E+02  0.61430042049E+02  0.00000000000E+00 0. -1.
<scales pt_clust_5="13000.00000" pt_clust_6="13000.00000" pt_clust_7="13000.00000" pt_clust_8="13000.00000" pt_clust_9="30.89719" pt_clust_10="13000.00000"></scales>
<clustering>
<clus scale="   30.897">  2  9  1 -1</clus>
<clus scale="   79.951">  5  6 -1 -1</clus>
<clus scale="   81.292">  1  5  2 -1</clus>
<clus scale="   91.459">  7  8 -1 -1</clus>
<clus scale="   43.556">  7 10 -1 -1</clus>
<clus scale="   30.897">  2  5  1 -1</clus>
</clustering>
</event>
<event>
10    4  0.7508634E-005  0.1538805E+03  0.7546771E-02  0.1223544E+00
         21   -1    0    0  503  502  0.00000000000E+00  0.00000000000E+00  0.46787424818E+02  0.46787424818E+02  0.00000000000E+00 0. -1.
         -1   -1    0    0    0  501 -0.00000000000E+00 -0.00000000000E+00 -0.53170462107E+03  0.53170462107E+03  0.00000000000E+00 0.  1.
         24    2    1    2    0    0  0.30873918017E+02 -0.26152638996E+02 -0.75021568614E+02  0.11747848919E+03  0.80844296797E+02 0.  0.
         23    2    1    2    0    0  0.34627703162E+01  0.60692931266E+02 -0.31375349380E+03  0.33154714623E+03  0.88241898297E+02 0.  0.
        -13    1    3    3    0    0 -0.27158298489E+02 -0.15839766616E+02 -0.24840145279E+02  0.40068743438E+02  0.00000000000E+00 0.  1.
         14    1    3    3    0    0  0.58032216505E+02 -0.10312872380E+02 -0.50181423335E+02  0.77409745751E+02  0.00000000000E+00 0. -1.
        -13    1    4    4    0    0  0.34934108041E+02  0.65428939025E+02 -0.24053314474E+03  0.25170922050E+03  0.00000000000E+00 0.  1.
         13    1    4    4    0    0 -0.31471337725E+02 -0.47360077596E+01 -0.73220349063E+02  0.79837925729E+02  0.00000000000E+00 0. -1.
         21    1    1    2  503  501 -0.24694149829E+02  0.85516393106E+01 -0.28958069024E+01  0.26292912891E+02  0.00000000000E+00 0. -1.
         -2    1    1    2    0  502 -0.96425385039E+01 -0.43091931580E+02 -0.93246326931E+02  0.10317349758E+03  0.00000000000E+00 0.  1.
<scales pt_clust_5="13000.00000" pt_clust_6="13000.00000" pt_clust_7="13000.00000" pt_clust_8="13000.00000" pt_clust_9="26.13296" pt_clust_10="13000.00000"></scales>
<clustering>
<clus scale="   26.133">  1  9  2 -1</clus>
<clus scale="   80.844">  5  6 -1 -1</clus>
<clus scale="   85.028">  2  5  1 -1</clus>
<clus scale="   88.242">  7  8 -1 -1</clus>
<clus scale="   47.671">  7 10 -1 -1</clus>
<clus scale="   26.133">  1  5  2 -1</clus>
</clustering>
</event>
<event>
10    4  0.7508634E-005  0.1442191E+03  0.7546771E-02  0.1227712E+00
         21   -1    0    0  501  502  0.00000000000E+00  0.00000000000E+00  0.26560681811E+02  0.26560681811E+02  0.00000000000E+00 0. -1.
          2   -1    0    0  503    0 -0.00000000000E+00 -0.00000000000E+00 -0.10012599563E+04  0.10012599563E+04  0.00000000000E+00 0. -1.
         24    2    1    2    0    0  0.46074740051E+02  0.37855627629E+02 -0.17428199028E+03  0.19973707316E+03  0.77231833094E+02 0.  0.
         23    2    1    2    0    0 -0.52884891990E+02 -0.49437529320E+02 -0.66159933000E+03  0.67183116162E+03  0.91665452359E+02 0.  0.
        -13    1    3    3    0    0  0.62067357025E+02  0.37975848098E+02 -0.16700150994E+03  0.18216483242E+03  0.00000000000E+00 0.  1.
         14    1    3    3    0    0 -0.15992616974E+02 -0.12022046888E+00 -0.72804803386E+01  0.17572240739E+02  0.00000000000E+00 0. -1.
        -13    1    4    4    0    0  0.26403699967E+02 -0.13881715092E+02 -0.18005639243E+03  0.18251071706E+03  0.00000000000E+00 0.  1.
         13    1    4    4    0    0 -0.79288591957E+02 -0.35555814228E+02 -0.48154293757E+03  0.48932044455E+03  0.00000000000E+00 0. -1.
         21    1    1    2  503  502 -0.19815805779E+02  0.89985323558E+01 -0.87407335455E+01  0.23452935128E+02  0.00000000000E+00 0. -1.
          1    1    1    2  501    0  0.26625957717E+02  0.25833693350E+01 -0.13007722068E+03  0.13279946822E+03  0.00000000000E+00 0. -1.
<scales pt_clust_5="13000.00000" pt_clust_6="13000.00000" pt_clust_7="13000.00000" pt_clust_8="13000.00000" pt_clust_9="21.76327" pt_clust_10="13000.00000"></scales>
<clustering>
<clus scale="   21.763">  1  9  2 -1</clus>
<clus scale="   77.232">  5  6 -1 -1</clus>
<clus scale="   91.665">  7  8 -1 -1</clus>
<clus scale="   25.426">  7 10 -1 -1</clus>
<clus scale="   94.710">  2  5  1 -1</clus>
<clus scale="   21.763">  1  5  2 -1</clus>
</clustering>
</event>
<event>
10    4  0.7508634E-005  0.4703822E+03  0.7546771E-02  0.1041558E+00
          2   -1    0    0  503    0 -0.00000000000E+00  0.00000000000E+00  0.60315625295E+03  0.60315625295E+03  0.00000000000E+00 0. -1.
         21   -1    0    0  501  502  0.00000000000E+00 -0.00000000000E+00 -0.11657837868E+04  0.11657837868E+04  0.00000000000E+00 0.  1.
         24    2    1    2    0    0  0.14726677684E+03  0.25927980498E+03 -0.97709629864E+03  0.10247371925E+04  0.80346848782E+02 0.  0.
         23    2    1    2    0    0 -0.97675310850E+02 -0.26521110699E+03  0.16208549222E+03  0.33859324613E+03  0.92175278228E+02 0.  0.
        -11    1    3    3    0    0  0.95429803167E+02  0.17727792009E+03 -0.77252068885E+03  0.79832482298E+03  0.00000000000E+00 0.  1.
         12    1    3    3    0    0  0.51836973671E+02  0.82001884891E+02 -0.20457560979E+03  0.22641236955E+03  0.00000000000E+00 0. -1.
        -11    1    4    4    0    0 -0.15136054420E+02 -0.12780515674E+03  0.11214265516E+03  0.17070217731E+03  0.00000000000E+00 0.  1.
         11    1    4    4    0    0 -0.82539256430E+02 -0.13740595025E+03  0.49942837066E+02  0.16789106882E+03  0.00000000000E+00 0. -1.
         21    1    1    2  503  502  0.25464689422E+02 -0.84438609707E+02 -0.35198751741E+02  0.94959366788E+02  0.00000000000E+00 0. -1.
          1    1    1    2  501    0 -0.75056155409E+02  0.90369911714E+02  0.28758202427E+03  0.31065023434E+03  0.00000000000E+00 0. -1.
<scales pt_clust_5="13000.00000" pt_clust_6="13000.00000" pt_clust_7="13000.00000" pt_clust_8="13000.00000" pt_clust_9="88.19484" pt_clust_10="13000.00000"></scales>
<clustering>
<clus scale="   80.347">  5  6 -1 -1</clus>
<clus scale="   88.195">  2  9  1 -1</clus>
<clus scale="   92.175">  7  8 -1 -1</clus>
<clus scale="  116.623">  7 10 -1 -1</clus>
<clus scale="  262.306">  1  5  2 -1</clus>
<clus scale="   88.195">  2  5  1 -1</clus>
</clustering>
</event>
<event>
10    4  0.7508634E-005  0.2504253E+03  0.7546771E-02  0.1146893E+00
          2   -1    0    0  503    0 -0.00000000000E+00  0.00000000000E+00  0.58491069107E+03  0.58491069107E+03  0.00000000000E+00 0. -1.
         21   -1    0    0  501  502  0.00000000000E+00 -0.00000000000E+00 -0.20621807554E+03  0.20621807554E+03  0.00000000000E+00 0.  1.
         24    2    1    2    0    0  0.67773396085E+02 -0.22362791739E+02  0.40176049438E+03  0.41609551764E+03  0.81428848012E+02 0.  0.
         23    2    1    2    0    0  0.26723450766E+02  0.49196194969E+02 -0.12570950224E+02  0.10517826539E+03  0.88147775358E+02 0.  0.
        -11    1    3    3    0    0  0.46624114925E+02  0.77828295110E+01  0.85485326518E+02  0.97683783596E+02  0.00000000000E+00 0.  1.
         12    1    3    3    0    0  0.21149281161E+02 -0.30145621250E+02  0.31627516786E+03  0.31841173405E+03  0.00000000000E+00 0. -1.
        -13    1    4    4    0    0 -0.59040920457E+01  0.35823830350E+02 -0.44622141846E+02  0.57526869085E+02  0.00000000000E+00 0.  1.
         13    1    4    4    0    0  0.32627542812E+02  0.13372364619E+02  0.32051191622E+02  0.47651396305E+02  0.00000000000E+00 0. -1.
         21    1    1    2  503  502  0.29297485601E+02  0.39876375048E+02 -0.94056222784E+02  0.10627813037E+03  0.00000000000E+00 0.  1.
          1    1    1    2  501    0 -0.12379433245E+03 -0.66709778277E+02  0.83559294162E+02  0.16357685321E+03  0.00000000000E+00 0. -1.
<scales pt_clust_5="13000.00000" pt_clust_6="13000.00000" pt_clust_7="13000.00000" pt_clust_8="13000.00000" pt_clust_9="49.48200" pt_clust_10="13000.00000"></scales>
<clustering>
<clus scale="   49.482">  2  9  1 -1</clus>
<clus scale="   81.429">  5  6 -1 -1</clus>
<clus scale="   88.148">  7  8 -1 -1</clus>
<clus scale="  109.009">  1  5  2 -1</clus>
<clus scale="   95.713">  7 10 -1 -1</clus>
<clus scale="   49.482">  2  5  1 -1</clus>
</clustering>
</event>
<event>
10    4  0.7508634E-005  0.2698310E+03  0.7546771E-02  0.1148146E+00
         21   -1    0    0  501  502  0.00000000000E+00  0.00000000000E+00  0.81249128279E+03  0.81249128279E+03  0.00000000000E+00 0. -1.
          4   -1    0    0  503    0 -0.00000000000E+00 -0.00000000000E+00 -0.46697655981E+02  0.46697655981E+02  0.00000000000E+00 0. -1.
         24    2    1    2    0    0 -0.16124688495E+02 -0.16972360979E+02  0.16908010271E+03  0.18847624108E+03  0.79919620263E+02 0.  0.
         23    2    1    2    0    0 -0.12968257373E+02 -0.62269188400E+02  0.10611384550E+03  0.16404621432E+03  0.10772829109E+03 0.  0.
        -13    1    3    3    0    0 -0.45526145321E+01 -0.33534305272E+02  0.22796312409E+02  0.40803771745E+02  0.00000000000E+00 0.  1.
         14    1    3    3    0    0 -0.11572073963E+02  0.16561944294E+02  0.14628379030E+03  0.14767246934E+03  0.00000000000E+00 0. -1.
        -13    1    4    4    0    0 -0.53737344786E+02 -0.18873755680E+02  0.22144991899E+02  0.61109095430E+02  0.00000000000E+00 0. -1.
         13    1    4    4    0    0  0.40769087413E+02 -0.43395432720E+02  0.83968853605E+02  0.10293711889E+03  0.00000000000E+00 0.  1.
         21    1    1    2  503  502 -0.17315519236E+01 -0.20049674575E+02  0.12349306033E+03  0.12512203512E+03  0.00000000000E+00 0. -1.
          3    1    1    2  501    0  0.30824497792E+02  0.99291223953E+02  0.36710661826E+03  0.38154444825E+03  0.00000000000E+00 0. -1.
<scales pt_clust_5="13000.00000" pt_clust_6="13000.00000" pt_clust_7="13000.00000" pt_clust_8="13000.00000" pt_clust_9="20.12431" pt_clust_10="13000.00000"></scales>
<clustering>
<clus scale="   20.124">  1  9  2 -1</clus>
<clus scale="   79.920">  5  6 -1 -1</clus>
<clus scale="   84.580">  2  5  1 -1</clus>
<clus scale="  107.728">  7  8 -1 -1</clus>
<clus scale="   88.768">  7 10 -1 -1</clus>
<clus scale="   20.124">  1  5  2 -1</clus>
</clustering>
</event>
<event>
10    4  0.7508634E-005  0.1945257E+03  0.7546771E-02  0.1192073E+00
         21   -1    0    0  501  502  0.00000000000E+00  0.00000000000E+00  0.40778677244E+02  0.40778677244E+02  0.00000000000E+00 0.  1.
          2   -1    0    0  503    0 -0.00000000000E+00 -0.00000000000E+00 -0.71007637048E+03  0.71007637048E+03  0.00000000000E+00 0. -1.
         24    2    1    2    0    0 -0.89757526305E+01 -0.11615311877E+02 -0.33035780707E+03  0.34034264244E+03  0.80506856643E+02 0.  0.
         23    2    1    2    0    0 -0.30751414118E+02  0.49094249733E+02 -0.10311526178E+03  0.14895764744E+03  0.90552353322E+02 0.  0.
        -11    1    3    3    0    0  0.26834853087E+02  0.94664917910E+01 -0.55585125886E+02  0.62445416380E+02  0.00000000000E+00 0.  1.
         12    1    3    3    0    0 -0.35810605718E+02 -0.21081803668E+02 -0.27477268118E+03  0.27789722606E+03  0.00000000000E+00 0. -1.
        -13    1    4    4    0    0 -0.57761453589E+02  0.50790975557E+02 -0.57943837768E+02  0.96299517413E+02  0.00000000000E+00 0.  1.
         13    1    4    4    0    0  0.27010039471E+02 -0.16967258238E+01 -0.45171424014E+02  0.52658130029E+02  0.00000000000E+00 0. -1.
         21    1    1    2  503  502 -0.30995102506E+02 -0.94987207090E+01 -0.40052146791E+02  0.51527628870E+02  0.00000000000E+00 0.  1.
          1    1    1    2  501    0  0.70722269255E+02 -0.27980217147E+02 -0.19577247760E+03  0.21002712897E+03  0.00000000000E+00 0. -1.
<scales pt_clust_5="13000.00000" pt_clust_6="13000.00000" pt_clust_7="13000.00000" pt_clust_8="13000.00000" pt_clust_9="32.41793" pt_clust_10="13000.00000"></scales>
<clustering>
<clus scale="   32.418">  1  9  2 -1</clus>
<clus scale="   80.507">  5  6 -1 -1</clus>
<clus scale="   82.637">  2  5  1 -1</clus>
<clus scale="   90.552">  7  8 -1 -1</clus>
<clus scale="   68.155">  7 10 -1 -1</clus>
<clus scale="   32.418">  1  5  2 -1</clus>
</clustering>
</event>
<event>
10    4  0.7508634E-005  0.3532911E+03  0.7546771E-02  0.1074023E+00
         21   -1    0    0  503  502  0.00000000000E+00  0.00000000000E+00  0.16078634228E+03  0.16078634228E+03  0.00000000000E+00 0. -1.
          2   -1    0    0  502    0 -0.00000000000E+00 -0.00000000000E+00 -0.13892327676E+04  0.13892327676E+04  0.00000000000E+00 0. -1.
         24    2    1    2    0    0  0.21544872687E+03 -0.10628853901E+03 -0.96435398144E+03  0.99639591269E+03  0.71489900477E+02 0.  0.
         23    2    1    2    0    0  0.33973443368E+02  0.10298777583E+02 -0.11177317312E+03  0.14515161541E+03  0.85530635167E+02 0.  0.
        -11    1    3    3    0    0  0.17275888189E+03 -0.51442575155E+02 -0.73219576521E+03  0.75405743044E+03  0.00000000000E+00 0.  1.
         12    1    3    3    0    0  0.42689844981E+02 -0.54845963860E+02 -0.23215821624E+03  0.24233848226E+03  0.00000000000E+00 0. -1.
        -13    1    4    4    0    0  0.22146348536E+02  0.34424029929E+02 -0.11096198161E+03  0.11827102753E+03  0.00000000000E+00 0. -1.
         13    1    4    4    0    0  0.11827094832E+02 -0.24125252345E+02 -0.81119150795E+00  0.26880587876E+02  0.00000000000E+00 0.  1.
         21    1    1    2  503  501 -0.28669779155E+02 -0.28646764054E+02  0.63639344467E+02  0.75449052292E+02  0.00000000000E+00 0. -1.
          1    1    1    2  501    0 -0.22075239108E+03  0.12463652549E+03 -0.21595861518E+03  0.33302252946E+03  0.00000000000E+00 0. -1.
<scales pt_clust_5="13000.00000" pt_clust_6="13000.00000" pt_clust_7="13000.00000" pt_clust_8="13000.00000" pt_clust_9="40.52892" pt_clust_10="13000.00000"></scales>
<clustering>
<clus scale="   40.529">  1  9  2 -1</clus>
<clus scale="   71.490">  5  6 -1 -1</clus>
<clus scale="   85.531">  7  8 -1 -1</clus>
<clus scale="  248.550">  2  5  1 -1</clus>
<clus scale="   96.277">  7 10 -1 -1</clus>
<clus scale="   40.529">  1  5  2 -1</clus>
</clustering>
</event>
<event>
10    4  0.7508634E-005  0.2761646E+03  0.7546771E-02  0.1143041E+00
         21   -1    0    0  501  502  0.00000000000E+00  0.00000000000E+00  0.56302821562E+02  0.56302821562E+02  0.00000000000E+00 0. -1.
          2   -1    0    0  503    0 -0.00000000000E+00 -0.00000000000E+00 -0.80369586868E+03  0.80369586868E+03  0.00000000000E+00 0. -1.
         24    2    1    2    0    0  0.94841547163E+01 -0.37344465047E+02 -0.26673356816E+03  0.28128921423E+03  0.80574607656E+02 0.  0.
         23    2    1    2    0    0  0.47558468650E+01 -0.97290143216E+02 -0.17235228663E+03  0.21802930001E+03  0.91342623736E+02 0.  0.
        -11    1    3    3    0    0  0.24864492665E+02  0.17507417708E+02 -0.66761962589E+02  0.73361517971E+02  0.00000000000E+00 0.  1.
         12    1    3    3    0    0 -0.15380337949E+02 -0.54851882755E+02 -0.19997160557E+03  0.20792769626E+03  0.00000000000E+00 0. -1.
        -11    1    4    4    0    0 -0.16430646085E+02 -0.53596574247E+02 -0.15760843156E+03  0.16728113044E+03  0.00000000000E+00 0.  1.
         11    1    4    4    0    0  0.21186492950E+02 -0.43693568969E+02 -0.14743855069E+02  0.50748169573E+02  0.00000000000E+00 0. -1.
         21    1    1    2  503  502 -0.40788591073E+02 -0.39447403639E+01 -0.38610291247E+02  0.56302972643E+02  0.00000000000E+00 0. -1.
          1    1    1    2  501    0  0.26548589491E+02  0.13857934863E+03 -0.26969690108E+03  0.30437720335E+03  0.00000000000E+00 0. -1.
<scales pt_clust_5="13000.00000" pt_clust_6="13000.00000" pt_clust_7="13000.00000" pt_clust_8="13000.00000" pt_clust_9="40.97890" pt_clust_10="13000.00000"></scales>
<clustering>
<clus scale="   40.979">  1  9  2 -1</clus>
<clus scale="   80.575">  5  6 -1 -1</clus>
<clus scale="   89.123">  2  5  1 -1</clus>
<clus scale="   91.343">  7  8 -1 -1</clus>
<clus scale="  116.932">  7 10 -1 -1</clus>
<clus scale="   40.979">  1  5  2 -1</clus>
</clustering>
</event>
<event>
10    4  0.7508634E-005  0.1775198E+03  0.7546771E-02  0.1204331E+00
          2   -1    0    0  503    0 -0.00000000000E+00  0.00000000000E+00  0.27138051554E+03  0.27138051554E+03  0.00000000000E+00 0. -1.
         21   -1    0    0  501  502  0.00000000000E+00 -0.00000000000E+00 -0.10661079885E+03  0.10661079885E+03  0.00000000000E+00 0. -1.
         24    2    1    2    0    0 -0.38343289681E+02 -0.28048009238E+01 -0.23310567733E+01  0.84760746195E+02  0.75504142258E+02 0.  0.
         23    2    1    2    0    0 -0.17646082146E+02  0.30004711469E+02  0.48869863520E+02  0.11081826931E+03  0.93170587242E+02 0.  0.
        -13    1    3    3    0    0  0.60848060698E+01  0.29025943723E+02 -0.48401699481E+01  0.30049251555E+02  0.00000000000E+00 0.  1.
         14    1    3    3    0    0 -0.44428095751E+02 -0.31830744647E+02  0.25091131748E+01  0.54711494640E+02  0.00000000000E+00 0. -1.
        -11    1    4    4    0    0  0.26397099651E+02  0.38535311373E+02  0.32290911289E+01  0.46820979508E+02  0.00000000000E+00 0. -1.
         11    1    4    4    0    0 -0.44043181797E+02 -0.85305999042E+01  0.45640772392E+02  0.63997289802E+02  0.00000000000E+00 0.  1.
         21    1    1    2  503  502  0.10004862885E+02 -0.17347349581E+02 -0.24784128600E+02  0.31863472022E+02  0.00000000000E+00 0. -1.
          1    1    1    2  501    0  0.45984508942E+02 -0.98525609640E+01  0.14301503854E+03  0.15054882686E+03  0.00000000000E+00 0. -1.
<scales pt_clust_5="13000.00000" pt_clust_6="13000.00000" pt_clust_7="13000.00000" pt_clust_8="13000.00000" pt_clust_9="20.02568" pt_clust_10="13000.00000"></scales>
<clustering>
<clus scale="   20.026">  2  9  1 -1</clus>
<clus scale="   75.504">  5  6 -1 -1</clus>
<clus scale="   83.249">  1  5  2 -1</clus>
<clus scale="   93.171">  7  8 -1 -1</clus>
<clus scale="   31.215">  7 10 -1 -1</clus>
<clus scale="   20.026">  2  5  1 -1</clus>
</clustering>
</event>
<event>
10    4  0.7508634E-005  0.2178529E+03  0.7546771E-02  0.1176329E+00
         21   -1    0    0  503  502  0.00000000000E+00  0.00000000000E+00  0.10307779874E+03  0.10307779874E+03  0.00000000000E+00 0.  1.
          2   -1    0    0  502    0 -0.00000000000E+00 -0.00000000000E+00 -0.64800767920E+03  0.64800767920E+03  0.00000000000E+00 0. -1.
         24    2    1    2    0    0  0.13109098853E+02  0.37998264527E+02 -0.14888029136E+02  0.92002653533E+02  0.81407114344E+02 0.  0.
         23    2    1    2    0    0  0.19202545043E-01 -0.65656944034E+02 -0.36081526732E+03  0.37773067748E+03  0.90454258675E+02 0.  0.
        -13    1    3    3    0    0  0.17304199494E+02  0.10364391781E+02  0.31758847430E+02  0.37622869737E+02  0.00000000000E+00 0.  1.
         14    1    3    3    0    0 -0.41951006410E+01  0.27633872746E+02 -0.46646876567E+02  0.54379783796E+02  0.00000000000E+00 0. -1.
        -11    1    4    4    0    0  0.19369382014E+02  0.83040880216E+01 -0.22270297679E+02  0.30661001226E+02  0.00000000000E+00 0.  1.
         11    1    4    4    0    0 -0.19350179469E+02 -0.73961032056E+02 -0.33854496964E+03  0.34706967626E+03  0.00000000000E+00 0. -1.
         21    1    1    2  503  501 -0.49991490983E+02 -0.66212529315E+02  0.15965150728E+01  0.82980702994E+02  0.00000000000E+00 0.  1.
          1    1    1    2  501    0  0.36863189585E+02  0.93871208823E+02 -0.17082309908E+03  0.19837144394E+03  0.00000000000E+00 0. -1.
<scales pt_clust_5="13000.00000" pt_clust_6="13000.00000" pt_clust_7="13000.00000" pt_clust_8="13000.00000" pt_clust_9="82.96534" pt_clust_10="13000.00000"></scales>
<clustering>
<clus scale="   81.407">  5  6 -1 -1</clus>
<clus scale="   82.965">  1  9  2 -1</clus>
<clus scale="   83.601">  2  5  1 -1</clus>
<clus scale="   90.454">  7  8 -1 -1</clus>
<clus scale="   80.622">  7 10 -1 -1</clus>
<clus scale="   82.965">  1  5  2 -1</clus>
</clustering>
</event>
<event>
10    4  0.7508634E-005  0.1528882E+03  0.7546771E-02  0.1216747E+00
          2   -1    0    0  502    0 -0.00000000000E+00  0.00000000000E+00  0.51793276633E+03  0.51793276633E+03  0.00000000000E+00 0. -1.
         21   -1    0    0  503  502  0.00000000000E+00 -0.00000000000E+00 -0.10622736402E+03  0.10622736402E+03  0.00000000000E+00 0.  1.
         24    2    1    2    0    0 -0.45725674529E+01 -0.26550702233E+02  0.16473267632E+02  0.86807456698E+02  0.80859865383E+02 0.  0.
         23    2    1    2    0    0 -0.12992662593E+02  0.26553601352E+02  0.38661898945E+03  0.39876365862E+03  0.93082272259E+02 0.  0.
        -13    1    3    3    0    0 -0.10395610538E+02  0.28257214362E+02  0.53746226289E+01  0.30584725769E+02  0.00000000000E+00 0.  1.
         14    1    3    3    0    0  0.58230430855E+01 -0.54807916595E+02  0.11098645004E+02  0.56222730929E+02  0.00000000000E+00 0. -1.
        -11    1    4    4    0    0 -0.40756304521E+02  0.42113268340E+02  0.31479845960E+03  0.32020723585E+03  0.00000000000E+00 0. -1.
         11    1    4    4    0    0  0.27763641927E+02 -0.15559666988E+02  0.71820529849E+02  0.78556422765E+02  0.00000000000E+00 0.  1.
         21    1    1    2  503  501  0.37542085889E+02 -0.38921558319E+02 -0.44320117198E+02  0.69918300204E+02  0.00000000000E+00 0.  1.
          1    1    1    2  501    0 -0.19976855843E+02  0.38918659200E+02  0.52933262438E+02  0.68670714833E+02  0.00000000000E+00 0. -1.
<scales pt_clust_5="13000.00000" pt_clust_6="13000.00000" pt_clust_7="13000.00000" pt_clust_8="13000.00000" pt_clust_9="54.07676" pt_clust_10="13000.00000"></scales>
<clustering>
<clus scale="   54.077">  2  9  1 -1</clus>
<clus scale="   80.860">  5  6 -1 -1</clus>
<clus scale="   93.082">  7  8 -1 -1</clus>
<clus scale="   35.539">  7 10 -1 -1</clus>
<clus scale="   99.990">  1  5  2 -1</clus>
<clus scale="   54.077">  2  5  1 -1</clus>
</clustering>
</event>
<event>
10    4  0.7508634E-005  0.5612799E+03  0.7546771E-02  0.1039741E+00
         21   -1    0    0  501  502  0.00000000000E+00  0.00000000000E+00  0.44434247880E+03  0.44434247880E+03  0.00000000000E+00 0. -1.
          2   -1    0    0  503    0 -0.00000000000E+00 -0.00000000000E+00 -0.88506537849E+03  0.88506537849E+03  0.00000000000E+00 0. -1.
         24    2    1    2    0    0  0.13876932076E+03 -0.40794585933E+02 -0.22527505168E+03  0.27792111003E+03  0.74633584035E+02 0.  0.
         23    2    1    2    0    0  0.20758135286E+03 -0.13331006514E+03  0.10128230679E+02  0.26320211874E+03  0.91165688326E+02 0.  0.
        -13    1    3    3    0    0  0.57608242263E+02  0.62226224091E+01 -0.40474257985E+02  0.70679531448E+02  0.00000000000E+00 0.  1.
         14    1    3    3    0    0  0.81161078496E+02 -0.47017208342E+02 -0.18480079370E+03  0.20724157858E+03  0.00000000000E+00 0. -1.
        -11    1    4    4    0    0  0.32133901511E+02 -0.46992223576E+02 -0.28852963560E+02  0.63822803206E+02  0.00000000000E+00 0.  1.
         11    1    4    4    0    0  0.17544745135E+03 -0.86317841567E+02  0.38981194239E+02  0.19937931553E+03  0.00000000000E+00 0. -1.
         21    1    1    2  503  502 -0.47344528922E+03  0.15998447319E+03  0.31941006787E+02  0.50076511606E+03  0.00000000000E+00 0. -1.
          1    1    1    2  501    0  0.12709461560E+03  0.14120177886E+02 -0.25751708548E+03  0.28751951247E+03  0.00000000000E+00 0. -1.
<scales pt_clust_5="13000.00000" pt_clust_6="13000.00000" pt_clust_7="13000.00000" pt_clust_8="13000.00000" pt_clust_9="446.26927" pt_clust_10="13000.00000"></scales>
<clustering>
<clus scale="   74.634">  5  6 -1 -1</clus>
<clus scale="   91.166">  7  8 -1 -1</clus>
<clus scale="  127.877">  7 10 -1 -1</clus>
<clus scale="  162.761">  2  5  1 -1</clus>
<clus scale="  446.269">  1  9  2 -1</clus>
<clus scale="  446.269">  1  5  2 -1</clus>
</clustering>
</event>
<event>
10    4  0.7508634E-005  0.3543173E+03  0.7546771E-02  0.1109173E+00
         21   -1    0    0  503  502  0.00000000000E+00  0.00000000000E+00  0.64501568637E+03  0.64501568637E+03  0.00000000000E+00 0. -1.
          2   -1    0    0  502    0 -0.00000000000E+00 -0.00000000000E+00 -0.12021510462E+03  0.12021510462E+03  0.00000000000E+00 0. -1.
         24    2    1    2    0    0  0.43040562151E+02 -0.67364301143E+01  0.14052158595E+03  0.16799169902E+03  0.81098861513E+02 0.  0.
         23    2    1    2    0    0  0.37520747545E+02  0.14338527329E+03  0.88369823616E+02  0.19659675462E+03  0.94201460221E+02 0.  0.
        -11    1    3    3    0    0  0.16346556740E+02  0.27984034163E+02  0.16302059464E+02  0.36277723579E+02  0.00000000000E+00 0.  1.
         12    1    3    3    0    0  0.26694005411E+02 -0.34720464277E+02  0.12421952649E+03  0.13171397544E+03  0.00000000000E+00 0. -1.
        -11    1    4    4    0    0  0.42499486607E+02  0.42638423876E+02 -0.33045383551E+01  0.60292300721E+02  0.00000000000E+00 0.  1.
         11    1    4    4    0    0 -0.49787390620E+01  0.10074684941E+03  0.91674361971E+02  0.13630445389E+03  0.00000000000E+00 0. -1.
         21    1    1    2  503  501  0.32644324354E+02  0.60963327196E+01  0.18369151766E+03  0.18666920165E+03  0.00000000000E+00 0. -1.
          1    1    1    2  501    0 -0.11320563405E+03 -0.14274517589E+03  0.11221765452E+03  0.21397313571E+03  0.00000000000E+00 0. -1.
<scales pt_clust_5="13000.00000" pt_clust_6="13000.00000" pt_clust_7="13000.00000" pt_clust_8="13000.00000" pt_clust_9="33.20869" pt_clust_10="13000.00000"></scales>
<clustering>
<clus scale="   33.209">  1  9  2 -1</clus>
<clus scale="   81.099">  5  6 -1 -1</clus>
<clus scale="   94.201">  7  8 -1 -1</clus>
<clus scale="   97.540">  2  5  1 -1</clus>
<clus scale="  162.312">  7 10 -1 -1</clus>
<clus scale="   33.209">  1  5  2 -1</clus>
</clustering>
</event>
<event>
10    4  0.7508634E-005  0.3196050E+03  0.7546771E-02  0.1120705E+00
         21   -1    0    0  503  502  0.00000000000E+00  0.00000000000E+00  0.56229092339E+02  0.56229092339E+02  0.00000000000E+00 0. -1.
          2   -1    0    0  502    0 -0.00000000000E+00 -0.00000000000E+00 -0.12191738921E+04  0.12191738921E+04  0.00000000000E+00 0. -1.
         24    2    1    2    0    0 -0.20392199764E+02  0.45295942740E+02 -0.83073644210E+02  0.12579424873E+03  0.80345494038E+02 0.  0.
         23    2    1    2    0    0  0.14039715922E+03  0.51695549835E+02 -0.64677805828E+03  0.66995661891E+03  0.90201010799E+02 0.  0.
        -11    1    3    3    0    0 -0.50592073394E+02  0.34918003190E+02 -0.45472306093E+02  0.76462771716E+02  0.00000000000E+00 0.  1.
         12    1    3    3    0    0  0.30199873630E+02  0.10377939551E+02 -0.37601338117E+02  0.49331477018E+02  0.00000000000E+00 0. -1.
        -11    1    4    4    0    0  0.42224568104E+02 -0.24426063034E+02 -0.22703144867E+03  0.23221288808E+03  0.00000000000E+00 0.  1.
         11    1    4    4    0    0  0.98172591120E+02  0.76121612870E+02 -0.41974660962E+03  0.43774373083E+03  0.00000000000E+00 0. -1.
         21    1    1    2  503  501 -0.21216255171E+02  0.94836382175E+01 -0.41181450917E+00  0.23243030536E+02  0.00000000000E+00 0. -1.
          1    1    1    2  501    0 -0.98788704289E+02 -0.10647513079E+03 -0.43268128273E+03  0.45640908623E+03  0.00000000000E+00 0. -1.
<scales pt_clust_5="13000.00000" pt_clust_6="13000.00000" pt_clust_7="13000.00000" pt_clust_8="13000.00000" pt_clust_9="23.23938" pt_clust_10="13000.00000"></scales>
<clustering>
<clus scale="   23.239">  1  9  2 -1</clus>
<clus scale="   80.345">  5  6 -1 -1</clus>
<clus scale="   90.201">  7  8 -1 -1</clus>
<clus scale="   99.336">  2  5  1 -1</clus>
<clus scale="  143.649">  7 10 -1 -1</clus>
<clus scale="   23.239">  1  5  2 -1</clus>
</clustering>
</event>
<event>
10    4  0.7508634E-005  0.2581593E+03  0.7546771E-02  0.1130672E+00
          2   -1    0    0  503    0 -0.00000000000E+00  0.00000000000E+00  0.12312019949E+04  0.12312019949E+04  0.00000000000E+00 0. -1.
         21   -1    0    0  501  502  0.00000000000E+00 -0.00000000000E+00 -0.96023363419E+02  0.96023363419E+02  0.00000000000E+00 0. -1.
         24    2    1    2    0    0  0.14915223232E+03  0.27470233930E+02  0.27966251649E+03  0.32820987249E+03  0.80682061923E+02 0.  0.
         23    2    1    2    0    0 -0.13443083119E+03 -0.81584540757E+02  0.52123934974E+03  0.55243543633E+03  0.93631009481E+02 0.  0.
        -13    1    3    3    0    0  0.11521829672E+02 -0.21006153535E+02  0.58847491651E+02  0.63537692112E+02  0.00000000000E+00 0.  1.
         14    1    3    3    0    0  0.13763040265E+03  0.48476387465E+02  0.22081502484E+03  0.26467218038E+03  0.00000000000E+00 0. -1.
        -11    1    4    4    0    0  0.44365691850E+01 -0.32254874887E+02  0.60539048031E+02  0.68738900461E+02  0.00000000000E+00 0.  1.
         11    1    4    4    0    0 -0.13886740037E+03 -0.49329665869E+02  0.46070030171E+03  0.48369653587E+03  0.00000000000E+00 0. -1.
         21    1    1    2  503  502 -0.58790206026E+02  0.29408802548E+02 -0.34582286259E+02  0.74277187042E+02  0.00000000000E+00 0. -1.
          1    1    1    2  501    0  0.44068804896E+02  0.24705504278E+02  0.36885905155E+03  0.37230286249E+03  0.00000000000E+00 0. -1.
<scales pt_clust_5="13000.00000" pt_clust_6="13000.00000" pt_clust_7="13000.00000" pt_clust_8="13000.00000" pt_clust_9="65.73558" pt_clust_10="13000.00000"></scales>
<clustering>
<clus scale="   65.736">  2  9  1 -1</clus>
<clus scale="   80.682">  5  6 -1 -1</clus>
<clus scale="   93.631">  7  8 -1 -1</clus>
<clus scale="   49.046">  7 10 -1 -1</clus>
<clus scale="  147.277">  1  5  2 -1</clus>
<clus scale="   65.736">  2  5  1 -1</clus>
</clustering>
</event>
<event>
10    4  0.7508634E-005  0.2524347E+03  0.7546771E-02  0.1148922E+00
         21   -1    0    0  501  502  0.00000000000E+00  0.00000000000E+00  0.38332277251E+03  0.38332277251E+03  0.00000000000E+00 0.  1.
          2   -1    0    0  503    0 -0.00000000000E+00 -0.00000000000E+00 -0.75967505535E+03  0.75967505535E+03  0.00000000000E+00 0. -1.
         24    2    1    2    0    0 -0.41625985976E+02 -0.46114981681E+02 -0.42347154540E+03  0.43544532756E+03  0.80157153697E+02 0.  0.
         23    2    1    2    0    0 -0.10470538741E+03 -0.22133815000E+02 -0.10096994307E+03  0.17386643276E+03  0.92636294822E+02 0.  0.
        -13    1    3    3    0    0  0.11179975760E+01 -0.26675109458E+02 -0.34373572452E+02  0.43524175653E+02  0.00000000000E+00 0.  1.
         14    1    3    3    0    0 -0.42743983552E+02 -0.19439872223E+02 -0.38909797294E+03  0.39192115191E+03  0.00000000000E+00 0. -1.
        -13    1    4    4    0    0 -0.11695870321E+03 -0.91241470069E+00 -0.85607665337E+02  0.14494427592E+03  0.00000000000E+00 0. -1.
         13    1    4    4    0    0  0.12253315808E+02 -0.21221400299E+02 -0.15362277730E+02  0.28922156835E+02  0.00000000000E+00 0.  1.
         21    1    1    2  503  502  0.96227843575E+02  0.92589008081E+02  0.32332156364E+03  0.34981331566E+03  0.00000000000E+00 0.  1.
          1    1    1    2  501    0  0.50103529807E+02 -0.24340211400E+02 -0.17523235802E+03  0.18387275189E+03  0.00000000000E+00 0. -1.
<scales pt_clust_5="13000.00000" pt_clust_6="13000.00000" pt_clust_7="13000.00000" pt_clust_8="13000.00000" pt_clust_9="131.05282" pt_clust_10="13000.00000"></scales>
<clustering>
<clus scale="   80.157">  5  6 -1 -1</clus>
<clus scale="   92.636">  7  8 -1 -1</clus>
<clus scale="   55.703">  7 10 -1 -1</clus>
<clus scale="  101.412">  2  5  1 -1</clus>
<clus scale="  131.053">  1  9  2 -1</clus>
<clus scale="  131.053">  1  5  2 -1</clus>
</clustering>
</event>
<event>
10    4  0.7508634E-005  0.8231166E+03  0.7546771E-02  0.1019618E+00
         21   -1    0    0  503  502  0.00000000000E+00  0.00000000000E+00  0.60172973768E+03  0.60172973768E+03  0.00000000000E+00 0. -1.
          2   -1    0    0  502    0 -0.00000000000E+00 -0.00000000000E+00 -0.64528860961E+03  0.64528860961E+03  0.00000000000E+00 0. -1.
         24    2    1    2    0    0 -0.36954104872E+02 -0.25103620105E+02  0.52023261523E+01  0.92543353291E+02  0.80878986342E+02 0.  0.
         23    2    1    2    0    0  0.28476437350E+02  0.34590016117E+03  0.71463583090E+02  0.36767534560E+03  0.98083062107E+02 0.  0.
        -13    1    3    3    0    0 -0.32143997021E+02 -0.42838742592E+02  0.30225469393E+02  0.61497751271E+02  0.00000000000E+00 0.  1.
         14    1    3    3    0    0 -0.48101078518E+01  0.17735122487E+02 -0.25023143241E+02  0.31045602021E+02  0.00000000000E+00 0. -1.
        -11    1    4    4    0    0 -0.25978303404E+02  0.58955229237E+02  0.35065710995E+02  0.73349815198E+02  0.00000000000E+00 0.  1.
         11    1    4    4    0    0  0.54454740754E+02  0.28694493194E+03  0.36397872096E+02  0.29432553041E+03  0.00000000000E+00 0. -1.
         21    1    1    2  503  501 -0.32412968418E+02  0.16043665143E+02  0.26843695999E+03  0.27086232887E+03  0.00000000000E+00 0. -1.
          1    1    1    2  501    0  0.40890635940E+02 -0.33684020621E+03 -0.38866174117E+03  0.51593731952E+03  0.00000000000E+00 0. -1.
<scales pt_clust_5="13000.00000" pt_clust_6="13000.00000" pt_clust_7="13000.00000" pt_clust_8="13000.00000" pt_clust_9="36.16628" pt_clust_10="13000.00000"></scales>
<clustering>
<clus scale="   36.166">  1  9  2 -1</clus>
<clus scale="   80.879">  5  6 -1 -1</clus>
<clus scale="   93.806">  2  5  1 -1</clus>
<clus scale="   98.083">  7  8 -1 -1</clus>
<clus scale="  350.573">  7 10 -1 -1</clus>
<clus scale="   36.166">  1  5  2 -1</clus>
</clustering>
</event>
<event>
10    4  0.7508634E-005  0.1337143E+03  0.7546771E-02  0.1245103E+00
          2   -1    0    0  503    0 -0.00000000000E+00  0.00000000000E+00  0.78089433446E+02  0.78089433446E+02  0.00000000000E+00 0. -1.
         21   -1    0    0  501  502  0.00000000000E+00 -0.00000000000E+00 -0.26611907212E+03  0.26611907212E+03  0.00000000000E+00 0.  1.
         24    2    1    2    0    0 -0.36967525701E+00 -0.28870202155E+01 -0.66607449509E+02  0.10409721526E+03  0.79945020785E+02 0.  0.
         23    2    1    2    0    0  0.27211631067E+02  0.82809919589E+01  0.15004438996E+01  0.10076644583E+03  0.96657009994E+02 0.  0.
        -13    1    3    3    0    0 -0.29687514237E+02  0.21801043564E+02 -0.14897013471E+02  0.39731033367E+02  0.00000000000E+00 0.  1.
         14    1    3    3    0    0  0.29317838980E+02 -0.24688063779E+02 -0.51710436038E+02  0.64366181888E+02  0.00000000000E+00 0. -1.
        -13    1    4    4    0    0  0.28623522855E+02 -0.40763922883E+02 -0.89324891114E+01  0.50604276807E+02  0.00000000000E+00 0.  1.
         13    1    4    4    0    0 -0.14118917878E+01  0.49044914842E+02  0.10432933011E+02  0.50162169027E+02  0.00000000000E+00 0. -1.
         21    1    1    2  503  502 -0.35687084823E+02 -0.25296434349E+02 -0.85711439306E+02  0.96228521976E+02  0.00000000000E+00 0.  1.
          1    1    1    2  501    0  0.88451290128E+01  0.19902462606E+02 -0.37211193758E+02  0.43116322500E+02  0.00000000000E+00 0. -1.
<scales pt_clust_5="13000.00000" pt_clust_6="13000.00000" pt_clust_7="13000.00000" pt_clust_8="13000.00000" pt_clust_9="43.74332" pt_clust_10="13000.00000"></scales>
<clustering>
<clus scale="   43.743">  2  9  1 -1</clus>
<clus scale="   79.945">  5  6 -1 -1</clus>
<clus scale="   83.295">  1  5  2 -1</clus>
<clus scale="   96.657">  7  8 -1 -1</clus>
<clus scale="   13.261">  7 10 -1 -1</clus>
<clus scale="   43.743">  2  5  1 -1</clus>
</clustering>
</event>
<event>
10    4  0.7508634E-005  0.4667512E+03  0.7546771E-02  0.1035874E+00
         21   -1    0    0  501  502  0.00000000000E+00  0.00000000000E+00  0.22851734972E+03  0.22851734972E+03  0.00000000000E+00 0. -1.
          2   -1    0    0  503    0 -0.00000000000E+00 -0.00000000000E+00 -0.10892265445E+04  0.10892265445E+04  0.00000000000E+00 0. -1.
         24    2    1    2    0    0 -0.30051393508E+03 -0.36741675482E+02 -0.61708367616E+03  0.69206887566E+03  0.80675209286E+02 0.  0.
         23    2    1    2    0    0 -0.12333960571E+02 -0.50334514398E+02 -0.10414524803E+03  0.14938229883E+03  0.93718453860E+02 0.  0.
        -11    1    3    3    0    0 -0.10802505179E+03 -0.18390693557E+02 -0.14367284334E+03  0.18069176887E+03  0.00000000000E+00 0.  1.
         12    1    3    3    0    0 -0.19248888329E+03 -0.18350981924E+02 -0.47341083282E+03  0.51137710679E+03  0.00000000000E+00 0. -1.
        -11    1    4    4    0    0  0.13733159424E+02 -0.71780736988E+02 -0.75936163489E+02  0.10539153095E+03  0.00000000000E+00 0. -1.
         11    1    4    4    0    0 -0.26067119996E+02  0.21446222590E+02 -0.28209084537E+02  0.43990767880E+02  0.00000000000E+00 0.  1.
         21    1    1    2  503  502 -0.54151683062E+01 -0.90299562615E+02 -0.18117057611E+02  0.92258131526E+02  0.00000000000E+00 0. -1.
          1    1    1    2  501    0  0.31826306395E+03  0.17737575249E+03 -0.12136321295E+03  0.38403458817E+03  0.00000000000E+00 0. -1.
<scales pt_clust_5="13000.00000" pt_clust_6="13000.00000" pt_clust_7="13000.00000" pt_clust_8="13000.00000" pt_clust_9="90.46179" pt_clust_10="13000.00000"></scales>
<clustering>
<clus scale="   80.675">  5  6 -1 -1</clus>
<clus scale="   90.462">  1  9  2 -1</clus>
<clus scale="   93.718">  7  8 -1 -1</clus>
<clus scale="  316.888">  2  5  1 -1</clus>
<clus scale="  161.185">  7 10 -1 -1</clus>
<clus scale="   90.462">  1  5  2 -1</clus>
</clustering>
</event>
<event>
10    4  0.7508634E-005  0.4861751E+03  0.7546771E-02  0.1075150E+00
          2   -1    0    0  503    0 -0.00000000000E+00  0.00000000000E+00  0.17597203776E+04  0.17597203776E+04  0.00000000000E+00 0. -1.
         21   -1    0    0  501  502  0.00000000000E+00 -0.00000000000E+00 -0.61329356088E+02  0.61329356088E+02  0.00000000000E+00 0. -1.
         24    2    1    2    0    0 -0.32396924834E+01 -0.51848306651E+02  0.26165991626E+03  0.27865668911E+03  0.80528852577E+02 0.  0.
         23    2    1    2    0    0  0.89826192599E+02  0.11151879176E+03  0.16158382871E+03  0.23390064865E+03  0.89972184284E+02 0.  0.
        -11    1    3    3    0    0  0.34423864169E+02 -0.37184546687E+02  0.18717191207E+03  0.19390981823E+03  0.00000000000E+00 0.  1.
         12    1    3    3    0    0 -0.37663556653E+02 -0.14663759963E+02  0.74488004194E+02  0.84746870885E+02  0.00000000000E+00 0. -1.
        -11    1    4    4    0    0  0.37444520682E+02  0.10780086635E+03  0.91193459890E+02  0.14607999877E+03  0.00000000000E+00 0. -1.
         11    1    4    4    0    0  0.52381671918E+02  0.37179254152E+01  0.70390368820E+02  0.87820649877E+02  0.00000000000E+00 0.  1.
         21    1    1    2  503  502  0.31706541188E+02  0.37198042477E+02  0.37942326242E+02  0.61875837279E+02  0.00000000000E+00 0. -1.
          1    1    1    2  501    0 -0.11829304130E+03 -0.96868527591E+02  0.12372049503E+04  0.12466165587E+04  0.00000000000E+00 0. -1.
<scales pt_clust_5="13000.00000" pt_clust_6="13000.00000" pt_clust_7="13000.00000" pt_clust_8="13000.00000" pt_clust_9="48.87739" pt_clust_10="13000.00000"></scales>
<clustering>
<clus scale="   48.877">  2  9  1 -1</clus>
<clus scale="   80.529">  5  6 -1 -1</clus>
<clus scale="   89.972">  7  8 -1 -1</clus>
<clus scale="   92.493">  1  5  2 -1</clus>
<clus scale="  171.870">  7 10 -1 -1</clus>
<clus scale="   48.877">  2  5  1 -1</clus>
</clustering>
</event>
<event>
10    4  0.7508634E-005  0.2128129E+03  0.7546771E-02  0.1159280E+00
          2   -1    0    0  503    0 -0.00000000000E+00  0.00000000000E+00  0.19572567366E+03  0.19572567366E+03  0.00000000000E+00 0. -1.
         21   -1    0    0  501  502  0.00000000000E+00 -0.00000000000E+00 -0.37632547216E+03  0.37632547216E+03  0.00000000000E+00 0. -1.
         24    2    1    2    0    0  0.84896053898E+02  0.60589637764E+02  0.11952896223E+03  0.17791692629E+03  0.80553185397E+02 0.  0.
         23    2    1    2    0    0 -0.93621904580E+01  0.32132608547E+02 -0.72229001219E+02  0.11328679231E+03  0.80602193218E+02 0.  0.
        -11    1    3    3    0    0  0.46396302075E+02  0.73160340128E+02  0.57998782001E+02  0.10425406912E+03  0.00000000000E+00 0.  1.
         12    1    3    3    0    0  0.38499751823E+02 -0.12570702363E+02  0.61530180224E+02  0.73662857172E+02  0.00000000000E+00 0. -1.
        -13    1    4    4    0    0 -0.22815022847E+02  0.10678655205E+02  0.10108690222E+02  0.27143038933E+02  0.00000000000E+00 0.  1.
         13    1    4    4    0    0  0.13452832389E+02  0.21453953342E+02 -0.82337691442E+02  0.86143753373E+02  0.00000000000E+00 0. -1.
         21    1    1    2  503  502  0.28250648416E+02 -0.18237101898E+02 -0.28719412251E+02  0.44220986665E+02  0.00000000000E+00 0. -1.
          1    1    1    2  501    0 -0.10378451186E+03 -0.74485144413E+02 -0.19918034726E+03  0.23662644056E+03  0.00000000000E+00 0. -1.
<scales pt_clust_5="13000.00000" pt_clust_6="13000.00000" pt_clust_7="13000.00000" pt_clust_8="13000.00000" pt_clust_9="33.62575" pt_clust_10="13000.00000"></scales>
<clustering>
<clus scale="   33.626">  2  9  1 -1</clus>
<clus scale="   80.553">  5  6 -1 -1</clus>
<clus scale="   80.602">  7  8 -1 -1</clus>
<clus scale="  121.516">  7 10 -1 -1</clus>
<clus scale="  132.657">  1  5  2 -1</clus>
<clus scale="   33.626">  2  5  1 -1</clus>
</clustering>
</event>
<event>
10    4  0.7508634E-005  0.1882909E+03  0.7546771E-02  0.1197193E+00
          2   -1    0    0  503    0 -0.00000000000E+00  0.00000000000E+00  0.10657955814E+04  0.10657955814E+04  0.00000000000E+00 0. -1.
         21   -1    0    0  501  502  0.00000000000E+00 -0.00000000000E+00 -0.38007929801E+02  0.38007929801E+02  0.00000000000E+00 0.  1.
         24    2    1    2    0    0 -0.20572156831E+02  0.24251319625E+01  0.72354611206E+03  0.72807450495E+03  0.78386309916E+02 0.  0.
         23    2    1    2    0    0  0.65077051792E+01  0.54271768277E+02  0.19427312575E+03  0.22120738836E+03  0.90569786454E+02 0.  0.
        -11    1    3    3    0    0 -0.48935424878E+01 -0.29685193595E+02  0.12926300378E+03  0.13271805312E+03  0.00000000000E+00 0.  1.
         12    1    3    3    0    0 -0.15678614343E+02  0.32110325557E+02  0.59428310828E+03  0.59535645183E+03  0.00000000000E+00 0. -1.
        -11    1    4    4    0    0 -0.38977980042E+02  0.23798663989E+02  0.12387479012E+03  0.13202508460E+03  0.00000000000E+00 0. -1.
         11    1    4    4    0    0  0.45485685221E+02  0.30473104288E+02  0.70398335624E+02  0.89182303758E+02  0.00000000000E+00 0.  1.
         21    1    1    2  503  502 -0.17015064505E+02  0.19350054600E+02  0.19466584428E+02  0.32293729150E+02  0.00000000000E+00 0.  1.
          1    1    1    2  501    0  0.31079516157E+02 -0.76046954839E+02  0.90501829325E+02  0.12222788870E+03  0.00000000000E+00 0. -1.
<scales pt_clust_5="13000.00000" pt_clust_6="13000.00000" pt_clust_7="13000.00000" pt_clust_8="13000.00000" pt_clust_9="25.76698" pt_clust_10="13000.00000"></scales>
<clustering>
<clus scale="   25.767">  2  9  1 -1</clus>
<clus scale="   78.386">  5  6 -1 -1</clus>
<clus scale="   81.448">  1  5  2 -1</clus>
<clus scale="   90.570">  7  8 -1 -1</clus>
<clus scale="   67.319">  7 10 -1 -1</clus>
<clus scale="   25.767">  2  5  1 -1</clus>
</clustering>
</event>
<event>
10    4  0.7508634E-005  0.2633674E+03  0.7546771E-02  0.1130632E+00
         21   -1    0    0  503  502  0.00000000000E+00  0.00000000000E+00  0.36934967677E+02  0.36934967677E+02  0.00000000000E+00 0. -1.
          2   -1    0    0  502    0 -0.00000000000E+00 -0.00000000000E+00 -0.13061000320E+04  0.13061000320E+04  0.00000000000E+00 0. -1.
         24    2    1    2    0    0  0.73161276938E+02 -0.92226344420E+02 -0.42500339636E+03  0.44778554468E+03  0.77625614729E+02 0.  0.
         23    2    1    2    0    0  0.59267214598E+02 -0.91362973236E+01 -0.29088933217E+03  0.31058341381E+03  0.90826090473E+02 0.  0.
        -13    1    3    3    0    0  0.51607229847E+02 -0.11390338317E+02 -0.11279068227E+03  0.12455835575E+03  0.00000000000E+00 0.  1.
         14    1    3    3    0    0  0.21554047091E+02 -0.80836006104E+02 -0.31221271409E+03  0.32322718894E+03  0.00000000000E+00 0. -1.
        -11    1    4    4    0    0  0.13490795203E+02 -0.26414356760E+02 -0.21115900530E+02  0.36408804614E+02  0.00000000000E+00 0.  1.
         11    1    4    4    0    0  0.45776419395E+02  0.17278059436E+02 -0.26977343164E+03  0.27417460920E+03  0.00000000000E+00 0. -1.
         21    1    1    2  503  501 -0.30879050747E+02 -0.12907238410E+02 -0.66399955651E+02  0.74357694215E+02  0.00000000000E+00 0.  1.
          1    1    1    2  501    0 -0.10154944079E+03  0.11426988015E+03 -0.48687238010E+03  0.51030834693E+03  0.00000000000E+00 0. -1.
<scales pt_clust_5="13000.00000" pt_clust_6="13000.00000" pt_clust_7="13000.00000" pt_clust_8="13000.00000" pt_clust_9="33.46808" pt_clust_10="13000.00000"></scales>
<clustering>
<clus scale="   33.468">  1  9  2 -1</clus>
<clus scale="   77.626">  5  6 -1 -1</clus>
<clus scale="   90.826">  7  8 -1 -1</clus>
<clus scale="  138.849">  2  5  1 -1</clus>
<clus scale="   87.595">  7 10 -1 -1</clus>
<clus scale="   33.468">  1  5  2 -1</clus>
</clustering>
</event>
<event>
10    4  0.7508634E-005  0.3169035E+03  0.7546771E-02  0.1120792E+00
          2   -1    0    0  502    0 -0.00000000000E+00  0.00000000000E+00  0.79152569977E+03  0.79152569977E+03  0.00000000000E+00 0. -1.
         21   -1    0    0  503  502  0.00000000000E+00 -0.00000000000E+00 -0.68459438358E+02  0.68459438358E+02  0.00000000000E+00 0. -1.
         24    2    1    2    0    0  0.33182228226E+02 -0.66057934186E+02  0.28679050660E+03  0.30502293376E+03  0.72975917291E+02 0.  0.
         23    2    1    2    0    0  0.11011248323E+03 -0.45408871596E+02  0.15896558064E+03  0.21949982779E+03  0.93399111283E+02 0.  0.
        -13    1    3    3    0    0 -0.16572229931E+02 -0.32738323496E+02  0.58885604288E+02  0.69382642084E+02  0.00000000000E+00 0.  1.
         14    1    3    3    0    0  0.49754458156E+02 -0.33319610690E+02  0.22790490232E+03  0.23564029168E+03  0.00000000000E+00 0. -1.
        -11    1    4    4    0    0  0.15250660120E+02 -0.50736845591E+02  0.35777294996E+02  0.63928279907E+02  0.00000000000E+00 0. -1.
         11    1    4    4    0    0  0.94861823107E+02  0.53279739951E+01  0.12318828564E+03  0.15557154788E+03  0.00000000000E+00 0.  1.
         21    1    1    2  503  501 -0.21376629130E+02  0.12843642864E+02  0.12971812147E+02  0.28110271172E+02  0.00000000000E+00 0.  1.
          1    1    1    2  501    0 -0.12191808232E+03  0.98623162918E+02  0.26433836202E+03  0.30735210541E+03  0.00000000000E+00 0. -1.
<scales pt_clust_5="13000.00000" pt_clust_6="13000.00000" pt_clust_7="13000.00000" pt_clust_8="13000.00000" pt_clust_9="24.93831" pt_clust_10="13000.00000"></scales>
<clustering>
<clus scale="   24.938">  2  9  1 -1</clus>
<clus scale="   72.976">  5  6 -1 -1</clus>
<clus scale="   93.399">  7  8 -1 -1</clus>
<clus scale="  101.674">  1  5  2 -1</clus>
<clus scale="  126.451">  7 10 -1 -1</clus>
<clus scale="   24.938">  2  5  1 -1</clus>
</clustering>
</event>
<event>
10    4  0.7508634E-005  0.3314522E+03  0.7546771E-02  0.1110963E+00
          2   -1    0    0  502    0 -0.00000000000E+00  0.00000000000E+00  0.82277926791E+03  0.82277926791E+03  0.00000000000E+00 0. -1.
         21   -1    0    0  503  502  0.00000000000E+00 -0.00000000000E+00 -0.69109484077E+02  0.69109484077E+02  0.00000000000E+00 0. -1.
         24    2    1    2    0    0 -0.53644952305E+01  0.85138174609E+02  0.16197437513E+03  0.20049929822E+03  0.81773979993E+02 0.  0.
         23    2    1    2    0    0 -0.41186297774E+02  0.10524923037E+03  0.20850598388E+03  0.25450443460E+03  0.92325783482E+02 0.  0.
        -13    1    3    3    0    0  0.24367924053E+02 -0.35515868077E+01  0.33065034581E+02  0.41227490870E+02  0.00000000000E+00 0.  1.
         14    1    3    3    0    0 -0.29732419284E+02  0.88689761416E+02  0.12890934055E+03  0.15927180735E+03  0.00000000000E+00 0. -1.
        -11    1    4    4    0    0 -0.62053664322E+02  0.35422164028E+02  0.12207731834E+03  0.14145055183E+03  0.00000000000E+00 0. -1.
         11    1    4    4    0    0  0.20867366548E+02  0.69827066341E+02  0.86428665548E+02  0.11305388277E+03  0.00000000000E+00 0.  1.
         21    1    1    2  503  501 -0.77758529835E+01 -0.20518592715E+02  0.11848121484E+02  0.24937011034E+02  0.00000000000E+00 0.  1.
          1    1    1    2  501    0  0.54326645988E+02 -0.16986881226E+03  0.37134130333E+03  0.41194800813E+03  0.00000000000E+00 0. -1.
<scales pt_clust_5="13000.00000" pt_clust_6="13000.00000" pt_clust_7="13000.00000" pt_clust_8="13000.00000" pt_clust_9="21.94257" pt_clust_10="13000.00000"></scales>
<clustering>
<clus scale="   21.943">  2  9  1 -1</clus>
<clus scale="   81.774">  5  6 -1 -1</clus>
<clus scale="   92.326">  7  8 -1 -1</clus>
<clus scale="  113.842">  1  5  2 -1</clus>
<clus scale="  133.810">  7 10 -1 -1</clus>
<clus scale="   21.943">  2  5  1 -1</clus>
</clustering>
</event>
<event>
10    4  0.7508634E-005  0.3351316E+03  0.7546771E-02  0.1110591E+00
          2   -1    0    0  503    0 -0.00000000000E+00  0.00000000000E+00  0.98148755440E+03  0.98148755440E+03  0.00000000000E+00 0. -1.
         21   -1    0    0  501  502  0.00000000000E+00 -0.00000000000E+00 -0.87298124183E+02  0.87298124183E+02  0.00000000000E+00 0. -1.
         24    2    1    2    0    0 -0.80556977960E+02  0.96686471775E+01  0.21222909995E+03  0.23958699353E+03  0.76012019887E+02 0.  0.
         23    2    1    2    0    0  0.34381011748E+02 -0.47558642763E+02  0.47614635476E+03  0.48825900234E+03  0.90761356019E+02 0.  0.
        -11    1    3    3    0    0 -0.10205590044E+02  0.31195218464E+02  0.36547422970E+02  0.49122396612E+02  0.00000000000E+00 0.  1.
         12    1    3    3    0    0 -0.70351387916E+02 -0.21526571286E+02  0.17568167698E+03  0.19046459692E+03  0.00000000000E+00 0. -1.
        -11    1    4    4    0    0  0.46422913943E+02  0.82349086448E+01  0.28132610444E+03  0.28524950079E+03  0.00000000000E+00 0.  1.
         11    1    4    4    0    0 -0.12041902195E+02 -0.55793551408E+02  0.19482025032E+03  0.20300950155E+03  0.00000000000E+00 0. -1.
         21    1    1    2  503  502 -0.83745078629E+02  0.73417396054E+02  0.16706860636E+03  0.20078663170E+03  0.00000000000E+00 0. -1.
          1    1    1    2  501    0  0.12992104484E+03 -0.35527400469E+02  0.38745369142E+02  0.14015305101E+03  0.00000000000E+00 0. -1.
<scales pt_clust_5="13000.00000" pt_clust_6="13000.00000" pt_clust_7="13000.00000" pt_clust_8="13000.00000" pt_clust_9="128.15399" pt_clust_10="13000.00000"></scales>
<clustering>
<clus scale="   76.012">  5  6 -1 -1</clus>
<clus scale="   90.761">  7  8 -1 -1</clus>
<clus scale="  111.179">  1  5  2 -1</clus>
<clus scale="  125.198">  7 10 -1 -1</clus>
<clus scale="  128.154">  2  9  1 -1</clus>
<clus scale="  128.154">  2  5  1 -1</clus>
</clustering>
</event>
<event>
10    4  0.7508634E-005  0.2585859E+03  0.7546771E-02  0.1121182E+00
         21   -1    0    0  503  502  0.00000000000E+00  0.00000000000E+00  0.13490925126E+03  0.13490925126E+03  0.00000000000E+00 0. -1.
          2   -1    0    0  502    0 -0.00000000000E+00 -0.00000000000E+00 -0.62113251503E+03  0.62113251503E+03  0.00000000000E+00 0. -1.
         24    2    1    2    0    0  0.81803144937E+02  0.93432176981E+02 -0.68109930785E+02  0.16227623058E+03  0.79204078956E+02 0.  0.
         23    2    1    2    0    0 -0.16207872757E+03 -0.12190643539E+03 -0.27251428613E+03  0.35155221726E+03  0.90521999519E+02 0.  0.
        -11    1    3    3    0    0  0.19350341796E+02  0.81067406275E+02 -0.33631604571E+02  0.89874606613E+02  0.00000000000E+00 0.  1.
         12    1    3    3    0    0  0.62452803141E+02  0.12364770706E+02 -0.34478326214E+02  0.72401623969E+02  0.00000000000E+00 0. -1.
        -11    1    4    4    0    0 -0.15232513451E+03 -0.67146240036E+02 -0.20358337746E+03  0.26297862219E+03  0.00000000000E+00 0. -1.
         11    1    4    4    0    0 -0.97535930631E+01 -0.54760195359E+02 -0.68930908670E+02  0.88573595069E+02  0.00000000000E+00 0.  1.
         21    1    1    2  503  501  0.46938398978E+02  0.70448873898E+02  0.25223375428E+01  0.84691317848E+02  0.00000000000E+00 0. -1.
          1    1    1    2  501    0  0.33337183654E+02 -0.41974615484E+02 -0.14812138440E+03  0.15752200061E+03  0.00000000000E+00 0. -1.
<scales pt_clust_5="13000.00000" pt_clust_6="13000.00000" pt_clust_7="13000.00000" pt_clust_8="13000.00000" pt_clust_9="84.65375" pt_clust_10="13000.00000"></scales>
<clustering>
<clus scale="   79.204">  5  6 -1 -1</clus>
<clus scale="   84.654">  1  9  2 -1</clus>
<clus scale="   90.522">  7  8 -1 -1</clus>
<clus scale="   52.430">  7 10 -1 -1</clus>
<clus scale="  185.335">  2  5  1 -1</clus>
<clus scale="   84.654">  1  5  2 -1</clus>
</clustering>
</event>
<event>
10    4  0.7508634E-005  0.4509903E+03  0.7546771E-02  0.1070539E+00
         21   -1    0    0  501  502  0.00000000000E+00  0.00000000000E+00  0.16446482035E+03  0.16446482035E+03  0.00000000000E+00 0. -1.
          2   -1    0    0  503    0 -0.00000000000E+00 -0.00000000000E+00 -0.13650853058E+04  0.13650853058E+04  0.00000000000E+00 0. -1.
         24    2    1    2    0    0  0.75782909360E+02  0.73605120555E+02 -0.31404328344E+03  0.34043377122E+03  0.78174200289E+02 0.  0.
         23    2    1    2    0    0  0.44214212860E+02  0.13814634127E+03 -0.23549246008E+03  0.29201723254E+03  0.93691286273E+02 0.  0.
        -11    1    3    3    0    0  0.31599119393E+02 -0.13005507233E+02 -0.84446251345E+02  0.91097842625E+02  0.00000000000E+00 0.  1.
         12    1    3    3    0    0  0.44183789967E+02  0.86610627788E+02 -0.22959703209E+03  0.24933592859E+03  0.00000000000E+00 0. -1.
        -11    1    4    4    0    0  0.53471766547E+02  0.11257442708E+03 -0.11873532468E+03  0.17213456589E+03  0.00000000000E+00 0. -1.
         11    1    4    4    0    0 -0.92575536868E+01  0.25571914192E+02 -0.11675713540E+03  0.11988266665E+03  0.00000000000E+00 0.  1.
         21    1    1    2  503  502 -0.30871943645E+03 -0.73238714624E+02 -0.16510415676E+03  0.35767440829E+03  0.00000000000E+00 0. -1.
          1    1    1    2  501    0  0.18872231423E+03 -0.13851274720E+03 -0.48598058522E+03  0.53942471415E+03  0.00000000000E+00 0. -1.
<scales pt_clust_5="13000.00000" pt_clust_6="13000.00000" pt_clust_7="13000.00000" pt_clust_8="13000.00000" pt_clust_9="294.75315" pt_clust_10="13000.00000"></scales>
<clustering>
<clus scale="   78.174">  5  6 -1 -1</clus>
<clus scale="   93.691">  7  8 -1 -1</clus>
<clus scale="  131.423">  2  5  1 -1</clus>
<clus scale="  248.159">  7 10 -1 -1</clus>
<clus scale="  294.753">  1  9  2 -1</clus>
<clus scale="  294.753">  1  5  2 -1</clus>
</clustering>
</event>
<event>
10    4  0.7508634E-005  0.3602297E+03  0.7546771E-02  0.1065853E+00
         21   -1    0    0  503  502  0.00000000000E+00  0.00000000000E+00  0.68542822947E+02  0.68542822947E+02  0.00000000000E+00 0. -1.
          2   -1    0    0  502    0 -0.00000000000E+00 -0.00000000000E+00 -0.24048521731E+04  0.24048521731E+04  0.00000000000E+00 0. -1.
         24    2    1    2    0    0 -0.26701543792E+03  0.99713623445E+02 -0.16340423685E+04  0.16607020268E+04  0.81220126347E+02 0.  0.
         23    2    1    2    0    0  0.13322099268E+03 -0.49009922654E+02 -0.57776884761E+03  0.60182080050E+03  0.90673200249E+02 0.  0.
        -13    1    3    3    0    0 -0.11108804887E+03  0.84490759390E+02 -0.74479998114E+03  0.75776398366E+03  0.00000000000E+00 0.  1.
         14    1    3    3    0    0 -0.15592738904E+03  0.15222864055E+02 -0.88924238733E+03  0.90293804309E+03  0.00000000000E+00 0. -1.
        -13    1    4    4    0    0  0.39041464242E-01 -0.29791855196E+02 -0.61978779574E+02  0.68767181691E+02  0.00000000000E+00 0.  1.
         13    1    4    4    0    0  0.13318195121E+03 -0.19218067458E+02 -0.51579006804E+03  0.53305361881E+03  0.00000000000E+00 0. -1.
         21    1    1    2  503  501  0.22969671113E+02  0.23700338370E+02 -0.86313270447E+01  0.34114683590E+02  0.00000000000E+00 0.  1.
          1    1    1    2  501    0  0.11082477412E+03 -0.74404039161E+02 -0.11586680704E+03  0.17675748520E+03  0.00000000000E+00 0. -1.
<scales pt_clust_5="13000.00000" pt_clust_6="13000.00000" pt_clust_7="13000.00000" pt_clust_8="13000.00000" pt_clust_9="33.00472" pt_clust_10="13000.00000"></scales>
<clustering>
<clus scale="   33.005">  1  9  2 -1</clus>
<clus scale="   81.220">  5  6 -1 -1</clus>
<clus scale="   90.673">  7  8 -1 -1</clus>
<clus scale="  137.826">  7 10 -1 -1</clus>
<clus scale="  293.424">  2  5  1 -1</clus>
<clus scale="   33.005">  1  5  2 -1</clus>
</clustering>
</event>
<event>
10    4  0.7508634E-005  0.3680044E+03  0.7546771E-02  0.1079398E+00
         21   -1    0    0  501  502  0.00000000000E+00  0.00000000000E+00  0.34570356746E+03  0.34570356746E+03  0.00000000000E+00 0.  1.
         -1   -1    0    0    0  501 -0.00000000000E+00 -0.00000000000E+00 -0.53690983367E+03  0.53690983367E+03  0.00000000000E+00 0.  1.
         24    2    1    2    0    0  0.15437880920E+03 -0.76994043859E+02 -0.34851932971E+03  0.39871879077E+03  0.88034376324E+02 0.  0.
         23    2    1    2    0    0  0.67985580668E+02  0.63935790017E+02 -0.55410904667E+02  0.14121325997E+03  0.90338209027E+02 0.  0.
        -13    1    3    3    0    0  0.30528380728E+02 -0.11793527120E+02 -0.16338751076E+03  0.16663297388E+03  0.00000000000E+00 0.  1.
         14    1    3    3    0    0  0.12385042847E+03 -0.65200516738E+02 -0.18513181895E+03  0.23208581689E+03  0.00000000000E+00 0. -1.
        -11    1    4    4    0    0  0.29527840554E+02  0.14868124680E+02 -0.69798240037E+02  0.77231786277E+02  0.00000000000E+00 0. -1.
         11    1    4    4    0    0  0.38457740114E+02  0.49067665337E+02  0.14387335370E+02  0.63981473688E+02  0.00000000000E+00 0.  1.
         21    1    1    2  503  502 -0.27426649354E+02  0.24570412157E+02  0.12185468379E+03  0.12729685860E+03  0.00000000000E+00 0.  1.
         -2    1    1    2    0  503 -0.19493774051E+03 -0.11512158315E+02  0.90869284368E+02  0.21538449180E+03  0.00000000000E+00 0.  1.
<scales pt_clust_5="13000.00000" pt_clust_6="13000.00000" pt_clust_7="13000.00000" pt_clust_8="13000.00000" pt_clust_9="36.82290" pt_clust_10="13000.00000"></scales>
<clustering>
<clus scale="   36.823">  1  9  2 -1</clus>
<clus scale="   88.034">  5  6 -1 -1</clus>
<clus scale="   90.338">  7  8 -1 -1</clus>
<clus scale="  190.099">  2  5  1 -1</clus>
<clus scale="  150.666">  7 10 -1 -1</clus>
<clus scale="   36.823">  1  5  2 -1</clus>
</clustering>
</event>
<event>
10    4  0.7508634E-005  0.2586183E+03  0.7546771E-02  0.1133342E+00
         21   -1    0    0  501  502  0.00000000000E+00  0.00000000000E+00  0.40450379603E+02  0.40450379603E+02  0.00000000000E+00 0. -1.
          2   -1    0    0  503    0 -0.00000000000E+00 -0.00000000000E+00 -0.15540089473E+04  0.15540089473E+04  0.00000000000E+00 0. -1.
         24    2    1    2    0    0  0.22279578032E+02  0.11623203055E+03 -0.85724518049E+03  0.86910530499E+03  0.80426781427E+02 0.  0.
         23    2    1    2    0    0 -0.97485236112E+02 -0.26165786314E+02 -0.32291176838E+03  0.35037395320E+03  0.91114638194E+02 0.  0.
        -11    1    3    3    0    0  0.46487117403E+02  0.35693984800E+02 -0.32122814336E+03  0.32653121248E+03  0.00000000000E+00 0.  1.
         12    1    3    3    0    0 -0.24207539371E+02  0.80538045753E+02 -0.53601703713E+03  0.54257409252E+03  0.00000000000E+00 0. -1.
        -11    1    4    4    0    0 -0.23457811778E+01  0.22922655114E+02 -0.25948632079E+02  0.34702770978E+02  0.00000000000E+00 0. -1.
         11    1    4    4    0    0 -0.95139454934E+02 -0.49088441428E+02 -0.29696313630E+03  0.31567118222E+03  0.00000000000E+00 0.  1.
         21    1    1    2  503  502 -0.20091510783E+02 -0.32341672105E+02 -0.21388141831E+02  0.43670415284E+02  0.00000000000E+00 0. -1.
          1    1    1    2  501    0  0.95297168863E+02 -0.57724572133E+02 -0.31201347699E+03  0.33130965341E+03  0.00000000000E+00 0. -1.
<scales pt_clust_5="13000.00000" pt_clust_6="13000.00000" pt_clust_7="13000.00000" pt_clust_8="13000.00000" pt_clust_9="38.07430" pt_clust_10="13000.00000"></scales>
<clustering>
<clus scale="   38.074">  1  9  2 -1</clus>
<clus scale="   80.427">  5  6 -1 -1</clus>
<clus scale="   91.115">  7  8 -1 -1</clus>
<clus scale="  111.979">  7 10 -1 -1</clus>
<clus scale="  137.229">  2  5  1 -1</clus>
<clus scale="   38.074">  1  5  2 -1</clus>
</clustering>
</event>
<event>
10    4  0.7508634E-005  0.4321800E+03  0.7546771E-02  0.1047281E+00
         21   -1    0    0  501  502  0.00000000000E+00  0.00000000000E+00  0.23602249884E+03  0.23602249884E+03  0.00000000000E+00 0. -1.
          2   -1    0    0  503    0 -0.00000000000E+00 -0.00000000000E+00 -0.17408718844E+04  0.17408718844E+04  0.00000000000E+00 0. -1.
         24    2    1    2    0    0  0.81315537811E+02  0.26009710924E+03 -0.14587065970E+04  0.14863254187E+04  0.84116534061E+02 0.  0.
         23    2    1    2    0    0 -0.22947798428E+02  0.23344252959E+02  0.58597593750E+02  0.11214588057E+03  0.89841332002E+02 0.  0.
        -11    1    3    3    0    0  0.16019844601E+02  0.17529782833E+03 -0.81621927788E+03  0.83498495413E+03  0.00000000000E+00 0.  1.
         12    1    3    3    0    0  0.65295693210E+02  0.84799280904E+02 -0.64248731914E+03  0.65134046461E+03  0.00000000000E+00 0. -1.
        -13    1    4    4    0    0 -0.43896347100E+02  0.44575082547E+02  0.25406863668E+02  0.67522855347E+02  0.00000000000E+00 0. -1.
         13    1    4    4    0    0  0.20948548672E+02 -0.21230829588E+02  0.33190730082E+02  0.44623025220E+02  0.00000000000E+00 0.  1.
         21    1    1    2  503  502 -0.12851947102E+02  0.29064628191E+02  0.21450270008E+02  0.38341090746E+02  0.00000000000E+00 0. -1.
          1    1    1    2  501    0 -0.45515792281E+02 -0.31250599039E+03 -0.12619065233E+03  0.34008199322E+03  0.00000000000E+00 0. -1.
<scales pt_clust_5="13000.00000" pt_clust_6="13000.00000" pt_clust_7="13000.00000" pt_clust_8="13000.00000" pt_clust_9="31.77932" pt_clust_10="13000.00000"></scales>
<clustering>
<clus scale="   31.779">  1  9  2 -1</clus>
<clus scale="   84.117">  5  6 -1 -1</clus>
<clus scale="   89.841">  7  8 -1 -1</clus>
<clus scale="  286.733">  2  5  1 -1</clus>
<clus scale="   74.094">  7 10 -1 -1</clus>
<clus scale="   31.779">  1  5  2 -1</clus>
</clustering>
</event>
<event>
10    4  0.7508634E-005  0.3083388E+03  0.7546771E-02  0.1123000E+00
         21   -1    0    0  503  502  0.00000000000E+00  0.00000000000E+00  0.65007521291E+02  0.65007521291E+02  0.00000000000E+00 0.  1.
          2   -1    0    0  502    0 -0.00000000000E+00 -0.00000000000E+00 -0.11711450731E+04  0.11711450731E+04  0.00000000000E+00 0. -1.
         24    2    1    2    0    0 -0.60689584377E+02 -0.42235868823E+02 -0.26627094115E+03  0.28798454450E+03  0.81041899691E+02 0.  0.
         23    2    1    2    0    0 -0.34621725367E+02 -0.81843456348E+02 -0.19072828547E+03  0.22954094659E+03  0.91731957713E+02 0.  0.
        -13    1    3    3    0    0 -0.60715253684E+02 -0.24951431621E+01 -0.21315369272E+03  0.22164625981E+03  0.00000000000E+00 0.  1.
         14    1    3    3    0    0  0.25669306829E-01 -0.39740725661E+02 -0.53117248430E+02  0.66338284691E+02  0.00000000000E+00 0. -1.
        -13    1    4    4    0    0 -0.10464981763E+02 -0.60514029283E+02 -0.35357490524E+02  0.70863359500E+02  0.00000000000E+00 0.  1.
         13    1    4    4    0    0 -0.24156743605E+02 -0.21329427064E+02 -0.15537079495E+03  0.15867758709E+03  0.00000000000E+00 0. -1.
         21    1    1    2  503  501  0.31427508840E+02  0.36556005259E+01  0.18878145429E+02  0.36843399706E+02  0.00000000000E+00 0. -1.
          1    1    1    2  501    0  0.63883800904E+02  0.12042372464E+03 -0.66801647064E+03  0.68178370362E+03  0.00000000000E+00 0. -1.
<scales pt_clust_5="13000.00000" pt_clust_6="13000.00000" pt_clust_7="13000.00000" pt_clust_8="13000.00000" pt_clust_9="31.63940" pt_clust_10="13000.00000"></scales>
<clustering>
<clus scale="   31.639">  1  9  2 -1</clus>
<clus scale="   81.042">  5  6 -1 -1</clus>
<clus scale="   91.732">  7  8 -1 -1</clus>
<clus scale="  104.476">  2  5  1 -1</clus>
<clus scale="   93.948">  7 10 -1 -1</clus>
<clus scale="   31.639">  1  5  2 -1</clus>
</clustering>
</event>
<event>
10    4  0.7508634E-005  0.1901701E+03  0.7546771E-02  0.1188872E+00
         21   -1    0    0  501  502  0.00000000000E+00  0.00000000000E+00  0.41335083186E+02  0.41335083186E+02  0.00000000000E+00 0. -1.
          2   -1    0    0  503    0 -0.00000000000E+00 -0.00000000000E+00 -0.70189656123E+03  0.70189656123E+03  0.00000000000E+00 0. -1.
         24    2    1    2    0    0  0.46849581478E+02  0.18472920598E+02 -0.15398457296E+03  0.18123473386E+03  0.81232062443E+02 0.  0.
         23    2    1    2    0    0 -0.62255159125E+02 -0.75687009418E+02 -0.32027881889E+03  0.34950775794E+03  0.99864522214E+02 0.  0.
        -11    1    3    3    0    0  0.81413942255E+01  0.40185557633E+02 -0.11525220645E+03  0.12232837951E+03  0.00000000000E+00 0.  1.
         12    1    3    3    0    0  0.38708187252E+02 -0.21712637036E+02 -0.38732366503E+02  0.58906354346E+02  0.00000000000E+00 0. -1.
        -11    1    4    4    0    0 -0.25670288401E+02 -0.74696726775E+02 -0.10635686842E+03  0.13247772703E+03  0.00000000000E+00 0.  1.
         11    1    4    4    0    0 -0.36584870724E+02 -0.99028264225E+00 -0.21392195046E+03  0.21703003091E+03  0.00000000000E+00 0. -1.
         21    1    1    2  503  502 -0.14863621944E+02  0.21766540468E+02 -0.70562786819E+01  0.27285538479E+02  0.00000000000E+00 0. -1.
          1    1    1    2  501    0  0.30269199592E+02  0.35447548351E+02 -0.17924180751E+03  0.18520361414E+03  0.00000000000E+00 0. -1.
<scales pt_clust_5="13000.00000" pt_clust_6="13000.00000" pt_clust_7="13000.00000" pt_clust_8="13000.00000" pt_clust_9="26.35734" pt_clust_10="13000.00000"></scales>
<clustering>
<clus scale="   26.357">  1  9  2 -1</clus>
<clus scale="   81.232">  5  6 -1 -1</clus>
<clus scale="   94.922">  2  5  1 -1</clus>
<clus scale="   99.865">  7  8 -1 -1</clus>
<clus scale="   64.638">  7 10 -1 -1</clus>
<clus scale="   26.357">  1  5  2 -1</clus>
</clustering>
</event>
<event>
10    4  0.7508634E-005  0.3703077E+03  0.7546771E-02  0.1099185E+00
          2   -1    0    0  503    0 -0.00000000000E+00  0.00000000000E+00  0.11831332286E+04  0.11831332286E+04  0.00000000000E+00 0. -1.
         21   -1    0    0  501  502  0.00000000000E+00 -0.00000000000E+00 -0.17699107786E+03  0.17699107786E+03  0.00000000000E+00 0.  1.
         24    2    1    2    0    0  0.63624129334E+02  0.55038256846E+02  0.18178226864E+03  0.21607515879E+03  0.81033582578E+02 0.  0.
         23    2    1    2    0    0  0.79193157294E+02  0.11532739060E+03  0.37541886468E+03  0.41068960850E+03  0.90303196988E+02 0.  0.
        -13    1    3    3    0    0  0.40342207614E+01  0.45349919183E+02  0.35207631211E+02  0.57554038977E+02  0.00000000000E+00 0.  1.
         14    1    3    3    0    0  0.59589908573E+02  0.96883376628E+01  0.14657463743E+03  0.15852111982E+03  0.00000000000E+00 0. -1.
        -11    1    4    4    0    0  0.68750285414E+02  0.33282577890E+02  0.12031214147E+03  0.14251085264E+03  0.00000000000E+00 0.  1.
         11    1    4    4    0    0  0.10442871879E+02  0.82044812708E+02  0.25510672322E+03  0.26817875586E+03  0.00000000000E+00 0. -1.
         21    1    1    2  503  502 -0.30373598191E+02 -0.69179993983E+01 -0.12357673880E+03  0.12744263240E+03  0.00000000000E+00 0.  1.
          1    1    1    2  501    0 -0.11244368844E+03 -0.16344764805E+03  0.57251775619E+03  0.60591690674E+03  0.00000000000E+00 0. -1.
<scales pt_clust_5="13000.00000" pt_clust_6="13000.00000" pt_clust_7="13000.00000" pt_clust_8="13000.00000" pt_clust_9="31.15147" pt_clust_10="13000.00000"></scales>
<clustering>
<clus scale="   31.151">  2  9  1 -1</clus>
<clus scale="   81.034">  5  6 -1 -1</clus>
<clus scale="   90.303">  7  8 -1 -1</clus>
<clus scale="  110.501">  1  5  2 -1</clus>
<clus scale="  159.031">  7 10 -1 -1</clus>
<clus scale="   31.151">  2  5  1 -1</clus>
</clustering>
</event>
<event>
10    4  0.7508635E-005  0.2847477E+03  0.7546771E-02  0.1111875E+00
         21   -1    0    0  503  502  0.00000000000E+00  0.00000000000E+00  0.50790816516E+03  0.50790816516E+03  0.00000000000E+00 0. -1.
          2   -1    0    0  502    0 -0.00000000000E+00 -0.00000000000E+00 -0.40859646155E+03  0.40859646155E+03  0.00000000000E+00 0. -1.
         24    2    1    2    0    0 -0.22545603086E+03 -0.36381658502E+02 -0.74123801230E+02  0.25315867045E+03  0.80255389775E+02 0.  0.
         23    2    1    2    0    0 -0.35683019768E+02 -0.20988069046E+01 -0.12775040813E+03  0.16365592661E+03  0.95840558469E+02 0.  0.
        -11    1    3    3    0    0 -0.43921250353E+02 -0.41146188360E+01 -0.50845744070E+02  0.67314901848E+02  0.00000000000E+00 0.  1.
         12    1    3    3    0    0 -0.18153478051E+03 -0.32267039666E+02 -0.23278057160E+02  0.18584376860E+03  0.00000000000E+00 0. -1.
        -11    1    4    4    0    0 -0.17620221187E+02  0.46867571647E+02 -0.60663187593E+02  0.78657890867E+02  0.00000000000E+00 0. -1.
         11    1    4    4    0    0 -0.18062798580E+02 -0.48966378552E+02 -0.67087220535E+02  0.84998035742E+02  0.00000000000E+00 0.  1.
         21    1    1    2  503  501  0.12589924217E+03  0.57870989044E+02  0.33189528186E+03  0.35965837773E+03  0.00000000000E+00 0. -1.
          1    1    1    2  501    0  0.13523980846E+03 -0.19390523638E+02 -0.30709368893E+02  0.14003165191E+03  0.00000000000E+00 0. -1.
<scales pt_clust_5="13000.00000" pt_clust_6="13000.00000" pt_clust_7="13000.00000" pt_clust_8="13000.00000" pt_clust_9="138.56288" pt_clust_10="13000.00000"></scales>
<clustering>
<clus scale="   80.255">  5  6 -1 -1</clus>
<clus scale="   95.841">  7  8 -1 -1</clus>
<clus scale="  136.623">  7 10 -1 -1</clus>
<clus scale="  138.563">  1  9  2 -1</clus>
<clus scale="  175.439">  2  5  1 -1</clus>
<clus scale="  138.563">  1  5  2 -1</clus>
</clustering>
</event>
<event>
10    4  0.7508634E-005  0.1413832E+03  0.7546771E-02  0.1218754E+00
          2   -1    0    0  503    0 -0.00000000000E+00  0.00000000000E+00  0.36183709951E+03  0.36183709951E+03  0.00000000000E+00 0. -1.
         21   -1    0    0  501  502  0.00000000000E+00 -0.00000000000E+00 -0.87934807482E+02  0.87934807482E+02  0.00000000000E+00 0. -1.
         24    2    1    2    0    0 -0.49921621657E+02  0.46982948934E+02  0.21144664227E+02  0.11273732346E+03  0.86965748874E+02 0.  0.
         23    2    1    2    0    0  0.52621120059E+02 -0.39332966999E+02  0.17039686458E+03  0.20270889279E+03  0.87975787514E+02 0.  0.
        -11    1    3    3    0    0 -0.17428893794E+02  0.69207552935E+02  0.13313679577E+02  0.72599626625E+02  0.00000000000E+00 0.  1.
         12    1    3    3    0    0 -0.32492727863E+02 -0.22224604002E+02  0.78309846502E+01  0.40137696839E+02  0.00000000000E+00 0. -1.
        -11    1    4    4    0    0  0.10918876474E+02 -0.61560792168E+02  0.95075929553E+02  0.11379097230E+03  0.00000000000E+00 0.  1.
         11    1    4    4    0    0  0.41702243584E+02  0.22227825169E+02  0.75320935028E+02  0.88917920495E+02  0.00000000000E+00 0. -1.
         21    1    1    2  503  502 -0.10885594612E+02  0.20469287531E+02 -0.18271534607E+02  0.29518415930E+02  0.00000000000E+00 0. -1.
          1    1    1    2  501    0  0.81860962095E+01 -0.28119269466E+02  0.10063229783E+03  0.10480727481E+03  0.00000000000E+00 0. -1.
<scales pt_clust_5="13000.00000" pt_clust_6="13000.00000" pt_clust_7="13000.00000" pt_clust_8="13000.00000" pt_clust_9="23.18379" pt_clust_10="13000.00000"></scales>
<clustering>
<clus scale="   23.184">  2  9  1 -1</clus>
<clus scale="   86.966">  5  6 -1 -1</clus>
<clus scale="   87.976">  7  8 -1 -1</clus>
<clus scale="   28.547">  7 10 -1 -1</clus>
<clus scale="  121.203">  1  5  2 -1</clus>
<clus scale="   23.184">  2  5  1 -1</clus>
</clustering>
</event>
<event>
10    4  0.7508634E-005  0.4588586E+03  0.7546771E-02  0.1080626E+00
         21   -1    0    0  501  502  0.00000000000E+00  0.00000000000E+00  0.11041129882E+03  0.11041129882E+03  0.00000000000E+00 0. -1.
          4   -1    0    0  503    0 -0.00000000000E+00 -0.00000000000E+00 -0.86771785008E+03  0.86771785008E+03  0.00000000000E+00 0. -1.
         24    2    1    2    0    0  0.28897334678E+02 -0.21106488776E+02 -0.51458492360E+02  0.10795913049E+03  0.87901408404E+02 0.  0.
         23    2    1    2    0    0 -0.11847020847E+03 -0.29231543993E+02 -0.31177140133E+02  0.15517056933E+03  0.90643356411E+02 0.  0.
        -13    1    3    3    0    0 -0.48549608953E+01  0.29845264601E+02 -0.38382702292E+01  0.30480203129E+02  0.00000000000E+00 0.  1.
         14    1    3    3    0    0  0.33752295573E+02 -0.50951753377E+02 -0.47620222131E+02  0.77478927357E+02  0.00000000000E+00 0. -1.
        -13    1    4    4    0    0 -0.70417012239E+02  0.29304882189E+02 -0.15909541485E+02  0.77913062082E+02  0.00000000000E+00 0. -1.
         13    1    4    4    0    0 -0.48053196228E+02 -0.58536426182E+02 -0.15267598648E+02  0.77257507249E+02  0.00000000000E+00 0.  1.
         21    1    1    2  503  502 -0.18103349876E+02 -0.19381286518E+02  0.16965324358E+01  0.26575247245E+02  0.00000000000E+00 0. -1.
          3    1    1    2  501    0  0.10767622366E+03  0.69719319287E+02 -0.67636745121E+03  0.68842420184E+03  0.00000000000E+00 0. -1.
<scales pt_clust_5="13000.00000" pt_clust_6="13000.00000" pt_clust_7="13000.00000" pt_clust_8="13000.00000" pt_clust_9="26.52104" pt_clust_10="13000.00000"></scales>
<clustering>
<clus scale="   26.521">  1  9  2 -1</clus>
<clus scale="   87.901">  5  6 -1 -1</clus>
<clus scale="   90.643">  7  8 -1 -1</clus>
<clus scale="   94.873">  2  5  1 -1</clus>
<clus scale="  134.599">  7 10 -1 -1</clus>
<clus scale="   26.521">  1  5  2 -1</clus>
</clustering>
</event>
<event>
10    4  0.7508634E-005  0.2634975E+03  0.7546771E-02  0.1147408E+00
         21   -1    0    0  501  502  0.00000000000E+00  0.00000000000E+00  0.19477016087E+03  0.19477016087E+03  0.00000000000E+00 0. -1.
          2   -1    0    0  503    0 -0.00000000000E+00 -0.00000000000E+00 -0.48941555653E+03  0.48941555653E+03  0.00000000000E+00 0. -1.
         24    2    1    2    0    0  0.44739502708E+02  0.15130885712E+02 -0.24530101506E+03  0.26172739573E+03  0.78090171450E+02 0.  0.
         23    2    1    2    0    0  0.99244166140E+01 -0.11309977289E+03 -0.23085855188E+02  0.14764371667E+03  0.91518619362E+02 0.  0.
        -13    1    3    3    0    0  0.28100699460E+02  0.44353385126E+02 -0.18891027122E+03  0.19607132033E+03  0.00000000000E+00 0.  1.
         14    1    3    3    0    0  0.16638803247E+02 -0.29222499413E+02 -0.56390743839E+02  0.65656075394E+02  0.00000000000E+00 0. -1.
        -13    1    4    4    0    0  0.39788033443E+02 -0.63547876252E+02  0.17476309994E+02  0.76985983091E+02  0.00000000000E+00 0. -1.
         13    1    4    4    0    0 -0.29863616829E+02 -0.49551896635E+02 -0.40562165183E+02  0.70657733579E+02  0.00000000000E+00 0.  1.
         21    1    1    2  503  502  0.13495514545E+02  0.31026076705E+02  0.10622191990E+03  0.11148023420E+03  0.00000000000E+00 0. -1.
          1    1    1    2  501    0 -0.68159433866E+02  0.66942810470E+02 -0.13248044531E+03  0.16333437081E+03  0.00000000000E+00 0. -1.
<scales pt_clust_5="13000.00000" pt_clust_6="13000.00000" pt_clust_7="13000.00000" pt_clust_8="13000.00000" pt_clust_9="33.83410" pt_clust_10="13000.00000"></scales>
<clustering>
<clus scale="   33.834">  1  9  2 -1</clus>
<clus scale="   78.090">  5  6 -1 -1</clus>
<clus scale="   91.519">  7  8 -1 -1</clus>
<clus scale="   92.435">  2  5  1 -1</clus>
<clus scale="   91.542">  7 10 -1 -1</clus>
<clus scale="   33.834">  1  5  2 -1</clus>
</clustering>
</event>
<event>
10    4  0.7508634E-005  0.3434615E+03  0.7546771E-02  0.1105046E+00
          2   -1    0    0  502    0 -0.00000000000E+00  0.00000000000E+00  0.46579455056E+03  0.46579455056E+03  0.00000000000E+00 0. -1.
         21   -1    0    0  503  502  0.00000000000E+00 -0.00000000000E+00 -0.25725759258E+03  0.25725759258E+03  0.00000000000E+00 0.  1.
         24    2    1    2    0    0  0.54615227225E+02 -0.69116103106E+02 -0.79623281146E+00  0.11902514702E+03  0.80040570237E+02 0.  0.
         23    2    1    2    0    0 -0.24499887813E+03  0.86731568267E+02  0.24427597611E+03  0.36874666757E+03  0.93576370550E+02 0.  0.
        -13    1    3    3    0    0  0.20491854314E+02  0.51754281429E+01 -0.25970139763E+02  0.33483567746E+02  0.00000000000E+00 0.  1.
         14    1    3    3    0    0  0.34123372911E+02 -0.74291531248E+02  0.25173906951E+02  0.85541579277E+02  0.00000000000E+00 0. -1.
        -11    1    4    4    0    0 -0.19710336373E+03  0.10214546891E+03  0.22121141856E+03  0.31339739073E+03  0.00000000000E+00 0.  1.
         11    1    4    4    0    0 -0.47895514399E+02 -0.15413900644E+02  0.23064557543E+02  0.55349276845E+02  0.00000000000E+00 0. -1.
         21    1    1    2  503  501  0.13648630895E+03 -0.73504502928E+02 -0.22427285272E+02  0.15663463093E+03  0.00000000000E+00 0. -1.
          1    1    1    2  501    0  0.53897341950E+02  0.55889037767E+02 -0.12515500038E+02  0.78645697613E+02  0.00000000000E+00 0. -1.
<scales pt_clust_5="13000.00000" pt_clust_6="13000.00000" pt_clust_7="13000.00000" pt_clust_8="13000.00000" pt_clust_9="168.46126" pt_clust_10="13000.00000"></scales>
<clustering>
<clus scale="   80.041">  5  6 -1 -1</clus>
<clus scale="   93.576">  7  8 -1 -1</clus>
<clus scale="   77.644">  7 10 -1 -1</clus>
<clus scale="  119.023">  1  5  2 -1</clus>
<clus scale="  168.461">  2  9  1 -1</clus>
<clus scale="  168.461">  2  5  1 -1</clus>
</clustering>
</event>
<event>
10    4  0.7508634E-005  0.5549674E+03  0.7546771E-02  0.1031469E+00
          2   -1    0    0  503    0 -0.00000000000E+00  0.00000000000E+00  0.16308454765E+03  0.16308454765E+03  0.00000000000E+00 0. -1.
         21   -1    0    0  501  502  0.00000000000E+00 -0.00000000000E+00 -0.11310295324E+04  0.11310295324E+04  0.00000000000E+00 0. -1.
         24    2    1    2    0    0  0.14948827445E+03  0.12085876836E+03 -0.20197900566E+03  0.29112272734E+03  0.83685946006E+02 0.  0.
         23    2    1    2    0    0 -0.14538628579E+03  0.15629055581E+03 -0.13958576265E+03  0.27059204525E+03  0.90398893173E+02 0.  0.
        -13    1    3    3    0    0  0.44410853007E+02  0.13295060861E+02 -0.10280188026E+02  0.47484363468E+02  0.00000000000E+00 0.  1.
         14    1    3    3    0    0  0.10507742144E+03  0.10756370750E+03 -0.19169881763E+03  0.24363836387E+03  0.00000000000E+00 0. -1.
        -11    1    4    4    0    0 -0.78924616590E+02  0.14236628679E+03 -0.86068769751E+02  0.18413334257E+03  0.00000000000E+00 0. -1.
         11    1    4    4    0    0 -0.66461669204E+02  0.13924269020E+02 -0.53516992895E+02  0.86458702683E+02  0.00000000000E+00 0.  1.
         21    1    1    2  503  502 -0.15487278637E+01  0.33244646160E+02 -0.21229831692E+03  0.21489108968E+03  0.00000000000E+00 0. -1.
          1    1    1    2  501    0 -0.25532607929E+01 -0.31039397033E+03 -0.41408189952E+03  0.51750821778E+03  0.00000000000E+00 0. -1.
<scales pt_clust_5="13000.00000" pt_clust_6="13000.00000" pt_clust_7="13000.00000" pt_clust_8="13000.00000" pt_clust_9="33.28070" pt_clust_10="13000.00000"></scales>
<clustering>
<clus scale="   33.281">  2  9  1 -1</clus>
<clus scale="   83.686">  5  6 -1 -1</clus>
<clus scale="   90.399">  7  8 -1 -1</clus>
<clus scale="  214.644">  1  5  2 -1</clus>
<clus scale="  247.663">  7 10 -1 -1</clus>
<clus scale="   33.281">  2  5  1 -1</clus>
</clustering>
</event>
<event>
10    4  0.7508634E-005  0.8170940E+03  0.7546771E-02  0.9938293E-01
          2   -1    0    0  502    0 -0.00000000000E+00  0.00000000000E+00  0.23228595311E+04  0.23228595311E+04  0.00000000000E+00 0. -1.
         21   -1    0    0  503  502  0.00000000000E+00 -0.00000000000E+00 -0.13326093499E+03  0.13326093499E+03  0.00000000000E+00 0. -1.
         24    2    1    2    0    0 -0.19228765961E+03  0.58660338501E+02  0.46568327163E+03  0.51334969869E+03  0.79065949180E+02 0.  0.
         23    2    1    2    0    0 -0.15503932444E+03 -0.31114582135E+03  0.97253592408E+03  0.10361855298E+04  0.83698352275E+02 0.  0.
        -13    1    3    3    0    0 -0.37090126910E+02 -0.10098986934E+02  0.15085166833E+03  0.15567238962E+03  0.00000000000E+00 0.  1.
         14    1    3    3    0    0 -0.15519753270E+03  0.68759325435E+02  0.31483160330E+03  0.35767730907E+03  0.00000000000E+00 0. -1.
        -11    1    4    4    0    0 -0.12013926506E+02 -0.28650925629E+02  0.18134102330E+03  0.18398308809E+03  0.00000000000E+00 0.  1.
         11    1    4    4    0    0 -0.14302539793E+03 -0.28249489572E+03  0.79119490078E+03  0.85220244167E+03  0.00000000000E+00 0. -1.
         21    1    1    2  503  501  0.46528941022E+01 -0.24819874793E+02 -0.97067508184E+01  0.27053587927E+02  0.00000000000E+00 0. -1.
          1    1    1    2  501    0  0.34267408994E+03  0.27730535765E+03  0.76108615124E+03  0.87953164975E+03  0.00000000000E+00 0. -1.
<scales pt_clust_5="13000.00000" pt_clust_6="13000.00000" pt_clust_7="13000.00000" pt_clust_8="13000.00000" pt_clust_9="25.25224" pt_clust_10="13000.00000"></scales>
<clustering>
<clus scale="   25.252">  2  9  1 -1</clus>
<clus scale="   79.066">  5  6 -1 -1</clus>
<clus scale="   83.698">  7  8 -1 -1</clus>
<clus scale="  213.820">  1  5  2 -1</clus>
<clus scale="  389.013">  7 10 -1 -1</clus>
<clus scale="   25.252">  2  5  1 -1</clus>
</clustering>
</event>
<event>
10    4  0.7508634E-005  0.6859208E+03  0.7546771E-02  0.1006801E+00
          2   -1    0    0  502    0 -0.00000000000E+00  0.00000000000E+00  0.16665469701E+04  0.16665469701E+04  0.00000000000E+00 0. -1.
         21   -1    0    0  503  502  0.00000000000E+00 -0.00000000000E+00 -0.22266541430E+03  0.22266541430E+03  0.00000000000E+00 0. -1.
         24    2    1    2    0    0 -0.19487336422E+03  0.12073639511E+03  0.10082921691E+04  0.10371567841E+04  0.80549310040E+02 0.  0.
         23    2    1    2    0    0 -0.19925765320E+03 -0.10990637092E+02  0.37603721233E+03  0.43576336409E+03  0.93066202015E+02 0.  0.
        -11    1    3    3    0    0 -0.11844363447E+03  0.50576991404E+02  0.40426280713E+03  0.42428215121E+03  0.00000000000E+00 0.  1.
         12    1    3    3    0    0 -0.76429729750E+02  0.70159403704E+02  0.60402936201E+03  0.61287463293E+03  0.00000000000E+00 0. -1.
        -11    1    4    4    0    0 -0.48733471888E+02  0.29754928705E+02  0.57135859848E+02  0.80776317971E+02  0.00000000000E+00 0. -1.
         11    1    4    4    0    0 -0.15052418131E+03 -0.40745565797E+02  0.31890135248E+03  0.35498704611E+03  0.00000000000E+00 0.  1.
         21    1    1    2  503  501  0.44954859036E+02 -0.36941112751E+01 -0.60702210352E+01  0.45513002455E+02  0.00000000000E+00 0. -1.
          1    1    1    2  501    0  0.34917615838E+03 -0.10605164674E+03  0.65622395319E+02  0.37077923368E+03  0.00000000000E+00 0. -1.
<scales pt_clust_5="13000.00000" pt_clust_6="13000.00000" pt_clust_7="13000.00000" pt_clust_8="13000.00000" pt_clust_9="45.10638" pt_clust_10="13000.00000"></scales>
<clustering>
<clus scale="   45.106">  2  9  1 -1</clus>
<clus scale="   80.549">  5  6 -1 -1</clus>
<clus scale="   93.066">  7  8 -1 -1</clus>
<clus scale="  240.213">  1  5  2 -1</clus>
<clus scale="  311.236">  7 10 -1 -1</clus>
<clus scale="   45.106">  2  5  1 -1</clus>
</clustering>
</event>
<event>
10    4  0.7508634E-005  0.2461954E+03  0.7546771E-02  0.1157423E+00
          2   -1    0    0  503    0 -0.00000000000E+00  0.00000000000E+00  0.54530151589E+03  0.54530151589E+03  0.00000000000E+00 0. -1.
         21   -1    0    0  501  502  0.00000000000E+00 -0.00000000000E+00 -0.80987040672E+02  0.80987040672E+02  0.00000000000E+00 0.  1.
         24    2    1    2    0    0 -0.19570574963E+02 -0.61341831049E+02  0.30416793309E+02  0.10583192685E+03  0.78290406725E+02 0.  0.
         23    2    1    2    0    0 -0.25804970983E+02  0.77707932303E+02  0.68824915622E+02  0.13766366609E+03  0.86660237028E+02 0.  0.
        -13    1    3    3    0    0  0.25204883754E+02 -0.88517837664E+01 -0.66259229251E+01  0.27523500786E+02  0.00000000000E+00 0.  1.
         14    1    3    3    0    0 -0.44775458717E+02 -0.52490047283E+02  0.37042716234E+02  0.78308426067E+02  0.00000000000E+00 0. -1.
        -13    1    4    4    0    0 -0.33407052780E+02  0.21220836058E+02 -0.95905148843E+01  0.40722635403E+02  0.00000000000E+00 0.  1.
         13    1    4    4    0    0  0.76020817973E+01  0.56487096246E+02  0.78415430506E+02  0.96941030690E+02  0.00000000000E+00 0. -1.
         21    1    1    2  503  502  0.22294316075E+02  0.37487095712E+02  0.74129683489E+02  0.86008888194E+02  0.00000000000E+00 0.  1.
          1    1    1    2  501    0  0.23081229871E+02 -0.53853196966E+02  0.29094308279E+03  0.29678407542E+03  0.00000000000E+00 0. -1.
<scales pt_clust_5="13000.00000" pt_clust_6="13000.00000" pt_clust_7="13000.00000" pt_clust_8="13000.00000" pt_clust_9="43.61560" pt_clust_10="13000.00000"></scales>
<clustering>
<clus scale="   43.616">  2  9  1 -1</clus>
<clus scale="   78.290">  5  6 -1 -1</clus>
<clus scale="   86.660">  7  8 -1 -1</clus>
<clus scale="   57.608">  7 10 -1 -1</clus>
<clus scale="   89.478">  1  5  2 -1</clus>
<clus scale="   43.616">  2  5  1 -1</clus>
</clustering>
</event>
<event>
10    4  0.7508634E-005  0.3635031E+03  0.7546771E-02  0.1070709E+00
         21   -1    0    0  501  502  0.00000000000E+00  0.00000000000E+00  0.50336612409E+03  0.50336612409E+03  0.00000000000E+00 0. -1.
          2   -1    0    0  503    0 -0.00000000000E+00 -0.00000000000E+00 -0.32539029156E+03  0.32539029156E+03  0.00000000000E+00 0. -1.
         24    2    1    2    0    0 -0.71975669990E+02  0.22979291533E+03  0.23421271230E+03  0.34470079333E+03  0.77315983592E+02 0.  0.
         23    2    1    2    0    0  0.48003206894E+02 -0.42290752094E+01  0.20731714693E+02  0.10608389413E+03  0.92205182340E+02 0.  0.
        -13    1    3    3    0    0  0.16277559417E+02  0.24906336298E+02  0.24998648235E+02  0.38861509775E+02  0.00000000000E+00 0.  1.
         14    1    3    3    0    0 -0.88253229408E+02  0.20488657903E+03  0.20921406406E+03  0.30583928356E+03  0.00000000000E+00 0. -1.
        -11    1    4    4    0    0  0.28970269258E+00 -0.28669655013E+02  0.39915826036E+02  0.49145764969E+02  0.00000000000E+00 0. -1.
         11    1    4    4    0    0  0.47713504201E+02  0.24440579803E+02 -0.19184111343E+02  0.56938129161E+02  0.00000000000E+00 0.  1.
         21    1    1    2  503  502  0.53749507744E+02  0.75130743115E+01  0.79073610307E+02  0.95906682328E+02  0.00000000000E+00 0. -1.
          1    1    1    2  501    0 -0.29777044648E+02 -0.23307691443E+03 -0.15604220477E+03  0.28206504586E+03  0.00000000000E+00 0. -1.
<scales pt_clust_5="13000.00000" pt_clust_6="13000.00000" pt_clust_7="13000.00000" pt_clust_8="13000.00000" pt_clust_9="54.27205" pt_clust_10="13000.00000"></scales>
<clustering>
<clus scale="   54.272">  1  9  2 -1</clus>
<clus scale="   77.316">  5  6 -1 -1</clus>
<clus scale="   92.205">  7  8 -1 -1</clus>
<clus scale="  232.945">  7 10 -1 -1</clus>
<clus scale="  249.816">  2  5  1 -1</clus>
<clus scale="   54.272">  1  5  2 -1</clus>
</clustering>
</event>
<event>
10    4  0.7508634E-005  0.2094192E+03  0.7546771E-02  0.1173768E+00
         -3   -1    0    0    0  501 -0.00000000000E+00  0.00000000000E+00  0.22656395540E+03  0.22656395540E+03  0.00000000000E+00 0.  1.
         21   -1    0    0  501  502  0.00000000000E+00 -0.00000000000E+00 -0.45778942710E+03  0.45778942710E+03  0.00000000000E+00 0. -1.
         24    2    1    2    0    0 -0.59285089588E+02 -0.13204625098E+02 -0.25662209528E+02  0.10298699138E+03  0.79111866514E+02 0.  0.
         23    2    1    2    0    0  0.12228310722E+02  0.17032164319E+02  0.45296582055E+02  0.97627332228E+02  0.83902857208E+02 0.  0.
        -13    1    3    3    0    0 -0.37023847491E+02  0.22500598789E+02  0.13628711197E+02  0.45417881917E+02  0.00000000000E+00 0.  1.
         14    1    3    3    0    0 -0.22261242097E+02 -0.35705223887E+02 -0.39290920724E+02  0.57569109459E+02  0.00000000000E+00 0. -1.
        -11    1    4    4    0    0 -0.57626696120E+01  0.41245143117E+02 -0.18156644846E+01  0.41685331105E+02  0.00000000000E+00 0. -1.
         11    1    4    4    0    0  0.17990980334E+02 -0.24212978798E+02  0.47112246540E+02  0.55942001124E+02  0.00000000000E+00 0.  1.
         21    1    1    2  503  502  0.11246816889E+03 -0.87706258071E+02 -0.32443742561E+03  0.35440248286E+03  0.00000000000E+00 0. -1.
         -4    1    1    2    0  503 -0.65411390020E+02  0.83878718850E+02  0.73577581383E+02  0.12933657604E+03  0.00000000000E+00 0.  1.
<scales pt_clust_5="13000.00000" pt_clust_6="13000.00000" pt_clust_7="13000.00000" pt_clust_8="13000.00000" pt_clust_9="139.59338" pt_clust_10="13000.00000"></scales>
<clustering>
<clus scale="   79.112">  5  6 -1 -1</clus>
<clus scale="   83.903">  7  8 -1 -1</clus>
<clus scale="   99.739">  1  5  2 -1</clus>
<clus scale="  124.022">  7 10 -1 -1</clus>
<clus scale="  139.593">  2  9  1 -1</clus>
<clus scale="  139.593">  2  5  1 -1</clus>
</clustering>
</event>
<event>
10    4  0.7508634E-005  0.3596805E+03  0.7546771E-02  0.1104792E+00
         21   -1    0    0  503  502  0.00000000000E+00  0.00000000000E+00  0.62221763720E+02  0.62221763720E+02  0.00000000000E+00 0. -1.
          2   -1    0    0  502    0 -0.00000000000E+00 -0.00000000000E+00 -0.11384209122E+04  0.11384209122E+04  0.00000000000E+00 0. -1.
         24    2    1    2    0    0  0.57600743726E+02  0.35099199368E+02 -0.24102896550E+03  0.26261286958E+03  0.79503192309E+02 0.  0.
         23    2    1    2    0    0 -0.40866131299E+02 -0.15515681592E+03 -0.42250618370E+03  0.46044410531E+03  0.88054645716E+02 0.  0.
        -11    1    3    3    0    0 -0.90390587199E+01  0.28733637035E+02 -0.12574094106E+03  0.12929853340E+03  0.00000000000E+00 0.  1.
         12    1    3    3    0    0  0.66639802446E+02  0.63655623334E+01 -0.11528802443E+03  0.13331433618E+03  0.00000000000E+00 0. -1.
        -13    1    4    4    0    0 -0.38862443395E+02 -0.11614511742E+03 -0.39256406369E+03  0.41122563382E+03  0.00000000000E+00 0. -1.
         13    1    4    4    0    0 -0.20036879039E+01 -0.39011698500E+02 -0.29942120012E+02  0.49218471491E+02  0.00000000000E+00 0.  1.
         21    1    1    2  503  501  0.26667045739E+02 -0.53512469547E+02 -0.80151881583E+02  0.99995199118E+02  0.00000000000E+00 0. -1.
          1    1    1    2  501    0 -0.43401658167E+02  0.17357008610E+03 -0.33251211774E+03  0.37759050196E+03  0.00000000000E+00 0. -1.
<scales pt_clust_5="13000.00000" pt_clust_6="13000.00000" pt_clust_7="13000.00000" pt_clust_8="13000.00000" pt_clust_9="59.78893" pt_clust_10="13000.00000"></scales>
<clustering>
<clus scale="   59.789">  1  9  2 -1</clus>
<clus scale="   79.503">  5  6 -1 -1</clus>
<clus scale="   88.055">  7  8 -1 -1</clus>
<clus scale="  104.315">  2  5  1 -1</clus>
<clus scale="  159.469">  7 10 -1 -1</clus>
<clus scale="   59.789">  1  5  2 -1</clus>
</clustering>
</event>
<event>
10    4  0.7508634E-005  0.2829706E+03  0.7546771E-02  0.1118382E+00
         21   -1    0    0  503  502  0.00000000000E+00  0.00000000000E+00  0.50459565414E+03  0.50459565414E+03  0.00000000000E+00 0. -1.
          2   -1    0    0  502    0 -0.00000000000E+00 -0.00000000000E+00 -0.17886021461E+03  0.17886021461E+03  0.00000000000E+00 0. -1.
         24    2    1    2    0    0  0.74051071267E+02  0.85633153632E+02 -0.85698790328E+01  0.14025923349E+03  0.82356612337E+02 0.  0.
         23    2    1    2    0    0  0.83730241017E+01 -0.51315474161E+01  0.19308455430E+02  0.93779186594E+02  0.91242967267E+02 0.  0.
        -13    1    3    3    0    0 -0.14198080297E+02  0.32503276744E+02 -0.11267576211E+02  0.37215678912E+02  0.00000000000E+00 0.  1.
         14    1    3    3    0    0  0.88249151564E+02  0.53129876888E+02  0.26976971784E+01  0.10304355458E+03  0.00000000000E+00 0. -1.
        -13    1    4    4    0    0  0.31441084746E+02 -0.38477242176E+02  0.21066760703E+01  0.49734073426E+02  0.00000000000E+00 0.  1.
         13    1    4    4    0    0 -0.23068060644E+02  0.33345694760E+02  0.17201779360E+02  0.44045113169E+02  0.00000000000E+00 0. -1.
         21    1    1    2  503  501  0.77679431203E+02  0.55567916611E+02  0.40514989898E+02  0.10374657486E+03  0.00000000000E+00 0. -1.
          1    1    1    2  501    0 -0.16010352657E+03 -0.13606952283E+03  0.27448187324E+03  0.34567087381E+03  0.00000000000E+00 0. -1.
<scales pt_clust_5="13000.00000" pt_clust_6="13000.00000" pt_clust_7="13000.00000" pt_clust_8="13000.00000" pt_clust_9="95.50862" pt_clust_10="13000.00000"></scales>
<clustering>
<clus scale="   82.357">  5  6 -1 -1</clus>
<clus scale="   91.243">  7  8 -1 -1</clus>
<clus scale="   95.509">  1  9  2 -1</clus>
<clus scale="  141.988">  7 10 -1 -1</clus>
<clus scale="  151.695">  2  5  1 -1</clus>
<clus scale="   95.509">  1  5  2 -1</clus>
</clustering>
</event>
<event>
10    4  0.7508634E-005  0.1238577E+03  0.7546771E-02  0.1258303E+00
         21   -1    0    0  503  502  0.00000000000E+00  0.00000000000E+00  0.26844764783E+03  0.26844764783E+03  0.00000000000E+00 0.  1.
          2   -1    0    0  502    0 -0.00000000000E+00 -0.00000000000E+00 -0.16866092365E+03  0.16866092365E+03  0.00000000000E+00 0. -1.
         24    2    1    2    0    0 -0.45799897985E+01 -0.79393019095E+01 -0.10265075389E+03  0.13055118054E+03  0.80140031480E+02 0.  0.
         23    2    1    2    0    0  0.63655334193E+01  0.25536020541E+02  0.22319094495E+02  0.97876552658E+02  0.91591862195E+02 0.  0.
        -13    1    3    3    0    0  0.21492087482E+02  0.16585195145E+02 -0.87620448936E+02  0.91729611326E+02  0.00000000000E+00 0.  1.
         14    1    3    3    0    0 -0.26072077280E+02 -0.24524497054E+02 -0.15030304954E+02  0.38821569217E+02  0.00000000000E+00 0. -1.
        -13    1    4    4    0    0  0.26440197020E+02  0.29554111397E+02  0.49767266272E+02  0.63634191368E+02  0.00000000000E+00 0.  1.
         13    1    4    4    0    0 -0.20074663600E+02 -0.40180908552E+01 -0.27448171777E+02  0.34242361290E+02  0.00000000000E+00 0. -1.
         21    1    1    2  503  501  0.23903273873E+02 -0.20883989683E+01  0.17687944627E+03  0.17849948579E+03  0.00000000000E+00 0.  1.
          1    1    1    2  501    0 -0.25688817494E+02 -0.15508319664E+02  0.32389373058E+01  0.30181352486E+02  0.00000000000E+00 0. -1.
<scales pt_clust_5="13000.00000" pt_clust_6="13000.00000" pt_clust_7="13000.00000" pt_clust_8="13000.00000" pt_clust_9="23.99433" pt_clust_10="13000.00000"></scales>
<clustering>
<clus scale="   23.994">  1  9  2 -1</clus>
<clus scale="   80.140">  5  6 -1 -1</clus>
<clus scale="   80.570">  2  5  1 -1</clus>
<clus scale="   91.592">  7  8 -1 -1</clus>
<clus scale="   27.800">  7 10 -1 -1</clus>
<clus scale="   23.994">  1  5  2 -1</clus>
</clustering>
</event>
<event>
10    4  0.7508634E-005  0.1877674E+03  0.7546771E-02  0.1195146E+00
         21   -1    0    0  503  502  0.00000000000E+00  0.00000000000E+00  0.40206267484E+03  0.40206267484E+03  0.00000000000E+00 0. -1.
          2   -1    0    0  502    0 -0.00000000000E+00 -0.00000000000E+00 -0.61014788807E+02  0.61014788807E+02  0.00000000000E+00 0. -1.
         24    2    1    2    0    0 -0.96155990460E+01  0.22443094720E+02  0.64656245040E+02  0.10811204575E+03  0.83136226569E+02 0.  0.
         23    2    1    2    0    0 -0.48554679891E+02 -0.26696658850E+02  0.14152037867E+03  0.17610177896E+03  0.88958138696E+02 0.  0.
        -13    1    3    3    0    0 -0.45799060818E+02  0.12780851975E+02  0.25605346763E+02  0.54004980621E+02  0.00000000000E+00 0.  1.
         14    1    3    3    0    0  0.36183461772E+02  0.96622427448E+01  0.39050898277E+02  0.54107065129E+02  0.00000000000E+00 0. -1.
        -11    1    4    4    0    0 -0.44926521510E+02 -0.57154851670E+02  0.85459274417E+02  0.11219784752E+03  0.00000000000E+00 0. -1.
         11    1    4    4    0    0 -0.36281583814E+01  0.30458192820E+02  0.56061104255E+02  0.63903931439E+02  0.00000000000E+00 0.  1.
         21    1    1    2  503  501 -0.17874460238E+02 -0.24081048649E+02  0.65741666692E+02  0.72258978489E+02  0.00000000000E+00 0. -1.
          1    1    1    2  501    0  0.76044739175E+02  0.28334612779E+02  0.69129595633E+02  0.10660466045E+03  0.00000000000E+00 0. -1.
<scales pt_clust_5="13000.00000" pt_clust_6="13000.00000" pt_clust_7="13000.00000" pt_clust_8="13000.00000" pt_clust_9="29.98989" pt_clust_10="13000.00000"></scales>
<clustering>
<clus scale="   29.990">  1  9  2 -1</clus>
<clus scale="   83.136">  5  6 -1 -1</clus>
<clus scale="   85.890">  2  5  1 -1</clus>
<clus scale="   88.958">  7  8 -1 -1</clus>
<clus scale="   71.304">  7 10 -1 -1</clus>
<clus scale="   29.990">  1  5  2 -1</clus>
</clustering>
</event>
<event>
10    4  0.7508634E-005  0.3701663E+03  0.7546771E-02  0.1104027E+00
         21   -1    0    0  503  502  0.00000000000E+00  0.00000000000E+00  0.18963922327E+03  0.18963922327E+03  0.00000000000E+00 0.  1.
          2   -1    0    0  502    0 -0.00000000000E+00 -0.00000000000E+00 -0.80255983018E+03  0.80255983018E+03  0.00000000000E+00 0. -1.
         24    2    1    2    0    0  0.51209923318E+02 -0.15410738454E+02 -0.12652527498E+03  0.16152477721E+03  0.84980358537E+02 0.  0.
         23    2    1    2    0    0  0.92032075333E+02 -0.12221920192E+03 -0.18114996226E+03  0.25363976647E+03  0.90057682063E+02 0.  0.
        -13    1    3    3    0    0  0.22547585474E+02 -0.42058949351E+02 -0.10830987546E+03  0.11835699368E+03  0.00000000000E+00 0.  1.
         14    1    3    3    0    0  0.28662337844E+02  0.26648210897E+02 -0.18215399516E+02  0.43167783522E+02  0.00000000000E+00 0. -1.
        -13    1    4    4    0    0 -0.49456958362E+01 -0.63973155434E+02 -0.59248203179E+02  0.87334839002E+02  0.00000000000E+00 0.  1.
         13    1    4    4    0    0  0.96977771169E+02 -0.58246046485E+02 -0.12190175908E+03  0.16630492746E+03  0.00000000000E+00 0. -1.
         21    1    1    2  503  501 -0.14927583145E+02  0.32282333493E+02  0.11754925826E+03  0.12281209188E+03  0.00000000000E+00 0.  1.
          1    1    1    2  501    0 -0.12831441551E+03  0.10534760688E+03 -0.42279462794E+03  0.45422241790E+03  0.00000000000E+00 0. -1.
<scales pt_clust_5="13000.00000" pt_clust_6="13000.00000" pt_clust_7="13000.00000" pt_clust_8="13000.00000" pt_clust_9="35.56658" pt_clust_10="13000.00000"></scales>
<clustering>
<clus scale="   35.567">  1  9  2 -1</clus>
<clus scale="   84.980">  5  6 -1 -1</clus>
<clus scale="   90.058">  7  8 -1 -1</clus>
<clus scale="   97.601">  2  5  1 -1</clus>
<clus scale="  145.057">  7 10 -1 -1</clus>
<clus scale="   35.567">  1  5  2 -1</clus>
</clustering>
</event>
<event>
10    4  0.7508634E-005  0.4507833E+03  0.7546771E-02  0.1078671E+00
          2   -1    0    0  503    0 -0.00000000000E+00  0.00000000000E+00  0.54016398905E+03  0.54016398905E+03  0.00000000000E+00 0. -1.
         21   -1    0    0  501  502  0.00000000000E+00 -0.00000000000E+00 -0.17597396016E+03  0.17597396016E+03  0.00000000000E+00 0. -1.
         24    2    1    2    0    0 -0.19519910022E+02  0.68643179221E+02  0.10321105152E+03  0.14907133947E+03  0.80478755927E+02 0.  0.
         23    2    1    2    0    0 -0.19341748735E+03  0.61213092136E+02  0.98315114511E+02  0.24382554116E+03  0.92885228749E+02 0.  0.
        -11    1    3    3    0    0 -0.16356258804E+02  0.83286016932E+02  0.10379389327E+03  0.13407930526E+03  0.00000000000E+00 0.  1.
         12    1    3    3    0    0 -0.31636512175E+01 -0.14642837711E+02 -0.58284175439E+00  0.14992034211E+02  0.00000000000E+00 0. -1.
        -13    1    4    4    0    0 -0.17713376289E+03  0.82757597155E+02  0.80290654735E+02  0.21135699440E+03  0.00000000000E+00 0. -1.
         13    1    4    4    0    0 -0.16283724460E+02 -0.21544505019E+02  0.18024459777E+02  0.32468546766E+02  0.00000000000E+00 0.  1.
         21    1    1    2  503  502  0.26178220053E+02 -0.14315909438E+02 -0.21382126591E+02  0.36707489777E+02  0.00000000000E+00 0. -1.
          1    1    1    2  501    0  0.18675917732E+03 -0.11554036192E+03  0.18404598945E+03  0.28653357880E+03  0.00000000000E+00 0. -1.
<scales pt_clust_5="13000.00000" pt_clust_6="13000.00000" pt_clust_7="13000.00000" pt_clust_8="13000.00000" pt_clust_9="29.83696" pt_clust_10="13000.00000"></scales>
<clustering>
<clus scale="   29.837">  2  9  1 -1</clus>
<clus scale="   80.479">  5  6 -1 -1</clus>
<clus scale="   92.885">  7  8 -1 -1</clus>
<clus scale="  105.476">  1  5  2 -1</clus>
<clus scale="  202.337">  7 10 -1 -1</clus>
<clus scale="   29.837">  2  5  1 -1</clus>
</clustering>
</event>
<event>
10    4  0.7508634E-005  0.4293985E+03  0.7546771E-02  0.1081188E+00
         21   -1    0    0  501  502  0.00000000000E+00  0.00000000000E+00  0.69042607483E+02  0.69042607483E+02  0.00000000000E+00 0. -1.
          2   -1    0    0  503    0 -0.00000000000E+00 -0.00000000000E+00 -0.12978972656E+04  0.12978972656E+04  0.00000000000E+00 0. -1.
         24    2    1    2    0    0 -0.55545441846E+02  0.61032548316E+02 -0.20388458816E+03  0.23429363216E+03  0.80711292386E+02 0.  0.
         23    2    1    2    0    0  0.19691323718E+03 -0.10355459768E+03 -0.46906620270E+03  0.52767358922E+03  0.94434827069E+02 0.  0.
        -13    1    3    3    0    0 -0.31052688282E+02 -0.11157457916E+02 -0.30681643383E+02  0.45056870257E+02  0.00000000000E+00 0.  1.
         14    1    3    3    0    0 -0.24492753564E+02  0.72190006231E+02 -0.17320294477E+03  0.18923676190E+03  0.00000000000E+00 0. -1.
        -11    1    4    4    0    0  0.18649313819E+03 -0.58800983653E+02 -0.37113305398E+03  0.41949611444E+03  0.00000000000E+00 0. -1.
         11    1    4    4    0    0  0.10420098988E+02 -0.44753614026E+02 -0.97933148723E+02  0.10817747478E+03  0.00000000000E+00 0.  1.
         21    1    1    2  503  502  0.41447225532E+02  0.22613883803E+02 -0.61905844646E+02  0.77856238326E+02  0.00000000000E+00 0.  1.
          1    1    1    2  501    0 -0.18281502087E+03  0.19908165561E+02 -0.49399802265E+03  0.52711641341E+03  0.00000000000E+00 0. -1.
<scales pt_clust_5="13000.00000" pt_clust_6="13000.00000" pt_clust_7="13000.00000" pt_clust_8="13000.00000" pt_clust_9="47.21504" pt_clust_10="13000.00000"></scales>
<clustering>
<clus scale="   47.215">  1  9  2 -1</clus>
<clus scale="   80.711">  5  6 -1 -1</clus>
<clus scale="   94.435">  7  8 -1 -1</clus>
<clus scale="  114.034">  2  5  1 -1</clus>
<clus scale="  200.215">  7 10 -1 -1</clus>
<clus scale="   47.215">  1  5  2 -1</clus>
</clustering>
</event>
<event>
10    4  0.7508634E-005  0.4242409E+03  0.7546771E-02  0.1083650E+00
         21   -1    0    0  501  502  0.00000000000E+00  0.00000000000E+00  0.12650722331E+03  0.12650722331E+03  0.00000000000E+00 0.  1.
          2   -1    0    0  503    0 -0.00000000000E+00 -0.00000000000E+00 -0.10947135891E+04  0.10947135891E+04  0.00000000000E+00 0. -1.
         24    2    1    2    0    0  0.61992014985E+02 -0.35670150797E+02 -0.10764340902E+03  0.15242910173E+03  0.80821766693E+02 0.  0.
         23    2    1    2    0    0  0.92715455360E+02 -0.49029339081E+02 -0.97042297351E+02  0.16991765440E+03  0.91949823538E+02 0.  0.
        -13    1    3    3    0    0  0.66025873810E+02  0.18244367915E+01 -0.47185062726E+02  0.81173731751E+02  0.00000000000E+00 0.  1.
         14    1    3    3    0    0 -0.40338588249E+01 -0.37494587588E+02 -0.60458346290E+02  0.71255369984E+02  0.00000000000E+00 0. -1.
        -11    1    4    4    0    0  0.42475425798E+02 -0.25458777808E+01  0.92015584134E+01  0.43535180804E+02  0.00000000000E+00 0. -1.
         11    1    4    4    0    0  0.50240029563E+02 -0.46483461301E+02 -0.10624385576E+03  0.12638247360E+03  0.00000000000E+00 0.  1.
         21    1    1    2  503  502 -0.64056452346E+00 -0.24702274549E+02  0.54220091080E+02  0.59585492928E+02  0.00000000000E+00 0.  1.
          1    1    1    2  501    0 -0.15406690582E+03  0.10940176443E+03 -0.81774075049E+03  0.83928856334E+03  0.00000000000E+00 0. -1.
<scales pt_clust_5="13000.00000" pt_clust_6="13000.00000" pt_clust_7="13000.00000" pt_clust_8="13000.00000" pt_clust_9="24.71058" pt_clust_10="13000.00000"></scales>
<clustering>
<clus scale="   24.711">  1  9  2 -1</clus>
<clus scale="   80.822">  5  6 -1 -1</clus>
<clus scale="   91.950">  7  8 -1 -1</clus>
<clus scale="  110.689">  2  5  1 -1</clus>
<clus scale="  122.762">  7 10 -1 -1</clus>
<clus scale="   24.711">  1  5  2 -1</clus>
</clustering>
</event>
<event>
10    4  0.7508634E-005  0.1791021E+03  0.7546771E-02  0.1182225E+00
         21   -1    0    0  503  502  0.00000000000E+00  0.00000000000E+00  0.63198022497E+03  0.63198022497E+03  0.00000000000E+00 0.  1.
          2   -1    0    0  502    0 -0.00000000000E+00 -0.00000000000E+00 -0.30749332571E+03  0.30749332571E+03  0.00000000000E+00 0. -1.
         24    2    1    2    0    0  0.29192787945E+02  0.15007558124E+03  0.14916875267E+02  0.17359691084E+03  0.80860839301E+02 0.  0.
         23    2    1    2    0    0 -0.18460957600E+02 -0.25164615186E+02 -0.62427063652E+02  0.11147767177E+03  0.86925647626E+02 0.  0.
        -11    1    3    3    0    0  0.42247420458E+02  0.65418073972E+02  0.35370947983E+02  0.85530537814E+02  0.00000000000E+00 0.  1.
         12    1    3    3    0    0 -0.13054632513E+02  0.84657507272E+02 -0.20454072717E+02  0.88066373028E+02  0.00000000000E+00 0. -1.
        -13    1    4    4    0    0  0.46004126424E+01 -0.51328293024E+02 -0.55837660546E+02  0.75984220707E+02  0.00000000000E+00 0. -1.
         13    1    4    4    0    0 -0.23061370242E+02  0.26163677837E+02 -0.65894031056E+01  0.35493451068E+02  0.00000000000E+00 0.  1.
         21    1    1    2  503  501 -0.27039211308E+02 -0.62248488297E+02  0.50337613989E+03  0.50793063646E+03  0.00000000000E+00 0.  1.
          1    1    1    2  501    0  0.16307380963E+02 -0.62662477761E+02 -0.13137905224E+03  0.14646833160E+03  0.00000000000E+00 0. -1.
<scales pt_clust_5="13000.00000" pt_clust_6="13000.00000" pt_clust_7="13000.00000" pt_clust_8="13000.00000" pt_clust_9="67.86747" pt_clust_10="13000.00000"></scales>
<clustering>
<clus scale="   67.867">  1  9  2 -1</clus>
<clus scale="   80.861">  5  6 -1 -1</clus>
<clus scale="   86.926">  7  8 -1 -1</clus>
<clus scale="   67.987">  7 10 -1 -1</clus>
<clus scale="  131.753">  2  5  1 -1</clus>
<clus scale="   67.867">  1  5  2 -1</clus>
</clustering>
</event>
<event>
10    4  0.7508634E-005  0.1169414E+03  0.7546771E-02  0.1262559E+00
         21   -1    0    0  503  502  0.00000000000E+00  0.00000000000E+00  0.17596131678E+03  0.17596131678E+03  0.00000000000E+00 0. -1.
          2   -1    0    0  502    0 -0.00000000000E+00 -0.00000000000E+00 -0.68724507089E+03  0.68724507089E+03  0.00000000000E+00 0. -1.
         24    2    1    2    0    0 -0.10267641745E+02 -0.16811796893E+02 -0.41885885191E+03  0.42756481982E+03  0.83551638806E+02 0.  0.
         23    2    1    2    0    0  0.53611657598E+01  0.26622530799E+02 -0.20025398123E+03  0.22064640575E+03  0.88575832643E+02 0.  0.
        -11    1    3    3    0    0  0.26995736448E+02 -0.33791079297E+02 -0.25654186692E+03  0.26016213466E+03  0.00000000000E+00 0.  1.
         12    1    3    3    0    0 -0.37263378193E+02  0.16979282405E+02 -0.16231698498E+03  0.16740268516E+03  0.00000000000E+00 0. -1.
        -13    1    4    4    0    0  0.39645332485E+02  0.22685379486E+02 -0.16542848432E+03  0.17161865357E+03  0.00000000000E+00 0.  1.
         13    1    4    4    0    0 -0.34284166725E+02  0.39371513125E+01 -0.34825496907E+02  0.49027752175E+02  0.00000000000E+00 0. -1.
         21    1    1    2  503  501 -0.20169125279E+02 -0.30553784363E+02  0.15412060970E+03  0.15840924748E+03  0.00000000000E+00 0. -1.
          1    1    1    2  501    0  0.25075601264E+02  0.20743050456E+02 -0.46291530675E+02  0.56585914619E+02  0.00000000000E+00 0. -1.
<scales pt_clust_5="13000.00000" pt_clust_6="13000.00000" pt_clust_7="13000.00000" pt_clust_8="13000.00000" pt_clust_9="36.61048" pt_clust_10="13000.00000"></scales>
<clustering>
<clus scale="   36.610">  1  9  2 -1</clus>
<clus scale="   83.552">  5  6 -1 -1</clus>
<clus scale="   88.051">  2  5  1 -1</clus>
<clus scale="   88.576">  7  8 -1 -1</clus>
<clus scale="   20.344">  7 10 -1 -1</clus>
<clus scale="   36.610">  1  5  2 -1</clus>
</clustering>
</event>
<event>
10    4  0.7508634E-005  0.5918067E+03  0.7546771E-02  0.1021741E+00
         21   -1    0    0  503  502  0.00000000000E+00  0.00000000000E+00  0.23366759875E+03  0.23366759875E+03  0.00000000000E+00 0.  1.
          2   -1    0    0  502    0 -0.00000000000E+00 -0.00000000000E+00 -0.16913032755E+04  0.16913032755E+04  0.00000000000E+00 0. -1.
         24    2    1    2    0    0 -0.12554337234E+02 -0.22477443753E+03 -0.81023593056E+03  0.84437710903E+03  0.76218632451E+02 0.  0.
         23    2    1    2    0    0 -0.87856180653E+01 -0.15273618315E+03 -0.41423982612E+03  0.45484740339E+03  0.10902292466E+03 0.  0.
        -13    1    3    3    0    0  0.20078579084E+02 -0.70432216299E+02 -0.17218760592E+03  0.18711605506E+03  0.00000000000E+00 0.  1.
         14    1    3    3    0    0 -0.32632916318E+02 -0.15434222123E+03 -0.63804832465E+03  0.65726105397E+03  0.00000000000E+00 0. -1.
        -13    1    4    4    0    0 -0.41847762952E+02 -0.10211729261E+03 -0.34839149146E+03  0.36545288073E+03  0.00000000000E+00 0.  1.
         13    1    4    4    0    0  0.33062144887E+02 -0.50618890546E+02 -0.65848334665E+02  0.89394522667E+02  0.00000000000E+00 0. -1.
         21    1    1    2  503  501  0.20328466572E+02  0.61372193919E+01  0.11484986938E+03  0.11679642337E+03  0.00000000000E+00 0.  1.
          1    1    1    2  501    0  0.10114887273E+01  0.37137340129E+03 -0.34800978944E+03  0.50894993844E+03  0.00000000000E+00 0. -1.
<scales pt_clust_5="13000.00000" pt_clust_6="13000.00000" pt_clust_7="13000.00000" pt_clust_8="13000.00000" pt_clust_9="21.23469" pt_clust_10="13000.00000"></scales>
<clustering>
<clus scale="   21.235">  1  9  2 -1</clus>
<clus scale="   76.219">  5  6 -1 -1</clus>
<clus scale="  109.023">  7  8 -1 -1</clus>
<clus scale="  236.699">  2  5  1 -1</clus>
<clus scale="  262.683">  7 10 -1 -1</clus>
<clus scale="   21.235">  1  5  2 -1</clus>
</clustering>
</event>
<event>
10    4  0.7508634E-005  0.9072420E+03  0.7546771E-02  0.9810027E-01
          2   -1    0    0  502    0 -0.00000000000E+00  0.00000000000E+00  0.95731666334E+03  0.95731666334E+03  0.00000000000E+00 0. -1.
         21   -1    0    0  503  502  0.00000000000E+00 -0.00000000000E+00 -0.40807669615E+03  0.40807669615E+03  0.00000000000E+00 0.  1.
         24    2    1    2    0    0 -0.51859443021E+02  0.20332723932E+03  0.10866112876E+03  0.25090980611E+03  0.84363035846E+02 0.  0.
         23    2    1    2    0    0  0.26549067269E+03 -0.27650565543E+03 -0.10353769082E+03  0.40756192386E+03  0.91902086964E+02 0.  0.
        -11    1    3    3    0    0 -0.54230581161E+02  0.20947842556E+03  0.11185430712E+03  0.24358479577E+03  0.00000000000E+00 0.  1.
         12    1    3    3    0    0  0.23711381405E+01 -0.61511862479E+01 -0.31931783585E+01  0.73250103322E+01  0.00000000000E+00 0. -1.
        -11    1    4    4    0    0  0.22541514574E+03 -0.24817003044E+03 -0.57283782645E+02  0.34012024887E+03  0.00000000000E+00 0.  1.
         11    1    4    4    0    0  0.40075526948E+02 -0.28335624992E+02 -0.46253908172E+02  0.67441674987E+02  0.00000000000E+00 0. -1.
         21    1    1    2  503  501  0.45771700599E+02  0.67219536978E+02 -0.21938703663E+02  0.84230763060E+02  0.00000000000E+00 0.  1.
          1    1    1    2  501    0 -0.25940293027E+03  0.59588791350E+01  0.56605523291E+03  0.62269086647E+03  0.00000000000E+00 0. -1.
<scales pt_clust_5="13000.00000" pt_clust_6="13000.00000" pt_clust_7="13000.00000" pt_clust_8="13000.00000" pt_clust_9="81.32352" pt_clust_10="13000.00000"></scales>
<clustering>
<clus scale="   81.324">  2  9  1 -1</clus>
<clus scale="   84.363">  5  6 -1 -1</clus>
<clus scale="   91.902">  7  8 -1 -1</clus>
<clus scale="  236.515">  1  5  2 -1</clus>
<clus scale="  340.163">  7 10 -1 -1</clus>
<clus scale="   81.324">  2  5  1 -1</clus>
</clustering>
</event>
<event>
10    4  0.7508634E-005  0.3185718E+03  0.7546771E-02  0.1112158E+00
         21   -1    0    0  501  502  0.00000000000E+00  0.00000000000E+00  0.52753322467E+03  0.52753322467E+03  0.00000000000E+00 0.  1.
          4   -1    0    0  503    0 -0.00000000000E+00 -0.00000000000E+00 -0.14522637828E+03  0.14522637828E+03  0.00000000000E+00 0. -1.
         24    2    1    2    0    0 -0.39513322638E+02  0.83045664941E+02 -0.21432185051E+02  0.12372151656E+03  0.79936161860E+02 0.  0.
         23    2    1    2    0    0  0.56132304702E+02 -0.40497649732E+02  0.35046991179E+03  0.36811500758E+03  0.88817816198E+02 0.  0.
        -13    1    3    3    0    0 -0.20129521022E+02  0.21029104941E+02  0.29287753298E+02  0.41293987025E+02  0.00000000000E+00 0.  1.
         14    1    3    3    0    0 -0.19383801616E+02  0.62016560000E+02 -0.50719938349E+02  0.82427529537E+02  0.00000000000E+00 0. -1.
        -13    1    4    4    0    0  0.53676809561E+02  0.95164786892E+01  0.24979777813E+03  0.25567693132E+03  0.00000000000E+00 0.  1.
         13    1    4    4    0    0  0.24554951410E+01 -0.50014128421E+02  0.10067213366E+03  0.11243807626E+03  0.00000000000E+00 0. -1.
         21    1    1    2  503  502 -0.12760884824E+02  0.24829618024E+02  0.96712611984E+02  0.10066121115E+03  0.00000000000E+00 0.  1.
          3    1    1    2  501    0 -0.38580972401E+01 -0.67377633233E+02 -0.43443492333E+02  0.80261867662E+02  0.00000000000E+00 0. -1.
<scales pt_clust_5="13000.00000" pt_clust_6="13000.00000" pt_clust_7="13000.00000" pt_clust_8="13000.00000" pt_clust_9="27.91684" pt_clust_10="13000.00000"></scales>
<clustering>
<clus scale="   27.917">  1  9  2 -1</clus>
<clus scale="   79.936">  5  6 -1 -1</clus>
<clus scale="   88.818">  7  8 -1 -1</clus>
<clus scale="   66.458">  7 10 -1 -1</clus>
<clus scale="  124.382">  2  5  1 -1</clus>
<clus scale="   27.917">  1  5  2 -1</clus>
</clustering>
</event>
<event>
10    4  0.7508634E-005  0.2393010E+03  0.7546771E-02  0.1132879E+00
         21   -1    0    0  501  502  0.00000000000E+00  0.00000000000E+00  0.70671529564E+03  0.70671529564E+03  0.00000000000E+00 0.  1.
          2   -1    0    0  503    0 -0.00000000000E+00 -0.00000000000E+00 -0.14240686908E+03  0.14240686908E+03  0.00000000000E+00 0. -1.
         24    2    1    2    0    0  0.97671724634E+02  0.74041205812E+02  0.42652874482E+03  0.45135903493E+03  0.82318541708E+02 0.  0.
         23    2    1    2    0    0 -0.30235805642E+02  0.10123137524E+02  0.40344680308E+02  0.10550468855E+03  0.92124178264E+02 0.  0.
        -11    1    3    3    0    0  0.66801691463E+02  0.40786650333E+02  0.37329239490E+03  0.38140952914E+03  0.00000000000E+00 0.  1.
         12    1    3    3    0    0  0.30870033172E+02  0.33254555480E+02  0.53236349912E+02  0.69949505789E+02  0.00000000000E+00 0. -1.
        -11    1    4    4    0    0 -0.24211458506E+02  0.45515330259E+02  0.46082348833E+02  0.69147833556E+02  0.00000000000E+00 0.  1.
         11    1    4    4    0    0 -0.60243471367E+01 -0.35392192734E+02 -0.57376685255E+01  0.36356854994E+02  0.00000000000E+00 0. -1.
         21    1    1    2  503  502  0.67971253328E+02 -0.47459248504E+02  0.12430669923E+03  0.14941427984E+03  0.00000000000E+00 0. -1.
          1    1    1    2  501    0 -0.13540717232E+03 -0.36705094833E+02 -0.26871697799E+02  0.14284416140E+03  0.00000000000E+00 0. -1.
<scales pt_clust_5="13000.00000" pt_clust_6="13000.00000" pt_clust_7="13000.00000" pt_clust_8="13000.00000" pt_clust_9="82.90037" pt_clust_10="13000.00000"></scales>
<clustering>
<clus scale="   82.319">  5  6 -1 -1</clus>
<clus scale="   82.900">  1  9  2 -1</clus>
<clus scale="   92.124">  7  8 -1 -1</clus>
<clus scale="  135.037">  7 10 -1 -1</clus>
<clus scale="  175.185">  2  5  1 -1</clus>
<clus scale="   82.900">  1  5  2 -1</clus>
</clustering>
</event>
<event>
10    4  0.7508634E-005  0.5358086E+03  0.7546771E-02  0.1037734E+00
          2   -1    0    0  502    0 -0.00000000000E+00  0.00000000000E+00  0.41524340557E+03  0.41524340557E+03  0.00000000000E+00 0. -1.
         21   -1    0    0  503  502  0.00000000000E+00 -0.00000000000E+00 -0.37961616733E+03  0.37961616733E+03  0.00000000000E+00 0.  1.
         24    2    1    2    0    0  0.51522066583E+02  0.18052347064E+03  0.11664974707E+03  0.23312502106E+03  0.74140846743E+02 0.  0.
         23    2    1    2    0    0  0.14175086997E+03  0.27896905718E+02 -0.18719134103E+03  0.25400781862E+03  0.92778377198E+02 0.  0.
        -11    1    3    3    0    0 -0.10583165891E+02  0.43432248365E+02  0.35133553917E+01  0.44840910611E+02  0.00000000000E+00 0.  1.
         12    1    3    3    0    0  0.62105232475E+02  0.13709122228E+03  0.11313639168E+03  0.18828411045E+03  0.00000000000E+00 0. -1.
        -13    1    4    4    0    0  0.70539375947E+02  0.38767121710E+02 -0.39445692831E+02  0.89636242489E+02  0.00000000000E+00 0. -1.
         13    1    4    4    0    0  0.71211494025E+02 -0.10870215991E+02 -0.14774564820E+03  0.16437157613E+03  0.00000000000E+00 0.  1.
         21    1    1    2  503  501 -0.18016075524E+02 -0.19168458747E+02 -0.51307437459E+01  0.26801740978E+02  0.00000000000E+00 0. -1.
          1    1    1    2  501    0 -0.17525686103E+03 -0.18925191761E+03  0.11129957595E+03  0.28092499224E+03  0.00000000000E+00 0. -1.
<scales pt_clust_5="13000.00000" pt_clust_6="13000.00000" pt_clust_7="13000.00000" pt_clust_8="13000.00000" pt_clust_9="26.30606" pt_clust_10="13000.00000"></scales>
<clustering>
<clus scale="   26.306">  2  9  1 -1</clus>
<clus scale="   74.141">  5  6 -1 -1</clus>
<clus scale="   92.778">  7  8 -1 -1</clus>
<clus scale="  198.374">  1  5  2 -1</clus>
<clus scale="  144.849">  7 10 -1 -1</clus>
<clus scale="   26.306">  2  5  1 -1</clus>
</clustering>
</event>
<event>
10    4  0.7508634E-005  0.1778167E+03  0.7546771E-02  0.1193228E+00
         21   -1    0    0  503  502  0.00000000000E+00  0.00000000000E+00  0.93601508211E+02  0.93601508211E+02  0.00000000000E+00 0.  1.
          2   -1    0    0  502    0 -0.00000000000E+00 -0.00000000000E+00 -0.70134385525E+03  0.70134385525E+03  0.00000000000E+00 0. -1.
         24    2    1    2    0    0  0.45459387523E+02  0.57319265093E+02 -0.47945910931E+03  0.49099185759E+03  0.76419321237E+02 0.  0.
         23    2    1    2    0    0 -0.43847932552E+01 -0.45863201194E+00 -0.51874796595E+02  0.10708463515E+03  0.93577175683E+02 0.  0.
        -13    1    3    3    0    0  0.15502503466E+02 -0.15040114047E+02 -0.50236294123E+02  0.54682884813E+02  0.00000000000E+00 0.  1.
         14    1    3    3    0    0  0.29956884057E+02  0.72359379141E+02 -0.42922281519E+03  0.43630897278E+03  0.00000000000E+00 0. -1.
        -11    1    4    4    0    0  0.23823034006E+02  0.32566744923E+02 -0.12326156138E+01  0.40368913355E+02  0.00000000000E+00 0.  1.
         11    1    4    4    0    0 -0.28207827262E+02 -0.33025376935E+02 -0.50642180981E+02  0.66715721798E+02  0.00000000000E+00 0. -1.
         21    1    1    2  503  501 -0.21902332971E+02  0.12286931036E+02  0.47472898469E+02  0.53706209631E+02  0.00000000000E+00 0.  1.
          1    1    1    2  501    0 -0.19172261297E+02 -0.69147564117E+02 -0.12388133960E+03  0.14316266108E+03  0.00000000000E+00 0. -1.
<scales pt_clust_5="13000.00000" pt_clust_6="13000.00000" pt_clust_7="13000.00000" pt_clust_8="13000.00000" pt_clust_9="25.11336" pt_clust_10="13000.00000"></scales>
<clustering>
<clus scale="   25.113">  1  9  2 -1</clus>
<clus scale="   76.419">  5  6 -1 -1</clus>
<clus scale="   93.577">  7  8 -1 -1</clus>
<clus scale="   70.626">  7 10 -1 -1</clus>
<clus scale="  105.476">  2  5  1 -1</clus>
<clus scale="   25.113">  1  5  2 -1</clus>
</clustering>
</event>
<event>
10    4  0.7508634E-005  0.1790603E+03  0.7546771E-02  0.1190484E+00
         21   -1    0    0  501  502  0.00000000000E+00  0.00000000000E+00  0.42065599292E+03  0.42065599292E+03  0.00000000000E+00 0.  1.
          2   -1    0    0  503    0 -0.00000000000E+00 -0.00000000000E+00 -0.22852625859E+03  0.22852625859E+03  0.00000000000E+00 0. -1.
         24    2    1    2    0    0 -0.24622549201E+01  0.77727313827E+02 -0.17094381928E+03  0.20320798393E+03  0.77615058890E+02 0.  0.
         23    2    1    2    0    0  0.21180977495E+01 -0.50740187844E+02  0.33971064522E+02  0.11044370373E+03  0.92003942683E+02 0.  0.
        -13    1    3    3    0    0  0.37030202207E+02  0.46865949680E+02 -0.90976444893E+02  0.10883182733E+03  0.00000000000E+00 0.  1.
         14    1    3    3    0    0 -0.39492457127E+02  0.30861364147E+02 -0.79967374391E+02  0.94376156596E+02  0.00000000000E+00 0. -1.
        -13    1    4    4    0    0  0.44752752334E+02 -0.31247787730E+02  0.32533051214E+02  0.63542367761E+02  0.00000000000E+00 0.  1.
         13    1    4    4    0    0 -0.42634654584E+02 -0.19492400115E+02  0.14380133084E+01  0.46901335973E+02  0.00000000000E+00 0. -1.
         21    1    1    2  503  502 -0.25661683416E+02 -0.38274799251E+01  0.20498317751E+03  0.20661866968E+03  0.00000000000E+00 0.  1.
          1    1    1    2  501    0  0.26005840587E+02 -0.23159646058E+02  0.12411931158E+03  0.12891189417E+03  0.00000000000E+00 0. -1.
<scales pt_clust_5="13000.00000" pt_clust_6="13000.00000" pt_clust_7="13000.00000" pt_clust_8="13000.00000" pt_clust_9="25.94555" pt_clust_10="13000.00000"></scales>
<clustering>
<clus scale="   25.946">  1  9  2 -1</clus>
<clus scale="   77.615">  5  6 -1 -1</clus>
<clus scale="   92.004">  7  8 -1 -1</clus>
<clus scale="   27.650">  7 10 -1 -1</clus>
<clus scale="  109.728">  2  5  1 -1</clus>
<clus scale="   25.946">  1  5  2 -1</clus>
</clustering>
</event>
<event>
10    4  0.7508634E-005  0.4735664E+03  0.7546771E-02  0.1047952E+00
         21   -1    0    0  501  502  0.00000000000E+00  0.00000000000E+00  0.32446606665E+03  0.32446606665E+03  0.00000000000E+00 0.  1.
         -3   -1    0    0    0  501 -0.00000000000E+00 -0.00000000000E+00 -0.59793471143E+03  0.59793471143E+03  0.00000000000E+00 0.  1.
         24    2    1    2    0    0  0.18438520061E+03  0.79424131029E+02 -0.13758004475E+03  0.25616089873E+03  0.79900203561E+02 0.  0.
         23    2    1    2    0    0  0.44685313856E+02  0.96691603119E+02  0.61803862712E+01  0.13864359487E+03  0.88531383340E+02 0.  0.
        -11    1    3    3    0    0  0.19002651372E+03  0.81446487150E+02 -0.14001161476E+03  0.24969352906E+03  0.00000000000E+00 0.  1.
         12    1    3    3    0    0 -0.56413131047E+01 -0.20223561211E+01  0.24315700048E+01  0.64673696751E+01  0.00000000000E+00 0. -1.
        -13    1    4    4    0    0  0.11538038695E+02  0.36801933877E+02  0.45544795930E+02  0.59681128595E+02  0.00000000000E+00 0.  1.
         13    1    4    4    0    0  0.33147275161E+02  0.59889669242E+02 -0.39364409659E+02  0.78962466276E+02  0.00000000000E+00 0. -1.
         21    1    1    2  503  502 -0.49603081647E+02  0.78034538532E+02  0.97909625134E+02  0.13467052241E+03  0.00000000000E+00 0.  1.
         -4    1    1    2    0  503 -0.17946743282E+03 -0.25415027268E+03 -0.23997861144E+03  0.39292576207E+03  0.00000000000E+00 0.  1.
<scales pt_clust_5="13000.00000" pt_clust_6="13000.00000" pt_clust_7="13000.00000" pt_clust_8="13000.00000" pt_clust_9="92.46543" pt_clust_10="13000.00000"></scales>
<clustering>
<clus scale="   79.900">  5  6 -1 -1</clus>
<clus scale="   88.531">  7  8 -1 -1</clus>
<clus scale="   92.465">  1  9  2 -1</clus>
<clus scale="  213.786">  2  5  1 -1</clus>
<clus scale="  164.020">  7 10 -1 -1</clus>
<clus scale="   92.465">  1  5  2 -1</clus>
</clustering>
</event>
<event>
10    4  0.7508634E-005  0.1235800E+03  0.7546771E-02  0.1251011E+00
         21   -1    0    0  501  502  0.00000000000E+00  0.00000000000E+00  0.38493783000E+03  0.38493783000E+03  0.00000000000E+00 0. -1.
         -3   -1    0    0    0  501 -0.00000000000E+00 -0.00000000000E+00 -0.10858837899E+03  0.10858837899E+03  0.00000000000E+00 0.  1.
         24    2    1    2    0    0 -0.51531775115E+02 -0.14985987814E+02  0.24441556122E+03  0.26282292721E+03  0.80354345408E+02 0.  0.
         23    2    1    2    0    0  0.14003809051E+02  0.25026337001E+02 -0.63623963358E+02  0.11355862733E+03  0.89583083877E+02 0.  0.
        -11    1    3    3    0    0 -0.39950144935E+02  0.26586863159E+02  0.17155713314E+03  0.17814242983E+03  0.00000000000E+00 0.  1.
         12    1    3    3    0    0 -0.11581630180E+02 -0.41572850973E+02  0.72858428070E+02  0.84680497380E+02  0.00000000000E+00 0. -1.
        -13    1    4    4    0    0  0.28075220083E+01 -0.31520421212E+02 -0.63057242417E+01  0.32267340941E+02  0.00000000000E+00 0. -1.
         13    1    4    4    0    0  0.11196287043E+02  0.56546758213E+02 -0.57318239117E+02  0.81291286392E+02  0.00000000000E+00 0.  1.
         21    1    1    2  503  502  0.15967229657E+02 -0.17476598666E+02  0.90815043937E+02  0.93849646398E+02  0.00000000000E+00 0.  1.
         -4    1    1    2    0  503  0.21560736407E+02  0.74362494785E+01  0.47428092141E+01  0.23295008048E+02  0.00000000000E+00 0.  1.
<scales pt_clust_5="13000.00000" pt_clust_6="13000.00000" pt_clust_7="13000.00000" pt_clust_8="13000.00000" pt_clust_9="23.67243" pt_clust_10="13000.00000"></scales>
<clustering>
<clus scale="   23.672">  1  9  2 -1</clus>
<clus scale="   80.354">  5  6 -1 -1</clus>
<clus scale="   89.583">  7  8 -1 -1</clus>
<clus scale="   23.281">  7 10 -1 -1</clus>
<clus scale="   93.731">  2  5  1 -1</clus>
<clus scale="   23.672">  1  5  2 -1</clus>
</clustering>
</event>
<event>
10    4  0.7508634E-005  0.1780559E+03  0.7546771E-02  0.1204019E+00
          2   -1    0    0  502    0 -0.00000000000E+00  0.00000000000E+00  0.51548242957E+03  0.51548242957E+03  0.00000000000E+00 0. -1.
         21   -1    0    0  503  502  0.00000000000E+00 -0.00000000000E+00 -0.16828949431E+03  0.16828949431E+03  0.00000000000E+00 0. -1.
         24    2    1    2    0    0  0.43213681403E+01  0.20375877156E+02  0.71128997951E+02  0.10935185819E+03  0.80403009569E+02 0.  0.
         23    2    1    2    0    0  0.10946488701E+03 -0.53849617480E+02  0.33872163833E+03  0.37057983253E+03  0.87833485692E+02 0.  0.
        -13    1    3    3    0    0  0.34136408427E+02 -0.42695330356E+01  0.59893636771E+02  0.69070768190E+02  0.00000000000E+00 0.  1.
         14    1    3    3    0    0 -0.29815040287E+02  0.24645410191E+02  0.11235361179E+02  0.40281090001E+02  0.00000000000E+00 0. -1.
        -13    1    4    4    0    0  0.42526612079E+02  0.23036859311E+02  0.10652884325E+03  0.11699403432E+03  0.00000000000E+00 0.  1.
         13    1    4    4    0    0  0.66938274929E+02 -0.76886476790E+02  0.23219279508E+03  0.25358579820E+03  0.00000000000E+00 0. -1.
         21    1    1    2  503  501 -0.10408017910E+03  0.84979503021E+01 -0.10859581701E+03  0.15065838945E+03  0.00000000000E+00 0. -1.
          1    1    1    2  501    0 -0.97060760518E+01  0.24975790022E+02  0.45938115986E+02  0.53181843705E+02  0.00000000000E+00 0. -1.
<scales pt_clust_5="13000.00000" pt_clust_6="13000.00000" pt_clust_7="13000.00000" pt_clust_8="13000.00000" pt_clust_9="104.30052" pt_clust_10="13000.00000"></scales>
<clustering>
<clus scale="   80.403">  5  6 -1 -1</clus>
<clus scale="   83.057">  1  5  2 -1</clus>
<clus scale="   87.833">  7  8 -1 -1</clus>
<clus scale="   28.857">  7 10 -1 -1</clus>
<clus scale="  104.301">  2  9  1 -1</clus>
<clus scale="  104.301">  2  5  1 -1</clus>
</clustering>
</event>
<event>
10    4  0.7508634E-005  0.7452847E+03  0.7546771E-02  0.9963158E-01
          2   -1    0    0  502    0 -0.00000000000E+00  0.00000000000E+00  0.12657901230E+04  0.12657901230E+04  0.00000000000E+00 0. -1.
         21   -1    0    0  503  502  0.00000000000E+00 -0.00000000000E+00 -0.26138897997E+03  0.26138897997E+03  0.00000000000E+00 0. -1.
         24    2    1    2    0    0 -0.81829123877E+02  0.24189434225E+03  0.48692459143E+03  0.55563915703E+03  0.80190004119E+02 0.  0.
         23    2    1    2    0    0  0.86982908884E+02  0.24191463510E+03  0.33955612710E+03  0.43498752578E+03  0.88470712818E+02 0.  0.
        -11    1    3    3    0    0 -0.35256498583E+02  0.42818570137E+02  0.16695952811E+03  0.17593161929E+03  0.00000000000E+00 0.  1.
         12    1    3    3    0    0 -0.46572625294E+02  0.19907577211E+03  0.31996506332E+03  0.37970753774E+03  0.00000000000E+00 0. -1.
        -11    1    4    4    0    0 -0.18185974933E+02  0.29072669075E+02  0.48209650145E+02  0.59161813178E+02  0.00000000000E+00 0.  1.
         11    1    4    4    0    0  0.10516888382E+03  0.21284196602E+03  0.29134647695E+03  0.37582571261E+03  0.00000000000E+00 0. -1.
         21    1    1    2  503  501 -0.86051258156E+00 -0.52053400835E+02 -0.26966238658E+02  0.58629984204E+02  0.00000000000E+00 0.  1.
          1    1    1    2  501    0 -0.42932724256E+01 -0.43175557651E+03  0.20488666316E+03  0.47792243595E+03  0.00000000000E+00 0. -1.
<scales pt_clust_5="13000.00000" pt_clust_6="13000.00000" pt_clust_7="13000.00000" pt_clust_8="13000.00000" pt_clust_9="52.06051" pt_clust_10="13000.00000"></scales>
<clustering>
<clus scale="   52.061">  2  9  1 -1</clus>
<clus scale="   80.190">  5  6 -1 -1</clus>
<clus scale="   88.471">  7  8 -1 -1</clus>
<clus scale="  260.327">  1  5  2 -1</clus>
<clus scale="  345.416">  7 10 -1 -1</clus>
<clus scale="   52.061">  2  5  1 -1</clus>
</clustering>
</event>
<event>
10    4  0.7508634E-005  0.2933376E+03  0.7546771E-02  0.1136718E+00
         21   -1    0    0  501  502  0.00000000000E+00  0.00000000000E+00  0.27353004192E+03  0.27353004192E+03  0.00000000000E+00 0. -1.
          2   -1    0    0  503    0 -0.00000000000E+00 -0.00000000000E+00 -0.83062305799E+03  0.83062305799E+03  0.00000000000E+00 0. -1.
         24    2    1    2    0    0 -0.20808308604E+01 -0.41624846456E+02 -0.67866544521E+03  0.68419699617E+03  0.76169451530E+02 0.  0.
         23    2    1    2    0    0 -0.77618646863E+02 -0.87636476640E+02  0.35230679148E+02  0.14602737232E+03  0.79862296084E+02 0.  0.
        -13    1    3    3    0    0 -0.24159884382E+02  0.17409450604E+01 -0.80755727590E+02  0.84310251106E+02  0.00000000000E+00 0.  1.
         14    1    3    3    0    0  0.22079053522E+02 -0.43365791517E+02 -0.59790971762E+03  0.59988674506E+03  0.00000000000E+00 0. -1.
        -11    1    4    4    0    0 -0.20167690859E+02  0.95494683919E+01 -0.99414492326E+01  0.24428682199E+02  0.00000000000E+00 0.  1.
         11    1    4    4    0    0 -0.57450956004E+02 -0.97185945032E+02  0.45172128381E+02  0.12159869012E+03  0.00000000000E+00 0. -1.
         21    1    1    2  503  502 -0.11244250305E+02  0.23078565725E+02  0.12601485329E+03  0.12860325272E+03  0.00000000000E+00 0. -1.
          1    1    1    2  501    0  0.90943728028E+02  0.10618275737E+03 -0.39673103297E+02  0.14532547869E+03  0.00000000000E+00 0. -1.
<scales pt_clust_5="13000.00000" pt_clust_6="13000.00000" pt_clust_7="13000.00000" pt_clust_8="13000.00000" pt_clust_9="25.67203" pt_clust_10="13000.00000"></scales>
<clustering>
<clus scale="   25.672">  1  9  2 -1</clus>
<clus scale="   76.169">  5  6 -1 -1</clus>
<clus scale="   79.862">  7  8 -1 -1</clus>
<clus scale="   86.623">  2  5  1 -1</clus>
<clus scale="  122.553">  7 10 -1 -1</clus>
<clus scale="   25.672">  1  5  2 -1</clus>
</clustering>
</event>
<event>
10    4  0.7508634E-005  0.4193142E+03  0.7546771E-02  0.1080451E+00
          2   -1    0    0  503    0 -0.00000000000E+00  0.00000000000E+00  0.15881395088E+04  0.15881395088E+04  0.00000000000E+00 0. -1.
         21   -1    0    0  501  502  0.00000000000E+00 -0.00000000000E+00 -0.75175916281E+02  0.75175916281E+02  0.00000000000E+00 0. -1.
         24    2    1    2    0    0  0.95306101929E+02 -0.29169792727E+02  0.17205431683E+03  0.21420285081E+03  0.79662058003E+02 0.  0.
         23    2    1    2    0    0  0.98373045208E+02 -0.12292107435E+03  0.44994142332E+03  0.48532794442E+03  0.91154169813E+02 0.  0.
        -13    1    3    3    0    0  0.61262460897E+01 -0.23008951429E+02  0.89182755410E+02  0.92306590228E+02  0.00000000000E+00 0.  1.
         14    1    3    3    0    0  0.89179855839E+02 -0.61608412975E+01  0.82871561416E+02  0.12189626058E+03  0.00000000000E+00 0. -1.
        -13    1    4    4    0    0  0.57227204503E+02 -0.11362554598E+03  0.24470199958E+03  0.27579845220E+03  0.00000000000E+00 0. -1.
         13    1    4    4    0    0  0.41145840705E+02 -0.92955283637E+01  0.20523942374E+03  0.20952949222E+03  0.00000000000E+00 0.  1.
         21    1    1    2  503  502 -0.11533190313E+01  0.32636288808E+02 -0.10481405722E+02  0.34297483258E+02  0.00000000000E+00 0. -1.
          1    1    1    2  501    0 -0.19252582811E+03  0.11945457827E+03  0.90144925813E+03  0.92948714662E+03  0.00000000000E+00 0. -1.
<scales pt_clust_5="13000.00000" pt_clust_6="13000.00000" pt_clust_7="13000.00000" pt_clust_8="13000.00000" pt_clust_9="32.65666" pt_clust_10="13000.00000"></scales>
<clustering>
<clus scale="   32.657">  2  9  1 -1</clus>
<clus scale="   79.662">  5  6 -1 -1</clus>
<clus scale="   91.154">  7  8 -1 -1</clus>
<clus scale="  124.909">  1  5  2 -1</clus>
<clus scale="  173.227">  7 10 -1 -1</clus>
<clus scale="   32.657">  2  5  1 -1</clus>
</clustering>
</event>
<event>
10    4  0.7508634E-005  0.5793314E+03  0.7546771E-02  0.1041701E+00
          2   -1    0    0  502    0 -0.00000000000E+00  0.00000000000E+00  0.53004570425E+03  0.53004570425E+03  0.00000000000E+00 0. -1.
         21   -1    0    0  503  502  0.00000000000E+00 -0.00000000000E+00 -0.29321876281E+03  0.29321876281E+03  0.00000000000E+00 0. -1.
         24    2    1    2    0    0 -0.11054164227E+03 -0.16906749669E+02  0.98197589153E+02  0.16787147711E+03  0.77670930549E+02 0.  0.
         23    2    1    2    0    0  0.25238534164E+03  0.85583792334E-01 -0.12229863388E+03  0.29595008449E+03  0.94504648877E+02 0.  0.
        -13    1    3    3    0    0 -0.36914574889E+02 -0.44118349392E+02  0.45236272819E+02  0.73180837457E+02  0.00000000000E+00 0.  1.
         14    1    3    3    0    0 -0.73627067378E+02  0.27211599724E+02  0.52961316335E+02  0.94690639654E+02  0.00000000000E+00 0. -1.
        -13    1    4    4    0    0  0.22297021440E+02 -0.10178673943E+02 -0.48084824995E+02  0.53971408756E+02  0.00000000000E+00 0.  1.
         13    1    4    4    0    0  0.23008832020E+03  0.10264257735E+02 -0.74213808889E+02  0.24197867573E+03  0.00000000000E+00 0. -1.
         21    1    1    2  503  501 -0.31036699578E+02 -0.11606367250E+02 -0.31325069633E+02  0.45598733195E+02  0.00000000000E+00 0.  1.
          1    1    1    2  501    0 -0.11080699979E+03  0.28427533126E+02  0.29225305580E+03  0.31384417227E+03  0.00000000000E+00 0. -1.
<scales pt_clust_5="13000.00000" pt_clust_6="13000.00000" pt_clust_7="13000.00000" pt_clust_8="13000.00000" pt_clust_9="33.13585" pt_clust_10="13000.00000"></scales>
<clustering>
<clus scale="   33.136">  2  9  1 -1</clus>
<clus scale="   77.671">  5  6 -1 -1</clus>
<clus scale="   94.505">  7  8 -1 -1</clus>
<clus scale="  115.550">  7 10 -1 -1</clus>
<clus scale="  139.823">  1  5  2 -1</clus>
<clus scale="   33.136">  2  5  1 -1</clus>
</clustering>
</event>
<event>
10    4  0.7508634E-005  0.2902734E+03  0.7546771E-02  0.1118680E+00
         21   -1    0    0  503  502  0.00000000000E+00  0.00000000000E+00  0.31385881775E+03  0.31385881775E+03  0.00000000000E+00 0.  1.
          2   -1    0    0  502    0 -0.00000000000E+00 -0.00000000000E+00 -0.19770055996E+03  0.19770055996E+03  0.00000000000E+00 0. -1.
         24    2    1    2    0    0 -0.60186328093E+02 -0.91719297201E+02  0.19397680020E+02  0.14472021464E+03  0.92373410504E+02 0.  0.
         23    2    1    2    0    0  0.17183619201E+02 -0.73734663201E+02 -0.39726873470E+02  0.12499778047E+03  0.91181924306E+02 0.  0.
        -11    1    3    3    0    0 -0.68937412662E+02 -0.84203757404E+02 -0.13687922805E+02  0.10968135145E+03  0.00000000000E+00 0.  1.
         12    1    3    3    0    0  0.87510845690E+01 -0.75155397972E+01  0.33085602825E+02  0.35038863193E+02  0.00000000000E+00 0. -1.
        -13    1    4    4    0    0 -0.32103245940E+02 -0.35556468163E+02 -0.40375698667E+02  0.62650441905E+02  0.00000000000E+00 0. -1.
         13    1    4    4    0    0  0.49286865141E+02 -0.38178195038E+02  0.64882519628E+00  0.62347338563E+02  0.00000000000E+00 0.  1.
         21    1    1    2  503  501 -0.61164132864E+01  0.22533358729E+02  0.75234276916E+02  0.78774102281E+02  0.00000000000E+00 0. -1.
          1    1    1    2  501    0  0.49119122178E+02  0.14292060167E+03  0.61253174323E+02  0.16306728032E+03  0.00000000000E+00 0. -1.
<scales pt_clust_5="13000.00000" pt_clust_6="13000.00000" pt_clust_7="13000.00000" pt_clust_8="13000.00000" pt_clust_9="23.34872" pt_clust_10="13000.00000"></scales>
<clustering>
<clus scale="   23.349">  1  9  2 -1</clus>
<clus scale="   91.182">  7  8 -1 -1</clus>
<clus scale="   92.373">  5  6 -1 -1</clus>
<clus scale="  139.485">  2  5  1 -1</clus>
<clus scale="  119.863">  7 10 -1 -1</clus>
<clus scale="   23.349">  1  5  2 -1</clus>
</clustering>
</event>
<event>
10    4  0.7508634E-005  0.1745712E+03  0.7546771E-02  0.1206837E+00
          2   -1    0    0  502    0 -0.00000000000E+00  0.00000000000E+00  0.33389988811E+03  0.33389988811E+03  0.00000000000E+00 0. -1.
         21   -1    0    0  503  502  0.00000000000E+00 -0.00000000000E+00 -0.15628452587E+03  0.15628452587E+03  0.00000000000E+00 0. -1.
         24    2    1    2    0    0 -0.16631323940E+02  0.30407079048E+01  0.20464180559E+03  0.22089768108E+03  0.81435066587E+02 0.  0.
         23    2    1    2    0    0 -0.26285562776E+02  0.19701757869E+02 -0.13970533692E+02  0.97664864741E+02  0.90907424997E+02 0.  0.
        -11    1    3    3    0    0  0.15444993212E+02 -0.32081096876E+02  0.87023659777E+02  0.94025857896E+02  0.00000000000E+00 0.  1.
         12    1    3    3    0    0 -0.32076317152E+02  0.35121804781E+02  0.11761814581E+03  0.12687182318E+03  0.00000000000E+00 0. -1.
        -13    1    4    4    0    0 -0.51698460136E+02  0.36867160665E+02  0.10737279333E+01  0.63506465873E+02  0.00000000000E+00 0. -1.
         13    1    4    4    0    0  0.25412897360E+02 -0.17165402796E+02 -0.15044261625E+02  0.34158398868E+02  0.00000000000E+00 0.  1.
         21    1    1    2  503  501  0.26361687381E+02  0.42139629876E+02 -0.68535981748E+02  0.84663260992E+02  0.00000000000E+00 0. -1.
          1    1    1    2  501    0  0.16555199336E+02 -0.64882095650E+02  0.55480072091E+02  0.86958607166E+02  0.00000000000E+00 0. -1.
<scales pt_clust_5="13000.00000" pt_clust_6="13000.00000" pt_clust_7="13000.00000" pt_clust_8="13000.00000" pt_clust_9="49.70601" pt_clust_10="13000.00000"></scales>
<clustering>
<clus scale="   49.706">  2  9  1 -1</clus>
<clus scale="   81.435">  5  6 -1 -1</clus>
<clus scale="   82.945">  1  5  2 -1</clus>
<clus scale="   90.907">  7  8 -1 -1</clus>
<clus scale="   54.862">  7 10 -1 -1</clus>
<clus scale="   49.706">  2  5  1 -1</clus>
</clustering>
</event>
<event>
10    4  0.7508634E-005  0.6088031E+03  0.7546771E-02  0.1028839E+00
         21   -1    0    0  503  502  0.00000000000E+00  0.00000000000E+00  0.87199570632E+03  0.87199570632E+03  0.00000000000E+00 0.  1.
         -1   -1    0    0    0  501 -0.00000000000E+00 -0.00000000000E+00 -0.31236801582E+03  0.31236801582E+03  0.00000000000E+00 0.  1.
         24    2    1    2    0    0  0.15505740549E+02 -0.15617848236E+03  0.44486552522E+02  0.18132426385E+03  0.79166210993E+02 0.  0.
         23    2    1    2    0    0  0.17140473018E+03 -0.33300115521E+01  0.22664662162E+03  0.29826971400E+03  0.90583997993E+02 0.  0.
        -13    1    3    3    0    0 -0.13231467162E+02 -0.11914263353E+03  0.49117181070E+01  0.11997568013E+03  0.00000000000E+00 0.  1.
         14    1    3    3    0    0  0.28737207711E+02 -0.37035848831E+02  0.39574834415E+02  0.61348583722E+02  0.00000000000E+00 0. -1.
        -13    1    4    4    0    0  0.88612373547E+02  0.40815036430E+02  0.13939470634E+03  0.17014377479E+03  0.00000000000E+00 0.  1.
         13    1    4    4    0    0  0.82792356636E+02 -0.44145047982E+02  0.87251915285E+02  0.12812593921E+03  0.00000000000E+00 0. -1.
         21    1    1    2  503  501  0.15178877922E+03  0.14621144096E+03  0.29880488003E+03  0.36565280704E+03  0.00000000000E+00 0.  1.
         -2    1    1    2    0  502 -0.33869924995E+03  0.13297052950E+02 -0.10310363682E+02  0.33911693725E+03  0.00000000000E+00 0.  1.
<scales pt_clust_5="13000.00000" pt_clust_6="13000.00000" pt_clust_7="13000.00000" pt_clust_8="13000.00000" pt_clust_9="198.16055" pt_clust_10="13000.00000"></scales>
<clustering>
<clus scale="   79.166">  5  6 -1 -1</clus>
<clus scale="   90.584">  7  8 -1 -1</clus>
<clus scale="  175.782">  2  5  1 -1</clus>
<clus scale="  198.161">  1  9  2 -1</clus>
<clus scale="  264.517">  7 10 -1 -1</clus>
<clus scale="  198.161">  1  5  2 -1</clus>
</clustering>
</event>
<event>
10    4  0.7508634E-005  0.1793991E+03  0.7546771E-02  0.1206529E+00
         -1   -1    0    0    0  501 -0.00000000000E+00  0.00000000000E+00  0.70047398530E+03  0.70047398530E+03  0.00000000000E+00 0.  1.
         21   -1    0    0  503  502  0.00000000000E+00 -0.00000000000E+00 -0.90666557579E+02  0.90666557579E+02  0.00000000000E+00 0. -1.
         24    2    1    2    0    0 -0.36358645749E+01 -0.11609913159E+02  0.30892800524E+03  0.31817281571E+03  0.75162614672E+02 0.  0.
         23    2    1    2    0    0 -0.28958035159E+02 -0.26952061378E+02  0.12764303261E+03  0.16174389964E+03  0.91122795633E+02 0.  0.
        -13    1    3    3    0    0  0.23935547841E+01  0.31262779966E+02  0.99764719393E+02  0.10457576082E+03  0.00000000000E+00 0.  1.
         14    1    3    3    0    0 -0.60294193591E+01 -0.42872693125E+02  0.20916328584E+03  0.21359705489E+03  0.00000000000E+00 0. -1.
        -11    1    4    4    0    0  0.25295997515E+02  0.13858112731E+02  0.22470359918E+02  0.36562984747E+02  0.00000000000E+00 0. -1.
         11    1    4    4    0    0 -0.54254032674E+02 -0.40810174109E+02  0.10517267269E+03  0.12518091489E+03  0.00000000000E+00 0.  1.
         21    1    1    2  503  501  0.15660865071E+02 -0.27431892511E+02 -0.60234748586E+02  0.68014677524E+02  0.00000000000E+00 0. -1.
         -2    1    1    2    0  502  0.16933034664E+02  0.65993867048E+02  0.23347113846E+03  0.24320915000E+03  0.00000000000E+00 0.  1.
<scales pt_clust_5="13000.00000" pt_clust_6="13000.00000" pt_clust_7="13000.00000" pt_clust_8="13000.00000" pt_clust_9="31.58752" pt_clust_10="13000.00000"></scales>
<clustering>
<clus scale="   31.588">  2  9  1 -1</clus>
<clus scale="   75.163">  5  6 -1 -1</clus>
<clus scale="   76.934">  1  5  2 -1</clus>
<clus scale="   91.123">  7  8 -1 -1</clus>
<clus scale="   55.217">  7 10 -1 -1</clus>
<clus scale="   31.588">  2  5  1 -1</clus>
</clustering>
</event>
<event>
10    4  0.7508634E-005  0.1861358E+03  0.7546771E-02  0.1188147E+00
          2   -1    0    0  503    0 -0.00000000000E+00  0.00000000000E+00  0.30407102521E+03  0.30407102521E+03  0.00000000000E+00 0. -1.
         21   -1    0    0  501  502  0.00000000000E+00 -0.00000000000E+00 -0.10776703189E+03  0.10776703189E+03  0.00000000000E+00 0.  1.
         24    2    1    2    0    0  0.51930470048E+02  0.43080163674E+02  0.13938706812E+03  0.17344951455E+03  0.78123652745E+02 0.  0.
         23    2    1    2    0    0  0.22337622270E+02  0.37409654874E+00 -0.26000760817E+02  0.95526339491E+02  0.89163516399E+02 0.  0.
        -11    1    3    3    0    0  0.57329975197E+02  0.24222237832E+02  0.14063830580E+03  0.15379393980E+03  0.00000000000E+00 0.  1.
         12    1    3    3    0    0 -0.53995051496E+01  0.18857925842E+02 -0.12512376841E+01  0.19655574748E+02  0.00000000000E+00 0. -1.
        -13    1    4    4    0    0 -0.17308408121E+02  0.24588343426E+02 -0.37107598125E+02  0.47761296703E+02  0.00000000000E+00 0.  1.
         13    1    4    4    0    0  0.39646030391E+02 -0.24214246878E+02  0.11106837308E+02  0.47765042788E+02  0.00000000000E+00 0. -1.
         21    1    1    2  503  502 -0.22504378778E+02  0.20179591887E+02  0.40437725417E+02  0.50486360830E+02  0.00000000000E+00 0.  1.
          1    1    1    2  501    0 -0.51763713540E+02 -0.63633852109E+02  0.42479960606E+02  0.92375842225E+02  0.00000000000E+00 0. -1.
<scales pt_clust_5="13000.00000" pt_clust_6="13000.00000" pt_clust_7="13000.00000" pt_clust_8="13000.00000" pt_clust_9="30.22687" pt_clust_10="13000.00000"></scales>
<clustering>
<clus scale="   30.227">  2  9  1 -1</clus>
<clus scale="   78.124">  5  6 -1 -1</clus>
<clus scale="   89.164">  7  8 -1 -1</clus>
<clus scale="   82.005">  7 10 -1 -1</clus>
<clus scale="  102.868">  1  5  2 -1</clus>
<clus scale="   30.227">  2  5  1 -1</clus>
</clustering>
</event>
<event>
10    4  0.7508634E-005  0.2361596E+03  0.7546771E-02  0.1158696E+00
         21   -1    0    0  503  502  0.00000000000E+00  0.00000000000E+00  0.24799479326E+03  0.24799479326E+03  0.00000000000E+00 0. -1.
          2   -1    0    0  502    0 -0.00000000000E+00 -0.00000000000E+00 -0.34126719114E+03  0.34126719114E+03  0.00000000000E+00 0. -1.
         24    2    1    2    0    0 -0.26326570866E+02 -0.41959207082E+02 -0.68089328153E+02  0.11626587057E+03  0.80174389045E+02 0.  0.
         23    2    1    2    0    0  0.25922983331E+02  0.13799616805E+03 -0.15063751778E+03  0.22498053826E+03  0.90607049241E+02 0.  0.
        -11    1    3    3    0    0  0.22206250695E+01 -0.41681529200E+02  0.74382327727E+00  0.41747267279E+02  0.00000000000E+00 0.  1.
         12    1    3    3    0    0 -0.28547195936E+02 -0.27767788178E+00 -0.68833151430E+02  0.74518603292E+02  0.00000000000E+00 0. -1.
        -13    1    4    4    0    0 -0.23495949113E+02  0.81373951309E+01 -0.41162789820E+02  0.48090041485E+02  0.00000000000E+00 0.  1.
         13    1    4    4    0    0  0.49418932444E+02  0.12985877292E+03 -0.10947472796E+03  0.17689049678E+03  0.00000000000E+00 0. -1.
         21    1    1    2  503  501 -0.91480035986E+01 -0.24693458619E+02  0.16418066966E+03  0.16627911823E+03  0.00000000000E+00 0. -1.
          1    1    1    2  501    0  0.95515911341E+01 -0.71343502347E+02 -0.38726221601E+02  0.81736457348E+02  0.00000000000E+00 0. -1.
<scales pt_clust_5="13000.00000" pt_clust_6="13000.00000" pt_clust_7="13000.00000" pt_clust_8="13000.00000" pt_clust_9="26.33349" pt_clust_10="13000.00000"></scales>
<clustering>
<clus scale="   26.333">  1  9  2 -1</clus>
<clus scale="   80.174">  5  6 -1 -1</clus>
<clus scale="   90.607">  7  8 -1 -1</clus>
<clus scale="   78.090">  7 10 -1 -1</clus>
<clus scale="   98.405">  2  5  1 -1</clus>
<clus scale="   26.333">  1  5  2 -1</clus>
</clustering>
</event>
<event>
10    4  0.7508634E-005  0.1758349E+03  0.7546771E-02  0.1196217E+00
          2   -1    0    0  503    0 -0.00000000000E+00  0.00000000000E+00  0.38292280248E+03  0.38292280248E+03  0.00000000000E+00 0. -1.
         21   -1    0    0  501  502  0.00000000000E+00 -0.00000000000E+00 -0.66040427136E+02  0.66040427136E+02  0.00000000000E+00 0. -1.
         24    2    1    2    0    0 -0.41861555665E+02  0.36920417257E+02  0.74485987717E+02  0.12207633342E+03  0.78987098712E+02 0.  0.
         23    2    1    2    0    0 -0.25201787992E+02 -0.19036976777E+02  0.13832725602E+03  0.16883928845E+03  0.91513599891E+02 0.  0.
        -11    1    3    3    0    0  0.17478740387E+02 -0.10048367057E+02  0.22778592668E+02  0.30419407127E+02  0.00000000000E+00 0.  1.
         12    1    3    3    0    0 -0.59340296052E+02  0.46968784314E+02  0.51707395049E+02  0.91656926298E+02  0.00000000000E+00 0. -1.
        -11    1    4    4    0    0 -0.30814932557E+02 -0.47815396190E+02  0.49871966978E+02  0.75651075812E+02  0.00000000000E+00 0.  1.
         11    1    4    4    0    0  0.56131445653E+01  0.28778419414E+02  0.88455289041E+02  0.93188212641E+02  0.00000000000E+00 0. -1.
         21    1    1    2  503  502 -0.55537332499E+01  0.23329093245E+02 -0.80465818738E+00  0.23994541451E+02  0.00000000000E+00 0.  1.
          1    1    1    2  501    0  0.72617076907E+02 -0.41212533725E+02  0.10487378979E+03  0.13405306628E+03  0.00000000000E+00 0. -1.
<scales pt_clust_5="13000.00000" pt_clust_6="13000.00000" pt_clust_7="13000.00000" pt_clust_8="13000.00000" pt_clust_9="23.98105" pt_clust_10="13000.00000"></scales>
<clustering>
<clus scale="   23.981">  2  9  1 -1</clus>
<clus scale="   78.987">  5  6 -1 -1</clus>
<clus scale="   91.514">  7  8 -1 -1</clus>
<clus scale="   79.195">  7 10 -1 -1</clus>
<clus scale="  102.167">  1  5  2 -1</clus>
<clus scale="   23.981">  2  5  1 -1</clus>
</clustering>
</event>
<event>
10    4  0.7508634E-005  0.1998946E+03  0.7546771E-02  0.1189396E+00
          2   -1    0    0  503    0 -0.00000000000E+00  0.00000000000E+00  0.14441203990E+04  0.14441203990E+04  0.00000000000E+00 0. -1.
         21   -1    0    0  501  502  0.00000000000E+00 -0.00000000000E+00 -0.43851879368E+02  0.43851879368E+02  0.00000000000E+00 0. -1.
         24    2    1    2    0    0 -0.92411452086E+01 -0.34455802263E+01  0.84279620023E+03  0.84660472713E+03  0.79604384900E+02 0.  0.
         23    2    1    2    0    0 -0.40850823870E+02  0.27214614311E+02  0.28016804529E+03  0.29883200322E+03  0.91635187066E+02 0.  0.
        -13    1    3    3    0    0  0.20431808683E+02 -0.15108685044E+02  0.10182460510E+03  0.10494751724E+03  0.00000000000E+00 0.  1.
         14    1    3    3    0    0 -0.29672953892E+02  0.11663104818E+02  0.74097159513E+03  0.74165720990E+03  0.00000000000E+00 0. -1.
        -13    1    4    4    0    0 -0.44547360943E+02  0.52389785235E+02  0.13559356207E+03  0.15203542692E+03  0.00000000000E+00 0. -1.
         13    1    4    4    0    0  0.36965370724E+01 -0.25175170925E+02  0.14457448322E+03  0.14679657630E+03  0.00000000000E+00 0.  1.
         21    1    1    2  503  502 -0.47064356454E+02  0.11677947506E+02  0.20963288110E+01  0.48536817993E+02  0.00000000000E+00 0.  1.
          1    1    1    2  501    0  0.97156325533E+02 -0.35446981591E+02  0.27520794535E+03  0.29399873007E+03  0.00000000000E+00 0. -1.
<scales pt_clust_5="13000.00000" pt_clust_6="13000.00000" pt_clust_7="13000.00000" pt_clust_8="13000.00000" pt_clust_9="48.49153" pt_clust_10="13000.00000"></scales>
<clustering>
<clus scale="   48.492">  2  9  1 -1</clus>
<clus scale="   79.604">  5  6 -1 -1</clus>
<clus scale="   80.790">  1  5  2 -1</clus>
<clus scale="   91.635">  7  8 -1 -1</clus>
<clus scale="   77.517">  7 10 -1 -1</clus>
<clus scale="   48.492">  2  5  1 -1</clus>
</clustering>
</event>
<event>
10    4  0.7508634E-005  0.5004715E+03  0.7546771E-02  0.1050960E+00
          2   -1    0    0  502    0 -0.00000000000E+00  0.00000000000E+00  0.38810741584E+03  0.38810741584E+03  0.00000000000E+00 0. -1.
         21   -1    0    0  503  502  0.00000000000E+00 -0.00000000000E+00 -0.84816044747E+03  0.84816044747E+03  0.00000000000E+00 0. -1.
         24    2    1    2    0    0 -0.19892016717E+02 -0.14967406338E+03  0.11377250858E+03  0.20564467949E+03  0.80916827151E+02 0.  0.
         23    2    1    2    0    0  0.34713491140E+02  0.10388997579E+03 -0.24447945921E+03  0.28196043233E+03  0.87939330700E+02 0.  0.
        -11    1    3    3    0    0 -0.28016524217E+02 -0.99824203935E+02  0.30190593384E+02  0.10798735690E+03  0.00000000000E+00 0.  1.
         12    1    3    3    0    0  0.81245075001E+01 -0.49849859449E+02  0.83581915193E+02  0.97657322596E+02  0.00000000000E+00 0. -1.
        -11    1    4    4    0    0 -0.18774153776E+02  0.54116699174E+02 -0.16171492115E+03  0.17155990704E+03  0.00000000000E+00 0. -1.
         11    1    4    4    0    0  0.53487644916E+02  0.49773276615E+02 -0.82764538063E+02  0.11040052529E+03  0.00000000000E+00 0.  1.
         21    1    1    2  503  501  0.62525781399E+02  0.33691120671E+02 -0.52924035895E+03  0.53398494594E+03  0.00000000000E+00 0. -1.
          1    1    1    2  501    0 -0.77347255821E+02  0.12092966925E+02  0.19989427796E+03  0.21467780554E+03  0.00000000000E+00 0. -1.
<scales pt_clust_5="13000.00000" pt_clust_6="13000.00000" pt_clust_7="13000.00000" pt_clust_8="13000.00000" pt_clust_9="71.02510" pt_clust_10="13000.00000"></scales>
<clustering>
<clus scale="   71.025">  2  9  1 -1</clus>
<clus scale="   80.917">  5  6 -1 -1</clus>
<clus scale="   87.939">  7  8 -1 -1</clus>
<clus scale="   76.972">  7 10 -1 -1</clus>
<clus scale="  166.214">  1  5  2 -1</clus>
<clus scale="   71.025">  2  5  1 -1</clus>
</clustering>
</event>
<event>
10    4  0.7508634E-005  0.4652846E+03  0.7546771E-02  0.1031653E+00
         21   -1    0    0  501  502  0.00000000000E+00  0.00000000000E+00  0.39504254782E+03  0.39504254782E+03  0.00000000000E+00 0.  1.
          2   -1    0    0  503    0 -0.00000000000E+00 -0.00000000000E+00 -0.64540285677E+03  0.64540285677E+03  0.00000000000E+00 0. -1.
         24    2    1    2    0    0  0.34037180410E+03 -0.62796832501E+02 -0.36819734689E+03  0.51386325844E+03  0.93218854929E+02 0.  0.
         23    2    1    2    0    0 -0.16832993407E+03 -0.72289532245E+02  0.14754618495E+03  0.25286485397E+03  0.92790163825E+02 0.  0.
        -13    1    3    3    0    0  0.23595159840E+03 -0.84937385851E+02 -0.24090541789E+03  0.34773975423E+03  0.00000000000E+00 0.  1.
         14    1    3    3    0    0  0.10442020570E+03  0.22140553350E+02 -0.12729192900E+03  0.16612350420E+03  0.00000000000E+00 0. -1.
        -11    1    4    4    0    0 -0.95441596854E+02  0.92971091761E+01  0.71932506749E+02  0.11987418478E+03  0.00000000000E+00 0. -1.
         11    1    4    4    0    0 -0.72888337219E+02 -0.81586641421E+02  0.75613678205E+02  0.13299066919E+03  0.00000000000E+00 0.  1.
         21    1    1    2  503  502  0.23405278229E+02  0.19968448580E+02  0.25847988972E+02  0.40182888417E+02  0.00000000000E+00 0.  1.
          1    1    1    2  501    0 -0.19544714826E+03  0.11511791617E+03 -0.55557135989E+02  0.23353440377E+03  0.00000000000E+00 0. -1.
<scales pt_clust_5="13000.00000" pt_clust_6="13000.00000" pt_clust_7="13000.00000" pt_clust_8="13000.00000" pt_clust_9="30.76599" pt_clust_10="13000.00000"></scales>
<clustering>
<clus scale="   30.766">  1  9  2 -1</clus>
<clus scale="   92.790">  7  8 -1 -1</clus>
<clus scale="   93.219">  5  6 -1 -1</clus>
<clus scale="  224.478">  7 10 -1 -1</clus>
<clus scale="  362.250">  2  5  1 -1</clus>
<clus scale="   30.766">  1  5  2 -1</clus>
</clustering>
</event>
<event>
10    4  0.7508634E-005  0.2308705E+03  0.7546771E-02  0.1148876E+00
          2   -1    0    0  502    0 -0.00000000000E+00  0.00000000000E+00  0.12483320381E+04  0.12483320381E+04  0.00000000000E+00 0. -1.
         21   -1    0    0  503  502  0.00000000000E+00 -0.00000000000E+00 -0.36829639707E+02  0.36829639707E+02  0.00000000000E+00 0. -1.
         24    2    1    2    0    0  0.14161420178E+02 -0.11164988486E+03  0.20822353244E+03  0.24970690302E+03  0.79562901813E+02 0.  0.
         23    2    1    2    0    0 -0.14662371591E+01 -0.33002462658E+02  0.34401179499E+03  0.35658150464E+03  0.87834742367E+02 0.  0.
        -13    1    3    3    0    0 -0.22210797964E+02 -0.11844956960E+02  0.15258135485E+02  0.29435238237E+02  0.00000000000E+00 0.  1.
         14    1    3    3    0    0  0.36372218142E+02 -0.99804927902E+02  0.19296539696E+03  0.22027166479E+03  0.00000000000E+00 0. -1.
        -11    1    4    4    0    0  0.41197512654E+02 -0.25153971389E+02  0.14249819776E+03  0.15045163239E+03  0.00000000000E+00 0.  1.
         11    1    4    4    0    0 -0.42663749813E+02 -0.78484912686E+01  0.20151359723E+03  0.20612987225E+03  0.00000000000E+00 0. -1.
         21    1    1    2  503  501  0.17712374173E+02  0.13874642836E+02  0.47689306774E+02  0.52730483529E+02  0.00000000000E+00 0. -1.
          1    1    1    2  501    0 -0.30407557192E+02  0.13077770468E+03  0.61157776420E+03  0.62614278663E+03  0.00000000000E+00 0. -1.
<scales pt_clust_5="13000.00000" pt_clust_6="13000.00000" pt_clust_7="13000.00000" pt_clust_8="13000.00000" pt_clust_9="22.49964" pt_clust_10="13000.00000"></scales>
<clustering>
<clus scale="   22.500">  2  9  1 -1</clus>
<clus scale="   79.563">  5  6 -1 -1</clus>
<clus scale="   87.835">  7  8 -1 -1</clus>
<clus scale="  132.709">  1  5  2 -1</clus>
<clus scale="   68.294">  7 10 -1 -1</clus>
<clus scale="   22.500">  2  5  1 -1</clus>
</clustering>
</event>
<event>
10    4  0.7508634E-005  0.3507827E+03  0.7546771E-02  0.1115910E+00
         21   -1    0    0  501  502  0.00000000000E+00  0.00000000000E+00  0.10837944792E+03  0.10837944792E+03  0.00000000000E+00 0. -1.
          2   -1    0    0  503    0 -0.00000000000E+00 -0.00000000000E+00 -0.96143000763E+03  0.96143000763E+03  0.00000000000E+00 0. -1.
         24    2    1    2    0    0 -0.19359118985E+02  0.14985388768E+02 -0.55924908567E+03  0.56565644895E+03  0.81291703478E+02 0.  0.
         23    2    1    2    0    0 -0.81703816749E+02 -0.27959966280E+02 -0.25593660100E+03  0.28498609039E+03  0.90863934535E+02 0.  0.
        -11    1    3    3    0    0  0.27113520033E+02 -0.44910228242E+01 -0.10194129492E+03  0.10558096355E+03  0.00000000000E+00 0.  1.
         12    1    3    3    0    0 -0.46472639018E+02  0.19476411592E+02 -0.45730779075E+03  0.46007548540E+03  0.00000000000E+00 0. -1.
        -13    1    4    4    0    0 -0.85306737779E+02  0.11055456438E+02 -0.18223410223E+03  0.20151608035E+03  0.00000000000E+00 0. -1.
         13    1    4    4    0    0  0.36029210306E+01 -0.39015422718E+02 -0.73702498779E+02  0.83470010040E+02  0.00000000000E+00 0.  1.
         21    1    1    2  503  502 -0.13636996988E+02 -0.48863286589E+02 -0.68564870572E+02  0.85292027410E+02  0.00000000000E+00 0.  1.
          1    1    1    2  501    0  0.11469993272E+03  0.61837864101E+02  0.30699997536E+02  0.13387488880E+03  0.00000000000E+00 0. -1.
<scales pt_clust_5="13000.00000" pt_clust_6="13000.00000" pt_clust_7="13000.00000" pt_clust_8="13000.00000" pt_clust_9="50.73057" pt_clust_10="13000.00000"></scales>
<clustering>
<clus scale="   50.731">  1  9  2 -1</clus>
<clus scale="   81.292">  5  6 -1 -1</clus>
<clus scale="   84.737">  2  5  1 -1</clus>
<clus scale="   90.864">  7  8 -1 -1</clus>
<clus scale="  101.602">  7 10 -1 -1</clus>
<clus scale="   50.731">  1  5  2 -1</clus>
</clustering>
</event>
<event>
10    4  0.7508634E-005  0.2065762E+03  0.7546771E-02  0.1167772E+00
         21   -1    0    0  501  502  0.00000000000E+00  0.00000000000E+00  0.36874902914E+03  0.36874902914E+03  0.00000000000E+00 0. -1.
          2   -1    0    0  503    0 -0.00000000000E+00 -0.00000000000E+00 -0.12604262561E+04  0.12604262561E+04  0.00000000000E+00 0. -1.
         24    2    1    2    0    0 -0.77481807935E+02  0.44155868547E+02 -0.10195036481E+04  0.10262141894E+04  0.75991464336E+02 0.  0.
         23    2    1    2    0    0 -0.29445464049E+01 -0.27639231951E+02 -0.11061084659E+03  0.14673551208E+03  0.92325259949E+02 0.  0.
        -13    1    3    3    0    0 -0.21128693297E+02 -0.56580641707E+01 -0.61708825512E+02  0.65470714954E+02  0.00000000000E+00 0.  1.
         14    1    3    3    0    0 -0.56353114638E+02  0.49813932717E+02 -0.95779482261E+03  0.96074347442E+03  0.00000000000E+00 0. -1.
        -11    1    4    4    0    0  0.38775508482E+02 -0.12990532329E+01 -0.20207026961E+02  0.43744160021E+02  0.00000000000E+00 0.  1.
         11    1    4    4    0    0 -0.41720054887E+02 -0.26340178718E+02 -0.90403819632E+02  0.10299135206E+03  0.00000000000E+00 0. -1.
         21    1    1    2  503  502 -0.88452539521E+01  0.87294012809E+02  0.29523410038E+03  0.30799619676E+03  0.00000000000E+00 0. -1.
          1    1    1    2  501    0  0.89271608292E+02 -0.10381064940E+03 -0.56796832579E+02  0.14822938699E+03  0.00000000000E+00 0. -1.
<scales pt_clust_5="13000.00000" pt_clust_6="13000.00000" pt_clust_7="13000.00000" pt_clust_8="13000.00000" pt_clust_9="87.74100" pt_clust_10="13000.00000"></scales>
<clustering>
<clus scale="   75.991">  5  6 -1 -1</clus>
<clus scale="   87.741">  1  9  2 -1</clus>
<clus scale="   92.325">  7  8 -1 -1</clus>
<clus scale="   94.332">  7 10 -1 -1</clus>
<clus scale="  119.168">  2  5  1 -1</clus>
<clus scale="   87.741">  1  5  2 -1</clus>
</clustering>
</event>
<event>
10    4  0.7508634E-005  0.4965319E+03  0.7546771E-02  0.1047090E+00
          2   -1    0    0  503    0 -0.00000000000E+00  0.00000000000E+00  0.94400161474E+03  0.94400161474E+03  0.00000000000E+00 0. -1.
         21   -1    0    0  501  502  0.00000000000E+00 -0.00000000000E+00 -0.42314501551E+03  0.42314501551E+03  0.00000000000E+00 0. -1.
         24    2    1    2    0    0  0.16495972564E+03  0.50836470065E+02  0.16480394911E+03  0.25160195416E+03  0.79668964601E+02 0.  0.
         23    2    1    2    0    0 -0.28256936597E+03 -0.31456168478E+02  0.26373357347E+03  0.39724199203E+03  0.86086382983E+02 0.  0.
        -13    1    3    3    0    0  0.10390466207E+03 -0.91580296791E+01  0.96355918970E+02  0.14200180079E+03  0.00000000000E+00 0.  1.
         14    1    3    3    0    0  0.61055063563E+02  0.59994499744E+02  0.68448030144E+02  0.10960015336E+03  0.00000000000E+00 0. -1.
        -13    1    4    4    0    0 -0.24893688453E+03  0.14158341529E+01  0.20868529595E+03  0.32484016041E+03  0.00000000000E+00 0.  1.
         13    1    4    4    0    0 -0.33632481446E+02 -0.32872002631E+02  0.55048277518E+02  0.72401831627E+02  0.00000000000E+00 0. -1.
         21    1    1    2  503  502  0.32501862453E+03 -0.21126332580E+03 -0.67803161610E+02  0.39353089820E+03  0.00000000000E+00 0. -1.
          1    1    1    2  501    0 -0.20740898419E+03  0.19188302421E+03  0.16012223825E+03  0.32477178585E+03  0.00000000000E+00 0. -1.
<scales pt_clust_5="13000.00000" pt_clust_6="13000.00000" pt_clust_7="13000.00000" pt_clust_8="13000.00000" pt_clust_9="413.16981" pt_clust_10="13000.00000"></scales>
<clustering>
<clus scale="   79.669">  5  6 -1 -1</clus>
<clus scale="   86.086">  7  8 -1 -1</clus>
<clus scale="  190.114">  1  5  2 -1</clus>
<clus scale="  258.754">  7 10 -1 -1</clus>
<clus scale="  413.170">  2  9  1 -1</clus>
<clus scale="  413.170">  2  5  1 -1</clus>
</clustering>
</event>
<event>
10    4  0.7508634E-005  0.2365837E+03  0.7546771E-02  0.1126104E+00
         -1   -1    0    0    0  501 -0.00000000000E+00  0.00000000000E+00  0.13296906918E+04  0.13296906918E+04  0.00000000000E+00 0.  1.
         21   -1    0    0  501  502  0.00000000000E+00 -0.00000000000E+00 -0.13529777772E+03  0.13529777772E+03  0.00000000000E+00 0.  1.
         24    2    1    2    0    0 -0.16998045373E+03  0.10467637065E+03  0.77485101556E+03  0.80389808240E+03  0.77508279279E+02 0.  0.
         23    2    1    2    0    0  0.46243149838E+01  0.51608070561E+02  0.26133679224E+03  0.28179724407E+03  0.91804087877E+02 0.  0.
        -13    1    3    3    0    0 -0.12645020918E+03  0.11016865928E+03  0.55824240551E+03  0.58289053192E+03  0.00000000000E+00 0.  1.
         14    1    3    3    0    0 -0.43530244548E+02 -0.54922886260E+01  0.21660861004E+03  0.22100755048E+03  0.00000000000E+00 0. -1.
        -13    1    4    4    0    0  0.14486580886E+02  0.76021487650E+02  0.17090703685E+03  0.18761221403E+03  0.00000000000E+00 0.  1.
         13    1    4    4    0    0 -0.98622659022E+01 -0.24413417089E+02  0.90429755397E+02  0.94185030041E+02  0.00000000000E+00 0. -1.
         21    1    1    2  503  502  0.19313543842E+03 -0.11773748300E+03  0.13061131246E+02  0.22657008987E+03  0.00000000000E+00 0.  1.
         -2    1    1    2    0  503 -0.27779299674E+02 -0.38546958219E+02  0.14514397499E+03  0.15272305312E+03  0.00000000000E+00 0.  1.
<scales pt_clust_5="13000.00000" pt_clust_6="13000.00000" pt_clust_7="13000.00000" pt_clust_8="13000.00000" pt_clust_9="181.92664" pt_clust_10="13000.00000"></scales>
<clustering>
<clus scale="   77.508">  5  6 -1 -1</clus>
<clus scale="   91.804">  7  8 -1 -1</clus>
<clus scale="   47.514">  7 10 -1 -1</clus>
<clus scale="  214.145">  1  5  2 -1</clus>
<clus scale="  181.927">  2  9  1 -1</clus>
<clus scale="  181.927">  2  5  1 -1</clus>
</clustering>
</event>
<event>
10    4  0.7508634E-005  0.3958783E+03  0.7546771E-02  0.1050702E+00
          2   -1    0    0  503    0 -0.00000000000E+00  0.00000000000E+00  0.46562391812E+03  0.46562391812E+03  0.00000000000E+00 0. -1.
         21   -1    0    0  501  502  0.00000000000E+00 -0.00000000000E+00 -0.35865233298E+03  0.35865233298E+03  0.00000000000E+00 0. -1.
         24    2    1    2    0    0 -0.12577536120E+03  0.30287751328E+03  0.14222459325E+03  0.37174270321E+03  0.10203221516E+03 0.  0.
         23    2    1    2    0    0  0.47151919167E+02 -0.28239997102E+02  0.24535463800E+02  0.11042877074E+03  0.92583602791E+02 0.  0.
        -11    1    3    3    0    0 -0.41374781454E+02  0.16007857046E+02  0.15901999175E+02  0.47127461266E+02  0.00000000000E+00 0.  1.
         12    1    3    3    0    0 -0.84400579743E+02  0.28686965623E+03  0.12632259408E+03  0.32461524195E+03  0.00000000000E+00 0. -1.
        -11    1    4    4    0    0 -0.13974115684E+01 -0.41752610867E+02  0.39874547918E+02  0.57751301673E+02  0.00000000000E+00 0.  1.
         11    1    4    4    0    0  0.48549330736E+02  0.13512613765E+02 -0.15339084118E+02  0.52677469066E+02  0.00000000000E+00 0. -1.
         21    1    1    2  503  502 -0.26768139308E+02 -0.29685628082E+02  0.40785022597E+02  0.57106811020E+02  0.00000000000E+00 0.  1.
          1    1    1    2  501    0  0.10539158134E+03 -0.24495188810E+03 -0.10057349451E+03  0.28499796613E+03  0.00000000000E+00 0. -1.
<scales pt_clust_5="13000.00000" pt_clust_6="13000.00000" pt_clust_7="13000.00000" pt_clust_8="13000.00000" pt_clust_9="39.97213" pt_clust_10="13000.00000"></scales>
<clustering>
<clus scale="   39.972">  2  9  1 -1</clus>
<clus scale="   92.584">  7  8 -1 -1</clus>
<clus scale="  102.032">  5  6 -1 -1</clus>
<clus scale="  276.565">  7 10 -1 -1</clus>
<clus scale="  338.309">  1  5  2 -1</clus>
<clus scale="   39.972">  2  5  1 -1</clus>
</clustering>
</event>
<event>
10    4  0.7508634E-005  0.2934308E+03  0.7546771E-02  0.1134263E+00
          2   -1    0    0  503    0 -0.00000000000E+00  0.00000000000E+00  0.19055229083E+03  0.19055229083E+03  0.00000000000E+00 0. -1.
         21   -1    0    0  501  502  0.00000000000E+00 -0.00000000000E+00 -0.32915893893E+03  0.32915893893E+03  0.00000000000E+00 0.  1.
         24    2    1    2    0    0 -0.43674576483E+02 -0.39863196613E+02 -0.16375661864E+03  0.19250328219E+03  0.82126368669E+02 0.  0.
         23    2    1    2    0    0  0.57633110875E+02  0.12895106666E+03 -0.29313217134E+02  0.17041204200E+03  0.90725113932E+02 0.  0.
        -11    1    3    3    0    0 -0.22815861480E+02  0.23571344499E+02 -0.38683471563E+02  0.50720634743E+02  0.00000000000E+00 0.  1.
         12    1    3    3    0    0 -0.20858715003E+02 -0.63434541112E+02 -0.12507314707E+03  0.14178264744E+03  0.00000000000E+00 0. -1.
        -13    1    4    4    0    0  0.73775427267E+02  0.59184810945E+02 -0.47270399983E+01  0.94699527043E+02  0.00000000000E+00 0.  1.
         13    1    4    4    0    0 -0.16142316392E+02  0.69766255715E+02 -0.24586177135E+02  0.75712514957E+02  0.00000000000E+00 0. -1.
         21    1    1    2  503  502  0.29164610455E+02  0.16092659825E+02  0.10713551226E+02  0.34990404157E+02  0.00000000000E+00 0.  1.
          1    1    1    2  501    0 -0.43123144847E+02 -0.10518052987E+03  0.43749636443E+02  0.12180550141E+03  0.00000000000E+00 0. -1.
<scales pt_clust_5="13000.00000" pt_clust_6="13000.00000" pt_clust_7="13000.00000" pt_clust_8="13000.00000" pt_clust_9="33.30990" pt_clust_10="13000.00000"></scales>
<clustering>
<clus scale="   33.310">  2  9  1 -1</clus>
<clus scale="   82.126">  5  6 -1 -1</clus>
<clus scale="   90.725">  7  8 -1 -1</clus>
<clus scale="   91.866">  1  5  2 -1</clus>
<clus scale="  129.895">  7 10 -1 -1</clus>
<clus scale="   33.310">  2  5  1 -1</clus>
</clustering>
</event>
<event>
10    4  0.7508634E-005  0.2246408E+03  0.7546771E-02  0.1164914E+00
         -1   -1    0    0    0  501 -0.00000000000E+00  0.00000000000E+00  0.85465270536E+03  0.85465270536E+03  0.00000000000E+00 0.  1.
         21   -1    0    0  503  502  0.00000000000E+00 -0.00000000000E+00 -0.47884453826E+02  0.47884453826E+02  0.00000000000E+00 0. -1.
         24    2    1    2    0    0  0.45276245948E+02  0.10785541251E+02  0.22535044185E+03  0.24416332940E+03  0.81649515838E+02 0.  0.
         23    2    1    2    0    0  0.19547114436E+01 -0.88913705758E+02  0.24341074831E+03  0.27514364807E+03  0.92443316209E+02 0.  0.
        -11    1    3    3    0    0 -0.32268482670E+01 -0.25649112232E+02  0.11855823934E+03  0.12134391465E+03  0.00000000000E+00 0.  1.
         12    1    3    3    0    0  0.48503094215E+02  0.36434653482E+02  0.10679220251E+03  0.12281941475E+03  0.00000000000E+00 0. -1.
        -13    1    4    4    0    0  0.34658759184E+02 -0.29987696554E+02  0.16739249429E+03  0.17355327331E+03  0.00000000000E+00 0.  1.
         13    1    4    4    0    0 -0.32704047740E+02 -0.58926009204E+02  0.76018254026E+02  0.10159037476E+03  0.00000000000E+00 0. -1.
         21    1    1    2  503  501  0.26898109343E+02  0.21120572602E+02  0.17852239160E+01  0.34245786568E+02  0.00000000000E+00 0. -1.
         -2    1    1    2    0  502 -0.74129066735E+02  0.57007591906E+02  0.33622183746E+03  0.34898439515E+03  0.00000000000E+00 0.  1.
<scales pt_clust_5="13000.00000" pt_clust_6="13000.00000" pt_clust_7="13000.00000" pt_clust_8="13000.00000" pt_clust_9="34.19922" pt_clust_10="13000.00000"></scales>
<clustering>
<clus scale="   34.199">  2  9  1 -1</clus>
<clus scale="   81.650">  5  6 -1 -1</clus>
<clus scale="   92.443">  7  8 -1 -1</clus>
<clus scale="   92.055">  7 10 -1 -1</clus>
<clus scale="   98.972">  1  5  2 -1</clus>
<clus scale="   34.199">  2  5  1 -1</clus>
</clustering>
</event>
<event>
10    4  0.7508634E-005  0.8842242E+03  0.7546771E-02  0.1009269E+00
          2   -1    0    0  503    0 -0.00000000000E+00  0.00000000000E+00  0.23033247525E+04  0.23033247525E+04  0.00000000000E+00 0. -1.
         21   -1    0    0  501  502  0.00000000000E+00 -0.00000000000E+00 -0.14667243730E+03  0.14667243730E+03  0.00000000000E+00 0. -1.
         24    2    1    2    0    0 -0.66089468105E+02 -0.17617090239E+02  0.15902964284E+03  0.19117986462E+03  0.81124186725E+02 0.  0.
         23    2    1    2    0    0 -0.65315503603E+02  0.34900557561E+03  0.18065836519E+04  0.18435646536E+04  0.94419986876E+02 0.  0.
        -11    1    3    3    0    0 -0.55784527014E+02 -0.13239259457E+02  0.16756428181E+03  0.17710160920E+03  0.00000000000E+00 0.  1.
         12    1    3    3    0    0 -0.10304941091E+02 -0.43778307827E+01 -0.85346389679E+01  0.14078255416E+02  0.00000000000E+00 0. -1.
        -13    1    4    4    0    0 -0.64626794792E+02  0.17391300379E+03  0.75231115603E+03  0.77485123151E+03  0.00000000000E+00 0.  1.
         13    1    4    4    0    0 -0.68870881107E+00  0.17509257182E+03  0.10542724958E+04  0.10687134221E+04  0.00000000000E+00 0. -1.
         21    1    1    2  503  502  0.48600712290E+02 -0.64103260775E+02  0.79001734979E+01  0.80831120358E+02  0.00000000000E+00 0. -1.
          1    1    1    2  501    0  0.82804259418E+02 -0.26728522460E+03  0.18313884701E+03  0.33442155127E+03  0.00000000000E+00 0. -1.
<scales pt_clust_5="13000.00000" pt_clust_6="13000.00000" pt_clust_7="13000.00000" pt_clust_8="13000.00000" pt_clust_9="80.44413" pt_clust_10="13000.00000"></scales>
<clustering>
<clus scale="   80.444">  2  9  1 -1</clus>
<clus scale="   81.124">  5  6 -1 -1</clus>
<clus scale="   94.420">  7  8 -1 -1</clus>
<clus scale="  103.872">  1  5  2 -1</clus>
<clus scale="  333.364">  7 10 -1 -1</clus>
<clus scale="   80.444">  2  5  1 -1</clus>
</clustering>
</event>
<event>
10    4  0.7508634E-005  0.5897319E+03  0.7546771E-02  0.1014011E+00
          2   -1    0    0  503    0 -0.00000000000E+00  0.00000000000E+00  0.16831987474E+04  0.16831987474E+04  0.00000000000E+00 0. -1.
         21   -1    0    0  501  502  0.00000000000E+00 -0.00000000000E+00 -0.14491568551E+03  0.14491568551E+03  0.00000000000E+00 0. -1.
         24    2    1    2    0    0 -0.66595388649E+02 -0.27381775271E+03  0.54142828426E+03  0.61581242289E+03  0.81665449859E+02 0.  0.
         23    2    1    2    0    0  0.25185261735E+03  0.30404365735E+02  0.40024621786E+03  0.48239578052E+03  0.90302202781E+02 0.  0.
        -13    1    3    3    0    0 -0.57976375146E+02 -0.77066854048E+02  0.18096423927E+03  0.20505759182E+03  0.00000000000E+00 0.  1.
         14    1    3    3    0    0 -0.86190135036E+01 -0.19675089866E+03  0.36046404499E+03  0.41075483107E+03  0.00000000000E+00 0. -1.
        -13    1    4    4    0    0  0.14082947207E+03  0.25533556959E+01  0.14243857739E+03  0.20032026397E+03  0.00000000000E+00 0. -1.
         13    1    4    4    0    0  0.11102314528E+03  0.27851010039E+02  0.25780764048E+03  0.28207551655E+03  0.00000000000E+00 0.  1.
         21    1    1    2  503  502 -0.42042221408E+01 -0.30531367948E+02 -0.16086483626E+02  0.34765138688E+02  0.00000000000E+00 0. -1.
          1    1    1    2  501    0 -0.18105300656E+03  0.27394475492E+03  0.61269504342E+03  0.69514109083E+03  0.00000000000E+00 0. -1.
<scales pt_clust_5="13000.00000" pt_clust_6="13000.00000" pt_clust_7="13000.00000" pt_clust_8="13000.00000" pt_clust_9="30.81947" pt_clust_10="13000.00000"></scales>
<clustering>
<clus scale="   30.819">  2  9  1 -1</clus>
<clus scale="   81.665">  5  6 -1 -1</clus>
<clus scale="   90.302">  7  8 -1 -1</clus>
<clus scale="  302.574">  1  5  2 -1</clus>
<clus scale="  242.572">  7 10 -1 -1</clus>
<clus scale="   30.819">  2  5  1 -1</clus>
</clustering>
</event>
<event>
10    4  0.7508634E-005  0.7999830E+03  0.7546771E-02  0.1014921E+00
          2   -1    0    0  503    0 -0.00000000000E+00  0.00000000000E+00  0.21167806296E+04  0.21167806296E+04  0.00000000000E+00 0. -1.
         21   -1    0    0  501  502  0.00000000000E+00 -0.00000000000E+00 -0.11228879422E+03  0.11228879422E+03  0.00000000000E+00 0. -1.
         24    2    1    2    0    0 -0.12528948555E+02  0.85981754532E+02  0.31104487751E+03  0.33260543308E+03  0.79546348909E+02 0.  0.
         23    2    1    2    0    0 -0.26663906576E+03 -0.16479318547E+03  0.14165449058E+04  0.14536143943E+04  0.90233872410E+02 0.  0.
        -11    1    3    3    0    0 -0.10677178576E+02  0.88870176351E+02  0.31494111723E+03  0.32741383250E+03  0.00000000000E+00 0.  1.
         12    1    3    3    0    0 -0.18517699785E+01 -0.28884218193E+01 -0.38962397209E+01  0.51916005838E+01  0.00000000000E+00 0. -1.
        -13    1    4    4    0    0 -0.94815777749E+02 -0.11050752578E+03  0.59841811853E+03  0.61587838860E+03  0.00000000000E+00 0. -1.
         13    1    4    4    0    0 -0.17182328801E+03 -0.54285659696E+02  0.81812678729E+03  0.83773600569E+03  0.00000000000E+00 0.  1.
         21    1    1    2  503  502 -0.24595454465E+02 -0.29270054832E+01  0.15927967794E+01  0.24820168069E+02  0.00000000000E+00 0. -1.
          1    1    1    2  501    0  0.30376346877E+03  0.81738436423E+02  0.27530925530E+03  0.41802942840E+03  0.00000000000E+00 0. -1.
<scales pt_clust_5="13000.00000" pt_clust_6="13000.00000" pt_clust_7="13000.00000" pt_clust_8="13000.00000" pt_clust_9="24.76901" pt_clust_10="13000.00000"></scales>
<clustering>
<clus scale="   24.769">  2  9  1 -1</clus>
<clus scale="   79.546">  5  6 -1 -1</clus>
<clus scale="   90.234">  7  8 -1 -1</clus>
<clus scale="  117.884">  1  5  2 -1</clus>
<clus scale="  299.097">  7 10 -1 -1</clus>
<clus scale="   24.769">  2  5  1 -1</clus>
</clustering>
</event>
<event>
10    4  0.7508634E-005  0.2343176E+03  0.7546771E-02  0.1143452E+00
         21   -1    0    0  501  502  0.00000000000E+00  0.00000000000E+00  0.92536192529E+02  0.92536192529E+02  0.00000000000E+00 0.  1.
          2   -1    0    0  503    0 -0.00000000000E+00 -0.00000000000E+00 -0.16224680140E+04  0.16224680140E+04  0.00000000000E+00 0. -1.
         24    2    1    2    0    0  0.96363136117E+02 -0.43682365049E+02 -0.53959225612E+03  0.55603907436E+03  0.82617469839E+02 0.  0.
         23    2    1    2    0    0  0.96918019653E+01  0.19810146835E+02 -0.30937345553E+03  0.32360565309E+03  0.92316362494E+02 0.  0.
        -11    1    3    3    0    0  0.84309151657E+02 -0.39361641814E+02 -0.25988907269E+03  0.27604293507E+03  0.00000000000E+00 0.  1.
         12    1    3    3    0    0  0.12053984460E+02 -0.43207232355E+01 -0.27970318344E+03  0.27999613929E+03  0.00000000000E+00 0. -1.
        -13    1    4    4    0    0 -0.27062568065E+02  0.41583581976E+02 -0.12824638994E+03  0.13750895757E+03  0.00000000000E+00 0. -1.
         13    1    4    4    0    0  0.36754370031E+02 -0.21773435140E+02 -0.18112706559E+03  0.18609669552E+03  0.00000000000E+00 0.  1.
         21    1    1    2  503  502  0.38408398079E+02  0.18374220588E+01  0.64832922223E+02  0.75378305678E+02  0.00000000000E+00 0.  1.
          1    1    1    2  501    0 -0.14446333616E+03  0.22034796155E+02 -0.74579903206E+03  0.75998117342E+03  0.00000000000E+00 0. -1.
<scales pt_clust_5="13000.00000" pt_clust_6="13000.00000" pt_clust_7="13000.00000" pt_clust_8="13000.00000" pt_clust_9="38.45232" pt_clust_10="13000.00000"></scales>
<clustering>
<clus scale="   38.452">  1  9  2 -1</clus>
<clus scale="   82.617">  5  6 -1 -1</clus>
<clus scale="   92.316">  7  8 -1 -1</clus>
<clus scale="  134.240">  7 10 -1 -1</clus>
<clus scale="  144.476">  2  5  1 -1</clus>
<clus scale="   38.452">  1  5  2 -1</clus>
</clustering>
</event>
<event>
10    4  0.7508634E-005  0.4896048E+03  0.7546771E-02  0.1053671E+00
          2   -1    0    0  503    0 -0.00000000000E+00  0.00000000000E+00  0.71362165292E+03  0.71362165292E+03  0.00000000000E+00 0. -1.
         21   -1    0    0  501  502  0.00000000000E+00 -0.00000000000E+00 -0.34308484759E+03  0.34308484759E+03  0.00000000000E+00 0. -1.
         24    2    1    2    0    0  0.14304790419E+03 -0.35316074599E+02  0.16940199039E+03  0.23604050610E+03  0.72857107774E+02 0.  0.
         23    2    1    2    0    0  0.14686710788E+02  0.12666800860E+03  0.16384698888E+03  0.22592310684E+03  0.89078227212E+02 0.  0.
        -11    1    3    3    0    0  0.69964716319E+02 -0.38760909375E+02  0.45149987499E+02  0.91847651012E+02  0.00000000000E+00 0.  1.
         12    1    3    3    0    0  0.73083187872E+02  0.34448347761E+01  0.12425200289E+03  0.14419285508E+03  0.00000000000E+00 0. -1.
        -11    1    4    4    0    0 -0.22848425385E+02  0.15086816713E+02  0.70661144775E+02  0.75780340208E+02  0.00000000000E+00 0.  1.
         11    1    4    4    0    0  0.37535136173E+02  0.11158119189E+03  0.93185844100E+02  0.15014276663E+03  0.00000000000E+00 0. -1.
         21    1    1    2  503  502  0.20956506911E+03 -0.23148177420E+02 -0.36421326883E+02  0.21396230827E+03  0.00000000000E+00 0. -1.
          1    1    1    2  501    0 -0.36729968409E+03 -0.68203756585E+02  0.73709152953E+02  0.38078057930E+03  0.00000000000E+00 0. -1.
<scales pt_clust_5="13000.00000" pt_clust_6="13000.00000" pt_clust_7="13000.00000" pt_clust_8="13000.00000" pt_clust_9="236.24214" pt_clust_10="13000.00000"></scales>
<clustering>
<clus scale="   72.857">  5  6 -1 -1</clus>
<clus scale="   89.078">  7  8 -1 -1</clus>
<clus scale="  164.372">  1  5  2 -1</clus>
<clus scale="  236.242">  2  9  1 -1</clus>
<clus scale="  177.967">  7 10 -1 -1</clus>
<clus scale="  236.242">  2  5  1 -1</clus>
</clustering>
</event>
<event>
10    4  0.7508634E-005  0.1380165E+03  0.7546771E-02  0.1233641E+00
         21   -1    0    0  501  502  0.00000000000E+00  0.00000000000E+00  0.26133910509E+02  0.26133910509E+02  0.00000000000E+00 0. -1.
          2   -1    0    0  503    0 -0.00000000000E+00 -0.00000000000E+00 -0.98894231889E+03  0.98894231889E+03  0.00000000000E+00 0. -1.
         24    2    1    2    0    0  0.48110262100E+01  0.50436433842E+02 -0.39441794243E+03  0.40509563993E+03  0.77265673783E+02 0.  0.
         23    2    1    2    0    0 -0.10244175218E+02 -0.55689791053E+02 -0.42079834254E+03  0.43535294139E+03  0.96201052664E+02 0.  0.
        -13    1    3    3    0    0 -0.26305295954E+02 -0.68075971638E+01 -0.12335146746E+03  0.12630873485E+03  0.00000000000E+00 0.  1.
         14    1    3    3    0    0  0.31116322164E+02  0.57244031006E+02 -0.27106647497E+03  0.27878690508E+03  0.00000000000E+00 0. -1.
        -13    1    4    4    0    0 -0.13989859798E+02 -0.81966947944E+02 -0.28048212040E+03  0.29254831498E+03  0.00000000000E+00 0. -1.
         13    1    4    4    0    0  0.37456845802E+01  0.26277156891E+02 -0.14031622214E+03  0.14280462641E+03  0.00000000000E+00 0.  1.
         21    1    1    2  503  502  0.39163263908E+02  0.73857814805E+01 -0.24054534399E+02  0.46550312922E+02  0.00000000000E+00 0. -1.
          1    1    1    2  501    0 -0.33730114900E+02 -0.21324242699E+01 -0.12353758901E+03  0.12807733516E+03  0.00000000000E+00 0. -1.
<scales pt_clust_5="13000.00000" pt_clust_6="13000.00000" pt_clust_7="13000.00000" pt_clust_8="13000.00000" pt_clust_9="39.85362" pt_clust_10="13000.00000"></scales>
<clustering>
<clus scale="   39.854">  1  9  2 -1</clus>
<clus scale="   77.266">  5  6 -1 -1</clus>
<clus scale="   95.622">  2  5  1 -1</clus>
<clus scale="   96.201">  7  8 -1 -1</clus>
<clus scale="   25.823">  7 10 -1 -1</clus>
<clus scale="   39.854">  1  5  2 -1</clus>
</clustering>
</event>
<event>
10    4  0.7508634E-005  0.1339351E+03  0.7546771E-02  0.1242437E+00
          2   -1    0    0  502    0 -0.00000000000E+00  0.00000000000E+00  0.52102463659E+03  0.52102463659E+03  0.00000000000E+00 0. -1.
         21   -1    0    0  503  502  0.00000000000E+00 -0.00000000000E+00 -0.40275972521E+02  0.40275972521E+02  0.00000000000E+00 0.  1.
         24    2    1    2    0    0  0.53775134224E+02  0.25600650856E+02  0.96058774026E+02  0.13755574061E+03  0.78403669062E+02 0.  0.
         23    2    1    2    0    0  0.35554471248E+01  0.13079887952E+02  0.18305987553E+03  0.20249947591E+03  0.85506695897E+02 0.  0.
        -13    1    3    3    0    0  0.72610552419E+02  0.30263383045E+02  0.71934151789E+02  0.10659590456E+03  0.00000000000E+00 0.  1.
         14    1    3    3    0    0 -0.18835418195E+02 -0.46627321881E+01  0.24124622237E+02  0.30959836048E+02  0.00000000000E+00 0. -1.
        -11    1    4    4    0    0  0.31357455794E+02 -0.22425159629E+02  0.58809047476E+02  0.70318432031E+02  0.00000000000E+00 0. -1.
         11    1    4    4    0    0 -0.27802008669E+02  0.35505047581E+02  0.12425082805E+03  0.13218104388E+03  0.00000000000E+00 0.  1.
         21    1    1    2  503  501 -0.27797893531E+02 -0.17251552564E+02  0.25788295928E+02  0.41657834287E+02  0.00000000000E+00 0.  1.
          1    1    1    2  501    0 -0.29532687818E+02 -0.21428986244E+02  0.17584171858E+03  0.17958755830E+03  0.00000000000E+00 0. -1.
<scales pt_clust_5="13000.00000" pt_clust_6="13000.00000" pt_clust_7="13000.00000" pt_clust_8="13000.00000" pt_clust_9="32.71604" pt_clust_10="13000.00000"></scales>
<clustering>
<clus scale="   32.716">  2  9  1 -1</clus>
<clus scale="   78.404">  5  6 -1 -1</clus>
<clus scale="   85.507">  7  8 -1 -1</clus>
<clus scale="   38.378">  7 10 -1 -1</clus>
<clus scale="   87.465">  1  5  2 -1</clus>
<clus scale="   32.716">  2  5  1 -1</clus>
</clustering>
</event>
<event>
10    4  0.7508634E-005  0.1652482E+03  0.7546771E-02  0.1198833E+00
         21   -1    0    0  503  502  0.00000000000E+00  0.00000000000E+00  0.21848252484E+02  0.21848252484E+02  0.00000000000E+00 0.  1.
          2   -1    0    0  502    0 -0.00000000000E+00 -0.00000000000E+00 -0.14657555675E+04  0.14657555675E+04  0.00000000000E+00 0. -1.
         24    2    1    2    0    0  0.49294142001E+02  0.69762104583E+02 -0.52835227564E+03  0.54119171665E+03  0.80222710732E+02 0.  0.
         23    2    1    2    0    0 -0.20733610328E+02  0.67722170126E+01 -0.44261745071E+03  0.44972966824E+03  0.76621284934E+02 0.  0.
        -11    1    3    3    0    0  0.48605451294E+02  0.30141964277E+02 -0.14617275555E+03  0.15696337908E+03  0.00000000000E+00 0.  1.
         12    1    3    3    0    0  0.68869070712E+00  0.39620140305E+02 -0.38217952009E+03  0.38422833757E+03  0.00000000000E+00 0. -1.
        -11    1    4    4    0    0  0.54079795115E+01  0.38264436769E+02 -0.20416490709E+03  0.20779009276E+03  0.00000000000E+00 0. -1.
         11    1    4    4    0    0 -0.26141589840E+02 -0.31492219757E+02 -0.23845254362E+03  0.24193957548E+03  0.00000000000E+00 0.  1.
         21    1    1    2  503  501 -0.18490527450E+02  0.83623427103E+01 -0.48677284817E+01  0.20869191685E+02  0.00000000000E+00 0.  1.
          1    1    1    2  501    0 -0.10070004223E+02 -0.84896664305E+02 -0.46806986019E+03  0.47581324342E+03  0.00000000000E+00 0. -1.
<scales pt_clust_5="13000.00000" pt_clust_6="13000.00000" pt_clust_7="13000.00000" pt_clust_8="13000.00000" pt_clust_9="20.29356" pt_clust_10="13000.00000"></scales>
<clustering>
<clus scale="   20.294">  1  9  2 -1</clus>
<clus scale="   76.621">  7  8 -1 -1</clus>
<clus scale="   80.223">  5  6 -1 -1</clus>
<clus scale="   83.953">  7 10 -1 -1</clus>
<clus scale="  116.261">  2  5  1 -1</clus>
<clus scale="   20.294">  1  5  2 -1</clus>
</clustering>
</event>
<event>
10    4  0.7508634E-005  0.5432133E+03  0.7546771E-02  0.1050516E+00
          4   -1    0    0  502    0 -0.00000000000E+00  0.00000000000E+00  0.19666747275E+03  0.19666747275E+03  0.00000000000E+00 0. -1.
         21   -1    0    0  503  502  0.00000000000E+00 -0.00000000000E+00 -0.90377592890E+03  0.90377592890E+03  0.00000000000E+00 0.  1.
         24    2    1    2    0    0 -0.10664403887E+03 -0.15398204352E+02  0.30997368824E+02  0.13715494726E+03  0.78997385786E+02 0.  0.
         23    2    1    2    0    0 -0.18795340548E+03 -0.13080526328E+03 -0.34442195383E+03  0.42300293096E+03  0.88704553340E+02 0.  0.
        -13    1    3    3    0    0 -0.10047186069E+03 -0.47645316624E+01  0.51686966449E+02  0.11308774493E+03  0.00000000000E+00 0.  1.
         14    1    3    3    0    0 -0.61721781808E+01 -0.10633672689E+02 -0.20689597625E+02  0.24067202335E+02  0.00000000000E+00 0. -1.
        -11    1    4    4    0    0 -0.25026055906E+02 -0.36933508100E+02 -0.13188351329E+03  0.13922517220E+03  0.00000000000E+00 0.  1.
         11    1    4    4    0    0 -0.16292734957E+03 -0.93871755181E+02 -0.21253844054E+03  0.28377775876E+03  0.00000000000E+00 0. -1.
         21    1    1    2  503  501  0.27289592538E+02  0.52119872977E+02 -0.16804271925E+03  0.17804369832E+03  0.00000000000E+00 0.  1.
          3    1    1    2  501    0  0.26730785181E+03  0.94083594657E+02 -0.22564115190E+03  0.36224182511E+03  0.00000000000E+00 0. -1.
<scales pt_clust_5="13000.00000" pt_clust_6="13000.00000" pt_clust_7="13000.00000" pt_clust_8="13000.00000" pt_clust_9="58.83199" pt_clust_10="13000.00000"></scales>
<clustering>
<clus scale="   58.832">  2  9  1 -1</clus>
<clus scale="   78.997">  5  6 -1 -1</clus>
<clus scale="   88.705">  7  8 -1 -1</clus>
<clus scale="  131.642">  1  5  2 -1</clus>
<clus scale="  232.471">  7 10 -1 -1</clus>
<clus scale="   58.832">  2  5  1 -1</clus>
</clustering>
</event>
<event>
10    4  0.7508634E-005  0.6138190E+03  0.7546771E-02  0.1050096E+00
          2   -1    0    0  503    0 -0.00000000000E+00  0.00000000000E+00  0.98490458487E+03  0.98490458487E+03  0.00000000000E+00 0. -1.
         21   -1    0    0  501  502  0.00000000000E+00 -0.00000000000E+00 -0.14686390449E+03  0.14686390449E+03  0.00000000000E+00 0. -1.
         24    2    1    2    0    0  0.49245861088E+02 -0.33454889871E+01  0.11729480767E+03  0.15020671747E+03  0.79797487019E+02 0.  0.
         23    2    1    2    0    0 -0.22125542156E+03  0.80964293394E+02  0.72586160170E+02  0.26318968302E+03  0.92145972374E+02 0.  0.
        -13    1    3    3    0    0  0.70463658004E+02 -0.48261201890E+01  0.75971213532E+02  0.10373063106E+03  0.00000000000E+00 0.  1.
         14    1    3    3    0    0 -0.21217796916E+02  0.14806312020E+01  0.41323594139E+02  0.46476086403E+02  0.00000000000E+00 0. -1.
        -13    1    4    4    0    0 -0.18882650109E+03  0.40640535091E+02  0.83298257071E+02  0.21034661927E+03  0.00000000000E+00 0.  1.
         13    1    4    4    0    0 -0.32428920470E+02  0.40323758303E+02 -0.10712096901E+02  0.52843063751E+02  0.00000000000E+00 0. -1.
         21    1    1    2  503  502 -0.23075440227E+02 -0.66482153442E+01 -0.11639188795E+02  0.26686053000E+02  0.00000000000E+00 0.  1.
          1    1    1    2  501    0  0.19508500070E+03 -0.70970589063E+02  0.65979890134E+03  0.69168603587E+03  0.00000000000E+00 0. -1.
<scales pt_clust_5="13000.00000" pt_clust_6="13000.00000" pt_clust_7="13000.00000" pt_clust_8="13000.00000" pt_clust_9="24.01405" pt_clust_10="13000.00000"></scales>
<clustering>
<clus scale="   24.014">  2  9  1 -1</clus>
<clus scale="   79.797">  5  6 -1 -1</clus>
<clus scale="   92.146">  7  8 -1 -1</clus>
<clus scale="   92.339">  1  5  2 -1</clus>
<clus scale="  240.076">  7 10 -1 -1</clus>
<clus scale="   24.014">  2  5  1 -1</clus>
</clustering>
</event>
<event>
10    4  0.7508634E-005  0.2968606E+03  0.7546771E-02  0.1129578E+00
          2   -1    0    0  502    0 -0.00000000000E+00  0.00000000000E+00  0.61861139388E+03  0.61861139388E+03  0.00000000000E+00 0. -1.
         21   -1    0    0  503  502  0.00000000000E+00 -0.00000000000E+00 -0.12890484480E+03  0.12890484480E+03  0.00000000000E+00 0. -1.
         24    2    1    2    0    0  0.55807663271E+02  0.19181635092E+02  0.25147480050E+02  0.10262430913E+03  0.80105696851E+02 0.  0.
         23    2    1    2    0    0 -0.10682432748E+02  0.80957474484E+02  0.73698048557E+02  0.14244003598E+03  0.90496046563E+02 0.  0.
        -11    1    3    3    0    0 -0.15859550632E+02 -0.13302712647E+02  0.32940713537E+01  0.20960401144E+02  0.00000000000E+00 0.  1.
         12    1    3    3    0    0  0.71667213903E+02  0.32484347739E+02  0.21853408696E+02  0.81663907991E+02  0.00000000000E+00 0. -1.
        -13    1    4    4    0    0  0.24368571547E+02 -0.20992865637E+01 -0.22505943858E+01  0.24562155003E+02  0.00000000000E+00 0.  1.
         13    1    4    4    0    0 -0.35051004295E+02  0.83056761048E+02  0.75948642942E+02  0.11787788097E+03  0.00000000000E+00 0. -1.
         21    1    1    2  503  501 -0.10826888728E+03 -0.25294839721E+02  0.12804251654E+02  0.11191930008E+03  0.00000000000E+00 0. -1.
          1    1    1    2  501    0  0.63143656761E+02 -0.74844269855E+02  0.37805676882E+03  0.39053259348E+03  0.00000000000E+00 0. -1.
<scales pt_clust_5="13000.00000" pt_clust_6="13000.00000" pt_clust_7="13000.00000" pt_clust_8="13000.00000" pt_clust_9="104.58669" pt_clust_10="13000.00000"></scales>
<clustering>
<clus scale="   80.106">  5  6 -1 -1</clus>
<clus scale="   90.496">  7  8 -1 -1</clus>
<clus scale="   97.922">  7 10 -1 -1</clus>
<clus scale="   99.496">  1  5  2 -1</clus>
<clus scale="  104.587">  2  9  1 -1</clus>
<clus scale="  104.587">  2  5  1 -1</clus>
</clustering>
</event>
<event>
10    4  0.7508634E-005  0.4094477E+03  0.7546771E-02  0.1058858E+00
          2   -1    0    0  502    0 -0.00000000000E+00  0.00000000000E+00  0.15877041238E+04  0.15877041238E+04  0.00000000000E+00 0. -1.
         21   -1    0    0  503  502  0.00000000000E+00 -0.00000000000E+00 -0.76746083646E+03  0.76746083646E+03  0.00000000000E+00 0. -1.
         24    2    1    2    0    0  0.11819575863E+03 -0.19695958682E+03  0.13907458012E+04  0.14117835204E+04  0.78711552989E+02 0.  0.
         23    2    1    2    0    0 -0.22031531866E+02  0.13266081167E+03  0.77170721313E+01  0.16301498920E+03  0.91815326353E+02 0.  0.
        -13    1    3    3    0    0  0.28042076448E+02 -0.28492829288E+02  0.11371705702E+03  0.12053948909E+03  0.00000000000E+00 0.  1.
         14    1    3    3    0    0  0.90153682181E+02 -0.16846675754E+03  0.12770287442E+04  0.12912440313E+04  0.00000000000E+00 0. -1.
        -11    1    4    4    0    0 -0.11691733756E+02  0.23784860635E+02 -0.36450555274E+02  0.45067274307E+02  0.00000000000E+00 0. -1.
         11    1    4    4    0    0 -0.10339798110E+02  0.10887595103E+03  0.44167627406E+02  0.11794771490E+03  0.00000000000E+00 0.  1.
         21    1    1    2  503  501 -0.30071022212E+03  0.32187336160E+02 -0.43012222047E+03  0.52580204149E+03  0.00000000000E+00 0. -1.
          1    1    1    2  501    0  0.20454599536E+03  0.32111438995E+02 -0.14809736557E+03  0.25456440918E+03  0.00000000000E+00 0. -1.
<scales pt_clust_5="13000.00000" pt_clust_6="13000.00000" pt_clust_7="13000.00000" pt_clust_8="13000.00000" pt_clust_9="271.00358" pt_clust_10="13000.00000"></scales>
<clustering>
<clus scale="   78.712">  5  6 -1 -1</clus>
<clus scale="   91.815">  7  8 -1 -1</clus>
<clus scale="  207.051">  7 10 -1 -1</clus>
<clus scale="  242.814">  1  5  2 -1</clus>
<clus scale="  271.004">  2  9  1 -1</clus>
<clus scale="  271.004">  2  5  1 -1</clus>
</clustering>
</event>
<event>
10    4  0.7508634E-005  0.2029590E+03  0.7546771E-02  0.1182095E+00
          2   -1    0    0  502    0 -0.00000000000E+00  0.00000000000E+00  0.11304918958E+04  0.11304918958E+04  0.00000000000E+00 0. -1.
         21   -1    0    0  503  502  0.00000000000E+00 -0.00000000000E+00 -0.80811337788E+02  0.80811337788E+02  0.00000000000E+00 0.  1.
         24    2    1    2    0    0 -0.41561188318E+02 -0.20208917742E+02  0.89297307239E+03  0.89758798950E+03  0.78278720872E+02 0.  0.
         23    2    1    2    0    0  0.13848162471E+02 -0.44126924107E+01  0.65952871397E+01  0.91395884662E+02  0.89991479944E+02 0.  0.
        -13    1    3    3    0    0 -0.28764301757E+02  0.90850480722E+01  0.11290373663E+03  0.11686392471E+03  0.00000000000E+00 0.  1.
         14    1    3    3    0    0 -0.12796886561E+02 -0.29293965814E+02  0.78006933576E+03  0.78072406478E+03  0.00000000000E+00 0. -1.
        -13    1    4    4    0    0  0.47716250211E+02 -0.15428300553E+02  0.19081406380E+02  0.53656062674E+02  0.00000000000E+00 0. -1.
         13    1    4    4    0    0 -0.33868087741E+02  0.11015608143E+02 -0.12486119241E+02  0.37739821988E+02  0.00000000000E+00 0.  1.
         21    1    1    2  503  501  0.19804845392E+02 -0.29851861221E+02 -0.21714414509E+02  0.41891303594E+02  0.00000000000E+00 0.  1.
          1    1    1    2  501    0  0.79081804548E+01  0.54473471374E+02  0.17182661303E+03  0.18042805588E+03  0.00000000000E+00 0. -1.
<scales pt_clust_5="13000.00000" pt_clust_6="13000.00000" pt_clust_7="13000.00000" pt_clust_8="13000.00000" pt_clust_9="35.82409" pt_clust_10="13000.00000"></scales>
<clustering>
<clus scale="   35.824">  2  9  1 -1</clus>
<clus scale="   78.279">  5  6 -1 -1</clus>
<clus scale="   89.991">  7  8 -1 -1</clus>
<clus scale="   52.743">  7 10 -1 -1</clus>
<clus scale="   90.804">  1  5  2 -1</clus>
<clus scale="   35.824">  2  5  1 -1</clus>
</clustering>
</event>
<event>
10    4  0.7986958E-005  0.4703106E+03  0.7546771E-02  0.1047986E+00
         -3   -1    0    0    0  501 -0.00000000000E+00  0.00000000000E+00  0.67746466100E+03  0.67746466100E+03  0.00000000000E+00 0.  1.
         21   -1    0    0  503  502  0.00000000000E+00 -0.00000000000E+00 -0.20215187489E+03  0.20215187489E+03  0.00000000000E+00 0.  1.
         24    2    1    2    0    0 -0.43869203240E+02  0.19059455781E+03  0.13885456715E+03  0.25277779117E+03  0.79782381727E+02 0.  0.
         23    2    1    2    0    0 -0.31806923134E+01  0.10881757454E+03  0.16506726108E+03  0.21778253911E+03  0.91272407276E+02 0.  0.
        -13    1    3    3    0    0 -0.20648851631E+02  0.15610133543E+03  0.14068789604E+03  0.21115654404E+03  0.00000000000E+00 0.  1.
         14    1    3    3    0    0 -0.23220351608E+02  0.34493222373E+02 -0.18333288875E+01  0.41621247138E+02  0.00000000000E+00 0. -1.
        -13    1    4    4    0    0  0.36605163708E+02  0.68657321666E+02  0.12924369382E+03  0.15085654849E+03  0.00000000000E+00 0. -1.
         13    1    4    4    0    0 -0.39785856022E+02  0.40160252875E+02  0.35823567257E+02  0.66925990627E+02  0.00000000000E+00 0.  1.
         21    1    1    2  503  501 -0.36076637717E+02  0.14702495079E+02 -0.51000764027E+01  0.39289921479E+02  0.00000000000E+00 0. -1.
         -4    1    1    2    0  502  0.83126533270E+02 -0.31411462743E+03  0.17649103428E+03  0.36976628413E+03  0.00000000000E+00 0.  1.
<scales pt_clust_5="13000.00000" pt_clust_6="13000.00000" pt_clust_7="13000.00000" pt_clust_8="13000.00000" pt_clust_9="38.95750" pt_clust_10="13000.00000"></scales>
<clustering>
<clus scale="   38.958">  2  9  1 -1</clus>
<clus scale="   79.782">  5  6 -1 -1</clus>
<clus scale="   91.272">  7  8 -1 -1</clus>
<clus scale="  218.046">  1  5  2 -1</clus>
<clus scale="  199.760">  7 10 -1 -1</clus>
<clus scale="   38.958">  2  5  1 -1</clus>
</clustering>
</event>
<event>
10    4  0.7508634E-005  0.5145443E+03  0.7546771E-02  0.1041942E+00
         21   -1    0    0  503  502  0.00000000000E+00  0.00000000000E+00  0.47467347664E+03  0.47467347664E+03  0.00000000000E+00 0.  1.
          2   -1    0    0  502    0 -0.00000000000E+00 -0.00000000000E+00 -0.43816879248E+03  0.43816879248E+03  0.00000000000E+00 0. -1.
         24    2    1    2    0    0 -0.94740719444E+02  0.19738744982E+03  0.15138021054E+03  0.27770345853E+03  0.79155754501E+02 0.  0.
         23    2    1    2    0    0  0.44815124437E+02 -0.47556851866E+02  0.16767233842E+03  0.20107819757E+03  0.89712757902E+02 0.  0.
        -11    1    3    3    0    0 -0.69754383173E+02  0.10497697703E+03  0.43170608958E+02  0.13322740392E+03  0.00000000000E+00 0.  1.
         12    1    3    3    0    0 -0.24986336272E+02  0.92410472794E+02  0.10820960158E+03  0.14447605461E+03  0.00000000000E+00 0. -1.
        -11    1    4    4    0    0  0.66529534391E+02 -0.20768225750E+02  0.75921343466E+02  0.10306089724E+03  0.00000000000E+00 0.  1.
         11    1    4    4    0    0 -0.21714409954E+02 -0.26788626115E+02  0.91750994951E+02  0.98017300327E+02  0.00000000000E+00 0. -1.
         21    1    1    2  503  501 -0.29355976175E+02 -0.10021862481E+03  0.29322956990E+02  0.10846834516E+03  0.00000000000E+00 0. -1.
          1    1    1    2  501    0  0.79281571182E+02 -0.49611973151E+02 -0.31187082178E+03  0.32559226786E+03  0.00000000000E+00 0. -1.
<scales pt_clust_5="13000.00000" pt_clust_6="13000.00000" pt_clust_7="13000.00000" pt_clust_8="13000.00000" pt_clust_9="104.42962" pt_clust_10="13000.00000"></scales>
<clustering>
<clus scale="   79.156">  5  6 -1 -1</clus>
<clus scale="   89.713">  7  8 -1 -1</clus>
<clus scale="   93.525">  7 10 -1 -1</clus>
<clus scale="  104.430">  1  9  2 -1</clus>
<clus scale="  198.178">  2  5  1 -1</clus>
<clus scale="  104.430">  1  5  2 -1</clus>
</clustering>
</event>
<event>
10    4  0.7508634E-005  0.5003072E+03  0.7546771E-02  0.1059154E+00
         21   -1    0    0  503  502  0.00000000000E+00  0.00000000000E+00  0.34506308018E+03  0.34506308018E+03  0.00000000000E+00 0. -1.
          2   -1    0    0  502    0 -0.00000000000E+00 -0.00000000000E+00 -0.11433501676E+04  0.11433501676E+04  0.00000000000E+00 0. -1.
         24    2    1    2    0    0 -0.58550149518E+02  0.81861143738E+02 -0.28508827281E+03  0.31263736246E+03  0.79607978541E+02 0.  0.
         23    2    1    2    0    0 -0.95287494169E+02  0.75336575146E+02 -0.59231159686E+03  0.61173951704E+03  0.92934938740E+02 0.  0.
        -13    1    3    3    0    0 -0.45855628513E+02  0.68326956947E+02 -0.11427607388E+03  0.14082021437E+03  0.00000000000E+00 0.  1.
         14    1    3    3    0    0 -0.12694521005E+02  0.13534186791E+02 -0.17081219893E+03  0.17181714809E+03  0.00000000000E+00 0. -1.
        -11    1    4    4    0    0 -0.94223164393E+02  0.20578484319E+02 -0.33176984769E+03  0.34550356085E+03  0.00000000000E+00 0.  1.
         11    1    4    4    0    0 -0.10643297754E+01  0.54758090827E+02 -0.26054174917E+03  0.26623595619E+03  0.00000000000E+00 0. -1.
         21    1    1    2  503  501 -0.33598429863E+02  0.12854509239E+02  0.25391827080E+03  0.25645385773E+03  0.00000000000E+00 0. -1.
          1    1    1    2  501    0  0.18743607355E+03 -0.17005222812E+03 -0.17480548851E+03  0.30758251051E+03  0.00000000000E+00 0. -1.
<scales pt_clust_5="13000.00000" pt_clust_6="13000.00000" pt_clust_7="13000.00000" pt_clust_8="13000.00000" pt_clust_9="35.97350" pt_clust_10="13000.00000"></scales>
<clustering>
<clus scale="   35.974">  1  9  2 -1</clus>
<clus scale="   79.608">  5  6 -1 -1</clus>
<clus scale="   92.935">  7  8 -1 -1</clus>
<clus scale="  131.995">  2  5  1 -1</clus>
<clus scale="  203.387">  7 10 -1 -1</clus>
<clus scale="   35.974">  1  5  2 -1</clus>
</clustering>
</event>
<event>
10    4  0.7508634E-005  0.2666691E+03  0.7546771E-02  0.1145979E+00
          2   -1    0    0  503    0 -0.00000000000E+00  0.00000000000E+00  0.16020455044E+04  0.16020455044E+04  0.00000000000E+00 0. -1.
         21   -1    0    0  501  502  0.00000000000E+00 -0.00000000000E+00 -0.59190358305E+02  0.59190358305E+02  0.00000000000E+00 0. -1.
         24    2    1    2    0    0  0.15549360717E+02  0.33204940814E+02  0.11984561552E+04  0.12019727273E+04  0.84243282142E+02 0.  0.
         23    2    1    2    0    0  0.63550676248E+02  0.41763661233E+02  0.18093425784E+03  0.22169809916E+03  0.10310164722E+03 0.  0.
        -13    1    3    3    0    0 -0.22370661381E+02  0.20769262549E+02  0.16843156123E+03  0.17117534746E+03  0.00000000000E+00 0.  1.
         14    1    3    3    0    0  0.37920022097E+02  0.12435678265E+02  0.10300245939E+04  0.10307973798E+04  0.00000000000E+00 0. -1.
        -13    1    4    4    0    0  0.14978029596E+02  0.60975162210E+02  0.14580665752E+03  0.15875104143E+03  0.00000000000E+00 0. -1.
         13    1    4    4    0    0  0.48572646653E+02 -0.19211500978E+02  0.35127600315E+02  0.62947057727E+02  0.00000000000E+00 0.  1.
         21    1    1    2  503  502  0.23032740400E+02  0.21447078307E+02  0.36913745488E+02  0.48508853874E+02  0.00000000000E+00 0. -1.
          1    1    1    2  501    0 -0.10213277736E+03 -0.96415680354E+02  0.12655098758E+03  0.18905618236E+03  0.00000000000E+00 0. -1.
<scales pt_clust_5="13000.00000" pt_clust_6="13000.00000" pt_clust_7="13000.00000" pt_clust_8="13000.00000" pt_clust_9="31.47196" pt_clust_10="13000.00000"></scales>
<clustering>
<clus scale="   31.472">  2  9  1 -1</clus>
<clus scale="   84.243">  5  6 -1 -1</clus>
<clus scale="   92.265">  1  5  2 -1</clus>
<clus scale="  103.102">  7  8 -1 -1</clus>
<clus scale="  109.298">  7 10 -1 -1</clus>
<clus scale="   31.472">  2  5  1 -1</clus>
</clustering>
</event>
<event>
10    4  0.7508634E-005  0.6114511E+03  0.7546771E-02  0.9921840E-01
         21   -1    0    0  503  502  0.00000000000E+00  0.00000000000E+00  0.11313090245E+04  0.11313090245E+04  0.00000000000E+00 0. -1.
          2   -1    0    0  502    0 -0.00000000000E+00 -0.00000000000E+00 -0.61570229108E+03  0.61570229108E+03  0.00000000000E+00 0. -1.
         24    2    1    2    0    0  0.47823776054E+03 -0.23662326966E+03 -0.27666346512E+03  0.60622091847E+03  0.79115116738E+02 0.  0.
         23    2    1    2    0    0  0.97255470075E+01  0.68852878384E+02  0.78137489953E+02  0.13852320834E+03  0.90817987123E+02 0.  0.
        -13    1    3    3    0    0  0.19327166790E+03 -0.53226965349E+02 -0.98443721919E+02  0.22333430958E+03  0.00000000000E+00 0.  1.
         14    1    3    3    0    0  0.28496609265E+03 -0.18339630431E+03 -0.17821974320E+03  0.38288660888E+03  0.00000000000E+00 0. -1.
        -11    1    4    4    0    0  0.34581779814E+02  0.49100295693E+02  0.86857859709E+02  0.10559842009E+03  0.00000000000E+00 0.  1.
         11    1    4    4    0    0 -0.24856232807E+02  0.19752582690E+02 -0.87203697567E+01  0.32924788245E+02  0.00000000000E+00 0. -1.
         21    1    1    2  503  501 -0.79916596458E+02 -0.13343038874E+03  0.33403838726E+03  0.36847248906E+03  0.00000000000E+00 0.  1.
          1    1    1    2  501    0 -0.40804671109E+03  0.30120078001E+03  0.38009432137E+03  0.63379469976E+03  0.00000000000E+00 0. -1.
<scales pt_clust_5="13000.00000" pt_clust_6="13000.00000" pt_clust_7="13000.00000" pt_clust_8="13000.00000" pt_clust_9="155.53241" pt_clust_10="13000.00000"></scales>
<clustering>
<clus scale="   79.115">  5  6 -1 -1</clus>
<clus scale="   90.818">  7  8 -1 -1</clus>
<clus scale="  155.532">  1  9  2 -1</clus>
<clus scale="  507.533">  7 10 -1 -1</clus>
<clus scale="  537.803">  2  5  1 -1</clus>
<clus scale="  155.532">  1  5  2 -1</clus>
</clustering>
</event>
<event>
10    4  0.7508634E-005  0.2091542E+03  0.7546771E-02  0.1176346E+00
          2   -1    0    0  503    0 -0.00000000000E+00  0.00000000000E+00  0.97931680314E+03  0.97931680314E+03  0.00000000000E+00 0. -1.
         21   -1    0    0  501  502  0.00000000000E+00 -0.00000000000E+00 -0.38782813371E+02  0.38782813371E+02  0.00000000000E+00 0. -1.
         24    2    1    2    0    0  0.16464387145E+02  0.52455679272E+02  0.40959022374E+03  0.42123342527E+03  0.81552270681E+02 0.  0.
         23    2    1    2    0    0  0.77201742078E+02  0.28269711478E+02  0.20971691936E+03  0.24395003343E+03  0.93654401825E+02 0.  0.
        -11    1    3    3    0    0 -0.30153017692E+02  0.38425570058E+02  0.17787489106E+03  0.18445922525E+03  0.00000000000E+00 0.  1.
         12    1    3    3    0    0  0.46617404837E+02  0.14030109214E+02  0.23171533268E+03  0.23677420003E+03  0.00000000000E+00 0. -1.
        -13    1    4    4    0    0  0.73009855502E+02 -0.14452180064E+02  0.16952914541E+03  0.18514706493E+03  0.00000000000E+00 0.  1.
         13    1    4    4    0    0  0.41918865764E+01  0.42721891542E+02  0.40187773944E+02  0.58802968502E+02  0.00000000000E+00 0. -1.
         21    1    1    2  503  502 -0.49222258786E+02 -0.24898283044E+02  0.57395953224E+02  0.79605594684E+02  0.00000000000E+00 0. -1.
          1    1    1    2  501    0 -0.44443870437E+02 -0.55827107706E+02  0.26383089345E+03  0.27331056312E+03  0.00000000000E+00 0. -1.
<scales pt_clust_5="13000.00000" pt_clust_6="13000.00000" pt_clust_7="13000.00000" pt_clust_8="13000.00000" pt_clust_9="55.16118" pt_clust_10="13000.00000"></scales>
<clustering>
<clus scale="   55.161">  2  9  1 -1</clus>
<clus scale="   81.552">  5  6 -1 -1</clus>
<clus scale="   93.654">  7  8 -1 -1</clus>
<clus scale="   80.041">  7 10 -1 -1</clus>
<clus scale="   94.434">  1  5  2 -1</clus>
<clus scale="   55.161">  2  5  1 -1</clus>
</clustering>
</event>
<event>
10    4  0.7508634E-005  0.4889843E+03  0.7546771E-02  0.1070407E+00
          2   -1    0    0  503    0 -0.00000000000E+00  0.00000000000E+00  0.71261214481E+03  0.71261214481E+03  0.00000000000E+00 0. -1.
         21   -1    0    0  501  502  0.00000000000E+00 -0.00000000000E+00 -0.34274458560E+03  0.34274458560E+03  0.00000000000E+00 0. -1.
         24    2    1    2    0    0 -0.35816395582E+02 -0.54765962620E+02  0.32348773016E+02  0.10841970887E+03  0.80163990059E+02 0.  0.
         23    2    1    2    0    0 -0.21844188832E+02  0.10747039513E+03  0.78217526223E+02  0.16295754026E+03  0.91706728796E+02 0.  0.
        -13    1    3    3    0    0  0.91122239387E+01 -0.52795225635E+02  0.33936850449E+02  0.63419857248E+02  0.00000000000E+00 0.  1.
         14    1    3    3    0    0 -0.44928619520E+02 -0.19707369847E+01 -0.15880774325E+01  0.44999851624E+02  0.00000000000E+00 0. -1.
        -11    1    4    4    0    0 -0.48087578162E+02  0.32767386085E+02  0.11274918035E+02  0.59272595194E+02  0.00000000000E+00 0.  1.
         11    1    4    4    0    0  0.26243389330E+02  0.74703009040E+02  0.66942608188E+02  0.10368494507E+03  0.00000000000E+00 0. -1.
         21    1    1    2  503  502  0.27839262269E+03  0.15483756052E+03  0.34453971667E+03  0.46923846696E+03  0.00000000000E+00 0. -1.
          1    1    1    2  501    0 -0.22073203827E+03 -0.20754199302E+03 -0.85238456695E+02  0.31474101431E+03  0.00000000000E+00 0. -1.
<scales pt_clust_5="13000.00000" pt_clust_6="13000.00000" pt_clust_7="13000.00000" pt_clust_8="13000.00000" pt_clust_9="282.51839" pt_clust_10="13000.00000"></scales>
<clustering>
<clus scale="   80.164">  5  6 -1 -1</clus>
<clus scale="   91.707">  7  8 -1 -1</clus>
<clus scale="  103.481">  1  5  2 -1</clus>
<clus scale="  282.518">  2  9  1 -1</clus>
<clus scale="  120.100">  7 10 -1 -1</clus>
<clus scale="  282.518">  2  5  1 -1</clus>
</clustering>
</event>
<event>
10    4  0.7508634E-005  0.3707090E+03  0.7546771E-02  0.1097406E+00
         21   -1    0    0  503  502  0.00000000000E+00  0.00000000000E+00  0.33346730417E+03  0.33346730417E+03  0.00000000000E+00 0. -1.
          2   -1    0    0  502    0 -0.00000000000E+00 -0.00000000000E+00 -0.58492829248E+03  0.58492829248E+03  0.00000000000E+00 0. -1.
         24    2    1    2    0    0  0.56606887403E+02 -0.67923445890E+02  0.38102378650E+02  0.12804250011E+03  0.84410641347E+02 0.  0.
         23    2    1    2    0    0 -0.11731790766E+03  0.71751714610E+01 -0.40938506329E+02  0.15384265096E+03  0.90424694688E+02 0.  0.
        -11    1    3    3    0    0  0.30560698264E+02 -0.82760281245E+01 -0.22712732091E+02  0.38965588908E+02  0.00000000000E+00 0.  1.
         12    1    3    3    0    0  0.26046189139E+02 -0.59647417766E+02  0.60815110741E+02  0.89076911202E+02  0.00000000000E+00 0. -1.
        -13    1    4    4    0    0 -0.10779801081E+03  0.33416196502E+02 -0.11772449093E+02  0.11347089442E+03  0.00000000000E+00 0. -1.
         13    1    4    4    0    0 -0.95198968569E+01 -0.26241025041E+02 -0.29166057236E+02  0.40371756540E+02  0.00000000000E+00 0.  1.
         21    1    1    2  503  501 -0.31360837697E+02 -0.80539766683E+00  0.18567744357E+03  0.18830895852E+03  0.00000000000E+00 0. -1.
          1    1    1    2  501    0  0.92071857957E+02  0.61553672096E+02 -0.43430230420E+03  0.44820148707E+03  0.00000000000E+00 0. -1.
<scales pt_clust_5="13000.00000" pt_clust_6="13000.00000" pt_clust_7="13000.00000" pt_clust_8="13000.00000" pt_clust_9="31.37118" pt_clust_10="13000.00000"></scales>
<clustering>
<clus scale="   31.371">  1  9  2 -1</clus>
<clus scale="   84.411">  5  6 -1 -1</clus>
<clus scale="   90.425">  7  8 -1 -1</clus>
<clus scale="  109.497">  7 10 -1 -1</clus>
<clus scale="  115.361">  2  5  1 -1</clus>
<clus scale="   31.371">  1  5  2 -1</clus>
</clustering>
</event>
<event>
10    4  0.7508634E-005  0.1890042E+03  0.7546771E-02  0.1170774E+00
          2   -1    0    0  503    0 -0.00000000000E+00  0.00000000000E+00  0.31201550429E+03  0.31201550429E+03  0.00000000000E+00 0. -1.
         21   -1    0    0  501  502  0.00000000000E+00 -0.00000000000E+00 -0.46859587870E+03  0.46859587870E+03  0.00000000000E+00 0. -1.
         24    2    1    2    0    0  0.13656630429E+03 -0.74457708534E+02  0.72463781634E+02  0.18967520520E+03  0.80816941249E+02 0.  0.
         23    2    1    2    0    0 -0.25489680491E+02 -0.26198889621E+02  0.56314539502E+02  0.11368209546E+03  0.91739772404E+02 0.  0.
        -11    1    3    3    0    0  0.70602184535E+02 -0.48301133291E+02  0.81486895697E+02  0.11814305781E+03  0.00000000000E+00 0.  1.
         12    1    3    3    0    0  0.65964119751E+02 -0.26156575243E+02 -0.90231140632E+01  0.71532147391E+02  0.00000000000E+00 0. -1.
        -11    1    4    4    0    0 -0.30324707288E+02 -0.18152192806E+01 -0.18006130421E+02  0.35314354389E+02  0.00000000000E+00 0.  1.
         11    1    4    4    0    0  0.48350267971E+01 -0.24383670340E+02  0.74320669923E+02  0.78367741075E+02  0.00000000000E+00 0. -1.
         21    1    1    2  503  502 -0.32907451891E+02  0.16397222826E+03 -0.32785833800E+03  0.36805010776E+03  0.00000000000E+00 0. -1.
          1    1    1    2  501    0 -0.78169171904E+02 -0.63315630105E+02  0.42499642450E+02  0.10920397456E+03  0.00000000000E+00 0. -1.
<scales pt_clust_5="13000.00000" pt_clust_6="13000.00000" pt_clust_7="13000.00000" pt_clust_8="13000.00000" pt_clust_9="167.24172" pt_clust_10="13000.00000"></scales>
<clustering>
<clus scale="   80.817">  5  6 -1 -1</clus>
<clus scale="   91.740">  7  8 -1 -1</clus>
<clus scale="  100.595">  7 10 -1 -1</clus>
<clus scale="  167.242">  2  9  1 -1</clus>
<clus scale="  145.252">  1  5  2 -1</clus>
<clus scale="  167.242">  2  5  1 -1</clus>
</clustering>
</event>
<event>
10    4  0.7508634E-005  0.1840348E+03  0.7546771E-02  0.1176585E+00
         21   -1    0    0  501  502  0.00000000000E+00  0.00000000000E+00  0.24565997233E+03  0.24565997233E+03  0.00000000000E+00 0.  1.
          2   -1    0    0  503    0 -0.00000000000E+00 -0.00000000000E+00 -0.33935907491E+03  0.33935907491E+03  0.00000000000E+00 0. -1.
         24    2    1    2    0    0 -0.12834777122E+03 -0.41879358035E+02  0.13426913928E+02  0.15466741165E+03  0.74260993815E+02 0.  0.
         23    2    1    2    0    0  0.42486843271E+02  0.14784327083E+02 -0.95819447644E+02  0.14222470283E+03  0.94988374916E+02 0.  0.
        -13    1    3    3    0    0 -0.11557693103E+03 -0.12722455301E+02  0.28092142615E+02  0.11962046786E+03  0.00000000000E+00 0.  1.
         14    1    3    3    0    0 -0.12770840185E+02 -0.29156902734E+02 -0.14665228686E+02  0.35046943783E+02  0.00000000000E+00 0. -1.
        -13    1    4    4    0    0  0.57111906643E+01  0.43544316497E+02 -0.82850805177E+02  0.93770896959E+02  0.00000000000E+00 0.  1.
         13    1    4    4    0    0  0.36775652607E+02 -0.28759989414E+02 -0.12968642467E+02  0.48453805869E+02  0.00000000000E+00 0. -1.
         21    1    1    2  503  502  0.28144573799E+02 -0.23870832701E+01  0.12980564918E+03  0.13284322249E+03  0.00000000000E+00 0.  1.
          1    1    1    2  501    0  0.57716354146E+02  0.29482114222E+02 -0.14111221804E+03  0.15528371027E+03  0.00000000000E+00 0. -1.
<scales pt_clust_5="13000.00000" pt_clust_6="13000.00000" pt_clust_7="13000.00000" pt_clust_8="13000.00000" pt_clust_9="28.24562" pt_clust_10="13000.00000"></scales>
<clustering>
<clus scale="   28.246">  1  9  2 -1</clus>
<clus scale="   74.261">  5  6 -1 -1</clus>
<clus scale="   94.988">  7  8 -1 -1</clus>
<clus scale="   66.303">  7 10 -1 -1</clus>
<clus scale="  137.873">  2  5  1 -1</clus>
<clus scale="   28.246">  1  5  2 -1</clus>
</clustering>
</event>
<event>
10    4  0.7508634E-005  0.3088683E+03  0.7546771E-02  0.1085899E+00
         21   -1    0    0  501  502  0.00000000000E+00  0.00000000000E+00  0.13226159446E+03  0.13226159446E+03  0.00000000000E+00 0. -1.
          2   -1    0    0  503    0 -0.00000000000E+00 -0.00000000000E+00 -0.15732031351E+04  0.15732031351E+04  0.00000000000E+00 0. -1.
         24    2    1    2    0    0  0.22825722496E+03 -0.92183272281E+02 -0.75199407122E+03  0.79537619565E+03  0.80802803270E+02 0.  0.
         23    2    1    2    0    0 -0.18984562549E+03  0.73223369149E+02 -0.69551916975E+03  0.73038343985E+03  0.91159368207E+02 0.  0.
        -13    1    3    3    0    0  0.40779638308E+02 -0.36328598654E+01 -0.23173777236E+03  0.23532652148E+03  0.00000000000E+00 0.  1.
         14    1    3    3    0    0  0.18747758665E+03 -0.88550412416E+02 -0.52025629886E+03  0.56004967417E+03  0.00000000000E+00 0. -1.
        -13    1    4    4    0    0 -0.14367288701E+03  0.95947480795E+01 -0.46926083961E+03  0.49085608201E+03  0.00000000000E+00 0. -1.
         13    1    4    4    0    0 -0.46172738487E+02  0.63628621070E+02 -0.22625833014E+03  0.23952735784E+03  0.00000000000E+00 0.  1.
         21    1    1    2  503  502  0.29697702184E+02 -0.41179438907E+01  0.74794437478E+02  0.80579891130E+02  0.00000000000E+00 0. -1.
          1    1    1    2  501    0 -0.68109301647E+02  0.23077847023E+02 -0.68222737183E+02  0.99125202965E+02  0.00000000000E+00 0. -1.
<scales pt_clust_5="13000.00000" pt_clust_6="13000.00000" pt_clust_7="13000.00000" pt_clust_8="13000.00000" pt_clust_9="29.98184" pt_clust_10="13000.00000"></scales>
<clustering>
<clus scale="   29.982">  1  9  2 -1</clus>
<clus scale="   80.803">  5  6 -1 -1</clus>
<clus scale="   91.159">  7  8 -1 -1</clus>
<clus scale="   63.595">  7 10 -1 -1</clus>
<clus scale="  270.112">  2  5  1 -1</clus>
<clus scale="   29.982">  1  5  2 -1</clus>
</clustering>
</event>
<event>
10    4  0.7508634E-005  0.2804757E+03  0.7546771E-02  0.1117463E+00
         21   -1    0    0  501  502  0.00000000000E+00  0.00000000000E+00  0.30787987552E+03  0.30787987552E+03  0.00000000000E+00 0. -1.
          2   -1    0    0  503    0 -0.00000000000E+00 -0.00000000000E+00 -0.30855224642E+03  0.30855224642E+03  0.00000000000E+00 0. -1.
         24    2    1    2    0    0 -0.12971199453E+03  0.52490539262E+02  0.76143574114E+01  0.16100680660E+03  0.79276447285E+02 0.  0.
         23    2    1    2    0    0  0.59671258337E+02 -0.15042362331E+03 -0.57884414183E+02  0.19539364416E+03  0.92952381648E+02 0.  0.
        -11    1    3    3    0    0 -0.57351197146E+02  0.54686456475E+01 -0.32165764426E+02  0.65982590889E+02  0.00000000000E+00 0.  1.
         12    1    3    3    0    0 -0.72360797384E+02  0.47021893614E+02  0.39780121838E+02  0.95024215706E+02  0.00000000000E+00 0. -1.
        -11    1    4    4    0    0  0.21263664941E+01 -0.12180643674E+03 -0.44841735781E+02  0.12981567985E+03  0.00000000000E+00 0.  1.
         11    1    4    4    0    0  0.57544891843E+02 -0.28617186565E+02 -0.13042678402E+02  0.65577964318E+02  0.00000000000E+00 0. -1.
         21    1    1    2  503  502  0.18736345938E+02  0.31319057151E+02  0.13520216172E+03  0.14004127439E+03  0.00000000000E+00 0. -1.
          1    1    1    2  501    0  0.51304390255E+02  0.66614026893E+02 -0.85604475840E+02  0.11999039679E+03  0.00000000000E+00 0. -1.
<scales pt_clust_5="13000.00000" pt_clust_6="13000.00000" pt_clust_7="13000.00000" pt_clust_8="13000.00000" pt_clust_9="36.49567" pt_clust_10="13000.00000"></scales>
<clustering>
<clus scale="   36.496">  1  9  2 -1</clus>
<clus scale="   79.276">  5  6 -1 -1</clus>
<clus scale="   92.952">  7  8 -1 -1</clus>
<clus scale="   87.742">  7 10 -1 -1</clus>
<clus scale="  159.415">  2  5  1 -1</clus>
<clus scale="   36.496">  1  5  2 -1</clus>
</clustering>
</event>
<event>
10    4  0.7508634E-005  0.2415664E+03  0.7546771E-02  0.1150623E+00
         21   -1    0    0  503  502  0.00000000000E+00  0.00000000000E+00  0.57361414632E+02  0.57361414632E+02  0.00000000000E+00 0. -1.
          2   -1    0    0  502    0 -0.00000000000E+00 -0.00000000000E+00 -0.86590154239E+03  0.86590154239E+03  0.00000000000E+00 0. -1.
         24    2    1    2    0    0 -0.62382329144E+02  0.63428741203E+02 -0.30396394465E+03  0.32666550929E+03  0.80009468907E+02 0.  0.
         23    2    1    2    0    0 -0.45392808195E+02 -0.96835861538E+02 -0.38749453175E+03  0.41217256216E+03  0.91085222438E+02 0.  0.
        -13    1    3    3    0    0 -0.69734952654E+02  0.45730373742E+02 -0.15092639020E+03  0.17243261281E+03  0.00000000000E+00 0.  1.
         14    1    3    3    0    0  0.73526235101E+01  0.17698367461E+02 -0.15303755445E+03  0.15423289648E+03  0.00000000000E+00 0. -1.
        -13    1    4    4    0    0 -0.36240273063E+02 -0.11464346190E+03 -0.33984838987E+03  0.36049051145E+03  0.00000000000E+00 0. -1.
         13    1    4    4    0    0 -0.91525351319E+01  0.17807600357E+02 -0.47646141877E+02  0.51682050710E+02  0.00000000000E+00 0.  1.
         21    1    1    2  503  501  0.40101450389E+02 -0.16100264831E+02 -0.36501285616E+01  0.43366672566E+02  0.00000000000E+00 0. -1.
          1    1    1    2  501    0  0.67673686950E+02  0.49507385166E+02 -0.11343152280E+03  0.14105821300E+03  0.00000000000E+00 0. -1.
<scales pt_clust_5="13000.00000" pt_clust_6="13000.00000" pt_clust_7="13000.00000" pt_clust_8="13000.00000" pt_clust_9="43.21279" pt_clust_10="13000.00000"></scales>
<clustering>
<clus scale="   43.213">  1  9  2 -1</clus>
<clus scale="   80.009">  5  6 -1 -1</clus>
<clus scale="   91.085">  7  8 -1 -1</clus>
<clus scale="   93.252">  7 10 -1 -1</clus>
<clus scale="  111.152">  2  5  1 -1</clus>
<clus scale="   43.213">  1  5  2 -1</clus>
</clustering>
</event>
<event>
10    4  0.7508634E-005  0.1944359E+03  0.7546771E-02  0.1188390E+00
          2   -1    0    0  503    0 -0.00000000000E+00  0.00000000000E+00  0.83444019790E+03  0.83444019790E+03  0.00000000000E+00 0. -1.
         21   -1    0    0  501  502  0.00000000000E+00 -0.00000000000E+00 -0.63085912915E+02  0.63085912915E+02  0.00000000000E+00 0. -1.
         24    2    1    2    0    0 -0.27157949778E+02 -0.46226967198E+02  0.15407759911E+03  0.18087213769E+03  0.78104653574E+02 0.  0.
         23    2    1    2    0    0  0.86082423701E+01  0.30816658353E+02  0.31180065187E+02  0.10158598262E+03  0.91234572012E+02 0.  0.
        -13    1    3    3    0    0 -0.90525712906E+01  0.20926342694E+02  0.22443517547E+02  0.31993317199E+02  0.00000000000E+00 0.  1.
         14    1    3    3    0    0 -0.18105378488E+02 -0.67153309892E+02  0.13163408157E+03  0.14887882049E+03  0.00000000000E+00 0. -1.
        -11    1    4    4    0    0  0.41044609762E+02  0.45260763094E+02  0.17776815932E+02  0.63633417723E+02  0.00000000000E+00 0.  1.
         11    1    4    4    0    0 -0.32436367392E+02 -0.14444104741E+02  0.13403249255E+02  0.37952564893E+02  0.00000000000E+00 0. -1.
         21    1    1    2  503  502 -0.30259249329E+02  0.79122392391E+02  0.44276131506E+03  0.45079214419E+03  0.00000000000E+00 0. -1.
          1    1    1    2  501    0  0.48808956737E+02 -0.63712083546E+02  0.14333530562E+03  0.16427584632E+03  0.00000000000E+00 0. -1.
<scales pt_clust_5="13000.00000" pt_clust_6="13000.00000" pt_clust_7="13000.00000" pt_clust_8="13000.00000" pt_clust_9="84.71117" pt_clust_10="13000.00000"></scales>
<clustering>
<clus scale="   78.105">  5  6 -1 -1</clus>
<clus scale="   84.711">  2  9  1 -1</clus>
<clus scale="   89.764">  1  5  2 -1</clus>
<clus scale="   91.235">  7  8 -1 -1</clus>
<clus scale="   67.282">  7 10 -1 -1</clus>
<clus scale="   84.711">  2  5  1 -1</clus>
</clustering>
</event>
<event>
10    4  0.7508634E-005  0.1409124E+03  0.7546771E-02  0.1229546E+00
         21   -1    0    0  503  502  0.00000000000E+00  0.00000000000E+00  0.11987498552E+03  0.11987498552E+03  0.00000000000E+00 0.  1.
          2   -1    0    0  502    0 -0.00000000000E+00 -0.00000000000E+00 -0.46783744671E+03  0.46783744671E+03  0.00000000000E+00 0. -1.
         24    2    1    2    0    0  0.41795321566E+02  0.33719190877E+02 -0.35999055393E+03  0.37259526424E+03  0.79688137612E+02 0.  0.
         23    2    1    2    0    0 -0.31737160733E+02 -0.53268867719E+02 -0.51439562965E+02  0.12404602506E+03  0.94321620293E+02 0.  0.
        -13    1    3    3    0    0 -0.88839129129E+01  0.42233188593E+02 -0.13165266477E+03  0.13854598612E+03  0.00000000000E+00 0.  1.
         14    1    3    3    0    0  0.50679234479E+02 -0.85139977155E+01 -0.22833788916E+03  0.23404927812E+03  0.00000000000E+00 0. -1.
        -11    1    4    4    0    0 -0.91148868319E+01 -0.77894369002E+02 -0.43480840114E+02  0.89672723507E+02  0.00000000000E+00 0.  1.
         11    1    4    4    0    0 -0.22622273901E+02  0.24625501284E+02 -0.79587228511E+01  0.34373301548E+02  0.00000000000E+00 0. -1.
         21    1    1    2  503  501  0.18204719343E+02  0.28183299407E+02  0.45332816986E+02  0.56398355186E+02  0.00000000000E+00 0.  1.
          1    1    1    2  501    0 -0.28262880176E+02 -0.86336225657E+01  0.18134838729E+02  0.34672787748E+02  0.00000000000E+00 0. -1.
<scales pt_clust_5="13000.00000" pt_clust_6="13000.00000" pt_clust_7="13000.00000" pt_clust_8="13000.00000" pt_clust_9="33.55160" pt_clust_10="13000.00000"></scales>
<clustering>
<clus scale="   33.552">  1  9  2 -1</clus>
<clus scale="   79.688">  5  6 -1 -1</clus>
<clus scale="   94.322">  7  8 -1 -1</clus>
<clus scale="   21.406">  7 10 -1 -1</clus>
<clus scale="   97.755">  2  5  1 -1</clus>
<clus scale="   33.552">  1  5  2 -1</clus>
</clustering>
</event>
<event>
10    4  0.7508634E-005  0.3031611E+03  0.7546771E-02  0.1096131E+00
         21   -1    0    0  501  502  0.00000000000E+00  0.00000000000E+00  0.18685108358E+03  0.18685108358E+03  0.00000000000E+00 0. -1.
          2   -1    0    0  503    0 -0.00000000000E+00 -0.00000000000E+00 -0.77246390163E+03  0.77246390163E+03  0.00000000000E+00 0. -1.
         24    2    1    2    0    0 -0.96910881965E+02 -0.17519373799E+03 -0.55047959507E+03  0.59112604793E+03  0.79483678068E+02 0.  0.
         23    2    1    2    0    0  0.23594007640E+02  0.60508098003E+02  0.79514344795E+02  0.13761909538E+03  0.91643751914E+02 0.  0.
        -11    1    3    3    0    0 -0.73396011036E+02 -0.59807735896E+02 -0.19747969459E+03  0.21900267004E+03  0.00000000000E+00 0.  1.
         12    1    3    3    0    0 -0.23514870929E+02 -0.11538600209E+03 -0.35299990048E+03  0.37212337789E+03  0.00000000000E+00 0. -1.
        -13    1    4    4    0    0 -0.13430782520E+02 -0.16383150587E+02  0.30998900366E+00  0.21187015727E+02  0.00000000000E+00 0.  1.
         13    1    4    4    0    0  0.37024790160E+02  0.76891248590E+02  0.79204355792E+02  0.11643207965E+03  0.00000000000E+00 0. -1.
         21    1    1    2  503  502 -0.30822468688E+02 -0.11754182474E+02 -0.36113412923E+02  0.48911797908E+02  0.00000000000E+00 0.  1.
          1    1    1    2  501    0  0.10413934301E+03  0.12643982246E+03 -0.78534154855E+02  0.18165804399E+03  0.00000000000E+00 0. -1.
<scales pt_clust_5="13000.00000" pt_clust_6="13000.00000" pt_clust_7="13000.00000" pt_clust_8="13000.00000" pt_clust_9="32.98767" pt_clust_10="13000.00000"></scales>
<clustering>
<clus scale="   32.988">  1  9  2 -1</clus>
<clus scale="   79.484">  5  6 -1 -1</clus>
<clus scale="   91.644">  7  8 -1 -1</clus>
<clus scale="  155.683">  7 10 -1 -1</clus>
<clus scale="  218.066">  2  5  1 -1</clus>
<clus scale="   32.988">  1  5  2 -1</clus>
</clustering>
</event>
<event>
10    4  0.7508634E-005  0.2980086E+03  0.7546771E-02  0.1134248E+00
         21   -1    0    0  503  502  0.00000000000E+00  0.00000000000E+00  0.34640897989E+03  0.34640897989E+03  0.00000000000E+00 0.  1.
          2   -1    0    0  502    0 -0.00000000000E+00 -0.00000000000E+00 -0.14223325299E+04  0.14223325299E+04  0.00000000000E+00 0. -1.
         24    2    1    2    0    0  0.11769845570E+02 -0.20349496858E+02 -0.78558592379E+03  0.79046914251E+03  0.84519762882E+02 0.  0.
         23    2    1    2    0    0  0.46434943426E+02  0.45698127823E+02 -0.28609213731E+03  0.30642159379E+03  0.88323039214E+02 0.  0.
        -13    1    3    3    0    0  0.41841064551E+02 -0.68634839766E+01 -0.22792747629E+03  0.23183769440E+03  0.00000000000E+00 0.  1.
         14    1    3    3    0    0 -0.30071218981E+02 -0.13486012882E+02 -0.55765844750E+03  0.55863144812E+03  0.00000000000E+00 0. -1.
        -13    1    4    4    0    0 -0.23715910812E+02  0.18195269161E+02 -0.46665139542E+02  0.55417934768E+02  0.00000000000E+00 0. -1.
         13    1    4    4    0    0  0.70150854239E+02  0.27502858661E+02 -0.23942699776E+03  0.25100365902E+03  0.00000000000E+00 0.  1.
         21    1    1    2  503  501  0.11758951160E+02  0.13563139449E+03  0.29501497988E+03  0.32491227502E+03  0.00000000000E+00 0.  1.
          1    1    1    2  501    0 -0.69963740156E+02 -0.16098002546E+03 -0.29926046876E+03  0.34693849844E+03  0.00000000000E+00 0. -1.
<scales pt_clust_5="13000.00000" pt_clust_6="13000.00000" pt_clust_7="13000.00000" pt_clust_8="13000.00000" pt_clust_9="135.68672" pt_clust_10="13000.00000"></scales>
<clustering>
<clus scale="   84.520">  5  6 -1 -1</clus>
<clus scale="   87.728">  2  5  1 -1</clus>
<clus scale="   88.323">  7  8 -1 -1</clus>
<clus scale="  135.687">  1  9  2 -1</clus>
<clus scale="   95.614">  7 10 -1 -1</clus>
<clus scale="  135.687">  1  5  2 -1</clus>
</clustering>
</event>
<event>
10    4  0.7508634E-005  0.1939835E+03  0.7546771E-02  0.1182641E+00
         21   -1    0    0  501  502  0.00000000000E+00  0.00000000000E+00  0.31111181382E+02  0.31111181382E+02  0.00000000000E+00 0. -1.
          2   -1    0    0  503    0 -0.00000000000E+00 -0.00000000000E+00 -0.11556353088E+04  0.11556353088E+04  0.00000000000E+00 0. -1.
         24    2    1    2    0    0  0.58895002536E+02 -0.31609220831E+02 -0.64369738496E+03  0.65225807224E+03  0.81403349047E+02 0.  0.
         23    2    1    2    0    0 -0.91972879304E+02  0.26914139442E+01 -0.26263153847E+03  0.29333744654E+03  0.92764639321E+02 0.  0.
        -13    1    3    3    0    0  0.63970902495E+02 -0.46082541686E+01 -0.26840985610E+03  0.27596623566E+03  0.00000000000E+00 0.  1.
         14    1    3    3    0    0 -0.50758999592E+01 -0.27000966663E+02 -0.37528752886E+03  0.37629183659E+03  0.00000000000E+00 0. -1.
        -13    1    4    4    0    0 -0.27260171505E+02  0.44120611604E+02 -0.81766381112E+02  0.96827095376E+02  0.00000000000E+00 0.  1.
         13    1    4    4    0    0 -0.64712707800E+02 -0.41429197660E+02 -0.18086515736E+03  0.19651035116E+03  0.00000000000E+00 0. -1.
         21    1    1    2  503  502 -0.15165091999E+02  0.18292085991E+02 -0.77609634795E+01  0.24996259308E+02  0.00000000000E+00 0.  1.
          1    1    1    2  501    0  0.48242968767E+02  0.10625720896E+02 -0.21043424049E+03  0.21615471207E+03  0.00000000000E+00 0. -1.
<scales pt_clust_5="13000.00000" pt_clust_6="13000.00000" pt_clust_7="13000.00000" pt_clust_8="13000.00000" pt_clust_9="23.76090" pt_clust_10="13000.00000"></scales>
<clustering>
<clus scale="   23.761">  1  9  2 -1</clus>
<clus scale="   81.403">  5  6 -1 -1</clus>
<clus scale="   92.765">  7  8 -1 -1</clus>
<clus scale="   48.091">  7 10 -1 -1</clus>
<clus scale="  102.736">  2  5  1 -1</clus>
<clus scale="   23.761">  1  5  2 -1</clus>
</clustering>
</event>
<event>
10    4  0.7508634E-005  0.2983089E+03  0.7546771E-02  0.1137043E+00
          2   -1    0    0  502    0 -0.00000000000E+00  0.00000000000E+00  0.11050230595E+03  0.11050230595E+03  0.00000000000E+00 0. -1.
         21   -1    0    0  503  502  0.00000000000E+00 -0.00000000000E+00 -0.67954658531E+03  0.67954658531E+03  0.00000000000E+00 0.  1.
         24    2    1    2    0    0 -0.40734876302E+01  0.91245301566E+01 -0.43852348454E+02  0.92462643205E+02  0.80786518500E+02 0.  0.
         23    2    1    2    0    0 -0.43984917384E+02 -0.78703883085E+02 -0.23920813534E+03  0.27155279628E+03  0.91604666821E+02 0.  0.
        -13    1    3    3    0    0 -0.32564047789E+02 -0.16529115995E+02 -0.33174154907E+01  0.36669253190E+02  0.00000000000E+00 0.  1.
         14    1    3    3    0    0  0.28490560159E+02  0.25653646151E+02 -0.40534932964E+02  0.55793390015E+02  0.00000000000E+00 0. -1.
        -13    1    4    4    0    0 -0.25730464381E+02  0.12572627675E+02 -0.10054234571E+03  0.10454133654E+03  0.00000000000E+00 0. -1.
         13    1    4    4    0    0 -0.18254453003E+02 -0.91276510760E+02 -0.13866578963E+03  0.16701145974E+03  0.00000000000E+00 0.  1.
         21    1    1    2  503  501  0.43811402540E+02  0.10888144731E+02 -0.34189484156E+03  0.34486239773E+03  0.00000000000E+00 0.  1.
          1    1    1    2  501    0  0.42470024738E+01  0.58691208197E+02  0.55911046000E+02  0.81171054043E+02  0.00000000000E+00 0. -1.
<scales pt_clust_5="13000.00000" pt_clust_6="13000.00000" pt_clust_7="13000.00000" pt_clust_8="13000.00000" pt_clust_9="45.14411" pt_clust_10="13000.00000"></scales>
<clustering>
<clus scale="   45.144">  2  9  1 -1</clus>
<clus scale="   80.787">  5  6 -1 -1</clus>
<clus scale="   81.719">  1  5  2 -1</clus>
<clus scale="   91.605">  7  8 -1 -1</clus>
<clus scale="   69.090">  7 10 -1 -1</clus>
<clus scale="   45.144">  2  5  1 -1</clus>
</clustering>
</event>
<event>
10    4  0.7508634E-005  0.1538259E+03  0.7546771E-02  0.1205162E+00
         21   -1    0    0  503  502  0.00000000000E+00  0.00000000000E+00  0.12491555286E+03  0.12491555286E+03  0.00000000000E+00 0.  1.
         -1   -1    0    0    0  501 -0.00000000000E+00 -0.00000000000E+00 -0.51996143568E+03  0.51996143568E+03  0.00000000000E+00 0.  1.
         24    2    1    2    0    0 -0.60365394866E+02 -0.10312478067E+03 -0.69243992187E+00  0.14319227554E+03  0.78897699691E+02 0.  0.
         23    2    1    2    0    0  0.38484932089E+02  0.57157794760E+02 -0.24619111438E+03  0.27016964159E+03  0.87369714083E+02 0.  0.
        -11    1    3    3    0    0 -0.75323901765E+02 -0.67109640499E+02 -0.14293262238E+02  0.10189058529E+03  0.00000000000E+00 0.  1.
         12    1    3    3    0    0  0.14958506899E+02 -0.36015140173E+02  0.13600822316E+02  0.41301690256E+02  0.00000000000E+00 0. -1.
        -11    1    4    4    0    0  0.60183304718E+02  0.64635979512E+02 -0.19643238479E+03  0.21537298301E+03  0.00000000000E+00 0.  1.
         11    1    4    4    0    0 -0.21698372629E+02 -0.74781847525E+01 -0.49758729592E+02  0.54796658589E+02  0.00000000000E+00 0. -1.
         21    1    1    2  503  501  0.15168144623E+02  0.20804405848E+02  0.36698204418E+02  0.44829165970E+02  0.00000000000E+00 0.  1.
         -2    1    1    2    0  502  0.67123181529E+01  0.25162580064E+02 -0.18486053293E+03  0.18668590543E+03  0.00000000000E+00 0.  1.
<scales pt_clust_5="13000.00000" pt_clust_6="13000.00000" pt_clust_7="13000.00000" pt_clust_8="13000.00000" pt_clust_9="25.74677" pt_clust_10="13000.00000"></scales>
<clustering>
<clus scale="   25.747">  1  9  2 -1</clus>
<clus scale="   78.898">  5  6 -1 -1</clus>
<clus scale="   87.370">  7  8 -1 -1</clus>
<clus scale="   26.303">  7 10 -1 -1</clus>
<clus scale="  125.679">  2  5  1 -1</clus>
<clus scale="   25.747">  1  5  2 -1</clus>
</clustering>
</event>
<event>
10    4  0.7508634E-005  0.2476657E+03  0.7546771E-02  0.1146246E+00
          2   -1    0    0  503    0 -0.00000000000E+00  0.00000000000E+00  0.40090337567E+03  0.40090337567E+03  0.00000000000E+00 0. -1.
         21   -1    0    0  501  502  0.00000000000E+00 -0.00000000000E+00 -0.35305304332E+03  0.35305304332E+03  0.00000000000E+00 0. -1.
         24    2    1    2    0    0 -0.66465325885E+02  0.46333639290E+02  0.64969228808E+02  0.13159907639E+03  0.80826174846E+02 0.  0.
         23    2    1    2    0    0 -0.19948053854E+02  0.45240610466E+02  0.19219824044E+03  0.21771254849E+03  0.89520681710E+02 0.  0.
        -13    1    3    3    0    0  0.42510415214E+01  0.28996390985E+02 -0.60097867792E+01  0.29916209340E+02  0.00000000000E+00 0.  1.
         14    1    3    3    0    0 -0.70716367407E+02  0.17337248306E+02  0.70979015588E+02  0.10168286705E+03  0.00000000000E+00 0. -1.
        -11    1    4    4    0    0 -0.39390386926E+01 -0.27464768819E+02  0.55940245778E+02  0.62443099297E+02  0.00000000000E+00 0.  1.
         11    1    4    4    0    0 -0.16009015161E+02  0.72705379284E+02  0.13625799467E+03  0.15526944920E+03  0.00000000000E+00 0. -1.
         21    1    1    2  503  502  0.15202116365E+03 -0.13195338202E+03 -0.24720141861E+03  0.31879565647E+03  0.00000000000E+00 0. -1.
          1    1    1    2  501    0 -0.65607783907E+02  0.40379132262E+02  0.37884281709E+02  0.85849137631E+02  0.00000000000E+00 0. -1.
<scales pt_clust_5="13000.00000" pt_clust_6="13000.00000" pt_clust_7="13000.00000" pt_clust_8="13000.00000" pt_clust_9="191.77355" pt_clust_10="13000.00000"></scales>
<clustering>
<clus scale="   80.826">  5  6 -1 -1</clus>
<clus scale="   89.521">  7  8 -1 -1</clus>
<clus scale="   77.038">  7 10 -1 -1</clus>
<clus scale="  114.444">  1  5  2 -1</clus>
<clus scale="  191.774">  2  9  1 -1</clus>
<clus scale="  191.774">  2  5  1 -1</clus>
</clustering>
</event>
<event>
10    4  0.7508634E-005  0.2823671E+03  0.7546771E-02  0.1142280E+00
          2   -1    0    0  503    0 -0.00000000000E+00  0.00000000000E+00  0.46448494799E+03  0.46448494799E+03  0.00000000000E+00 0. -1.
         21   -1    0    0  501  502  0.00000000000E+00 -0.00000000000E+00 -0.17013196445E+03  0.17013196445E+03  0.00000000000E+00 0. -1.
         24    2    1    2    0    0  0.56901495002E+01 -0.15245317566E+02  0.15940386539E+02  0.85043818912E+02  0.81936302718E+02 0.  0.
         23    2    1    2    0    0 -0.25895115751E+02  0.14490711797E+02  0.39690079059E+03  0.40850013237E+03  0.91986862247E+02 0.  0.
        -11    1    3    3    0    0 -0.13703103496E+02  0.17028117330E+02  0.36200347454E+02  0.42287078180E+02  0.00000000000E+00 0.  1.
         12    1    3    3    0    0  0.19393252996E+02 -0.32273434895E+02 -0.20259960915E+02  0.42756740732E+02  0.00000000000E+00 0. -1.
        -13    1    4    4    0    0 -0.54381642775E+02  0.29204770573E+02  0.30453183092E+03  0.31072482640E+03  0.00000000000E+00 0. -1.
         13    1    4    4    0    0  0.28486527024E+02 -0.14714058777E+02  0.92368959665E+02  0.97775305968E+02  0.00000000000E+00 0.  1.
         21    1    1    2  503  502 -0.16544836676E+02 -0.16910095327E+02 -0.85236337203E+02  0.88458555970E+02  0.00000000000E+00 0. -1.
          1    1    1    2  501    0  0.36749802927E+02  0.17664701096E+02 -0.33251856388E+02  0.52614405187E+02  0.00000000000E+00 0. -1.
<scales pt_clust_5="13000.00000" pt_clust_6="13000.00000" pt_clust_7="13000.00000" pt_clust_8="13000.00000" pt_clust_9="23.65762" pt_clust_10="13000.00000"></scales>
<clustering>
<clus scale="   23.658">  2  9  1 -1</clus>
<clus scale="   81.936">  5  6 -1 -1</clus>
<clus scale="   84.915">  1  5  2 -1</clus>
<clus scale="   91.987">  7  8 -1 -1</clus>
<clus scale="   29.478">  7 10 -1 -1</clus>
<clus scale="   23.658">  2  5  1 -1</clus>
</clustering>
</event>
<event>
10    4  0.7508634E-005  0.2929626E+03  0.7546771E-02  0.1127923E+00
         21   -1    0    0  503  502  0.00000000000E+00  0.00000000000E+00  0.20460208977E+03  0.20460208977E+03  0.00000000000E+00 0. -1.
          2   -1    0    0  502    0 -0.00000000000E+00 -0.00000000000E+00 -0.10239856254E+04  0.10239856254E+04  0.00000000000E+00 0. -1.
         24    2    1    2    0    0  0.57430389624E+02 -0.17732683516E+02  0.15801837566E+02  0.96634764361E+02  0.73999201993E+02 0.  0.
         23    2    1    2    0    0 -0.14233396003E+03  0.74931694562E+01 -0.83548883275E+03  0.85221636105E+03  0.88972089061E+02 0.  0.
        -11    1    3    3    0    0 -0.41230743174E+01 -0.31739466427E+02  0.23638787488E+01  0.32093323194E+02  0.00000000000E+00 0.  1.
         12    1    3    3    0    0  0.61553463941E+02  0.14006782911E+02  0.13437958817E+02  0.64541441167E+02  0.00000000000E+00 0. -1.
        -11    1    4    4    0    0 -0.24498528036E+02 -0.32920110724E+02 -0.15060162780E+03  0.15609215823E+03  0.00000000000E+00 0.  1.
         11    1    4    4    0    0 -0.11783543200E+03  0.40413280180E+02 -0.68488720495E+03  0.69612420282E+03  0.00000000000E+00 0. -1.
         21    1    1    2  503  501  0.10957176585E+02 -0.35903089239E+02  0.12335629594E+03  0.12894133272E+03  0.00000000000E+00 0. -1.
          1    1    1    2  501    0  0.73946393822E+02  0.46142603299E+02 -0.12305283637E+03  0.15079525701E+03  0.00000000000E+00 0. -1.
<scales pt_clust_5="13000.00000" pt_clust_6="13000.00000" pt_clust_7="13000.00000" pt_clust_8="13000.00000" pt_clust_9="37.53787" pt_clust_10="13000.00000"></scales>
<clustering>
<clus scale="   37.538">  1  9  2 -1</clus>
<clus scale="   73.999">  5  6 -1 -1</clus>
<clus scale="   88.972">  7  8 -1 -1</clus>
<clus scale="   85.685">  7 10 -1 -1</clus>
<clus scale="  107.826">  2  5  1 -1</clus>
<clus scale="   37.538">  1  5  2 -1</clus>
</clustering>
</event>
<event>
10    4  0.7508634E-005  0.3189426E+03  0.7546771E-02  0.1108593E+00
         -1   -1    0    0    0  501 -0.00000000000E+00  0.00000000000E+00  0.21506475179E+03  0.21506475179E+03  0.00000000000E+00 0.  1.
         21   -1    0    0  501  502  0.00000000000E+00 -0.00000000000E+00 -0.78209785174E+03  0.78209785174E+03  0.00000000000E+00 0.  1.
         24    2    1    2    0    0  0.59759331102E+02  0.10530978471E+03  0.30956643093E+02  0.14867136915E+03  0.80520393962E+02 0.  0.
         23    2    1    2    0    0  0.97737646807E+02 -0.10428559998E+03 -0.14115824638E+03  0.22160111566E+03  0.93558911769E+02 0.  0.
        -11    1    3    3    0    0 -0.57473235848E+01  0.20736349041E+02 -0.20716223732E+02  0.29869546794E+02  0.00000000000E+00 0.  1.
         12    1    3    3    0    0  0.65506654686E+02  0.84573435673E+02  0.51672866825E+02  0.11880182236E+03  0.00000000000E+00 0. -1.
        -11    1    4    4    0    0 -0.44572906377E+01 -0.52436388196E+02 -0.66614679407E+02  0.84893802832E+02  0.00000000000E+00 0.  1.
         11    1    4    4    0    0  0.10219493744E+03 -0.51849211788E+02 -0.74543566976E+02  0.13670731283E+03  0.00000000000E+00 0. -1.
         21    1    1    2  503  502 -0.80701778741E+02 -0.18562205764E+02 -0.51960657400E+03  0.52616378089E+03  0.00000000000E+00 0.  1.
         -2    1    1    2    0  503 -0.76795199168E+02  0.17538021034E+02  0.62775077343E+02  0.10072633783E+03  0.00000000000E+00 0.  1.
<scales pt_clust_5="13000.00000" pt_clust_6="13000.00000" pt_clust_7="13000.00000" pt_clust_8="13000.00000" pt_clust_9="82.80901" pt_clust_10="13000.00000"></scales>
<clustering>
<clus scale="   80.520">  5  6 -1 -1</clus>
<clus scale="   82.809">  2  9  1 -1</clus>
<clus scale="   93.559">  7  8 -1 -1</clus>
<clus scale="   84.271">  7 10 -1 -1</clus>
<clus scale="  135.722">  1  5  2 -1</clus>
<clus scale="   82.809">  2  5  1 -1</clus>
</clustering>
</event>
<event>
10    4  0.7508634E-005  0.2830667E+03  0.7546771E-02  0.1135971E+00
         -1   -1    0    0    0  501 -0.00000000000E+00  0.00000000000E+00  0.20062761516E+03  0.20062761516E+03  0.00000000000E+00 0.  1.
         21   -1    0    0  501  502  0.00000000000E+00 -0.00000000000E+00 -0.28006622498E+03  0.28006622498E+03  0.00000000000E+00 0.  1.
         24    2    1    2    0    0  0.56191004063E+01  0.53490083121E+02  0.18906755956E+02  0.98014664731E+02  0.79728575804E+02 0.  0.
         23    2    1    2    0    0 -0.39066963954E+02 -0.30795275297E+02  0.11783615627E+03  0.15706273866E+03  0.91152440993E+02 0.  0.
        -11    1    3    3    0    0 -0.28136669726E+02  0.19710407247E+02 -0.16939593044E+02  0.38303030554E+02  0.00000000000E+00 0.  1.
         12    1    3    3    0    0  0.33755770132E+02  0.33779675874E+02  0.35846349000E+02  0.59711634177E+02  0.00000000000E+00 0. -1.
        -13    1    4    4    0    0 -0.18603385818E+02 -0.48391859577E+02  0.19993725108E+02  0.55566240478E+02  0.00000000000E+00 0. -1.
         13    1    4    4    0    0 -0.20463578136E+02  0.17596584280E+02  0.97842431158E+02  0.10149649818E+03  0.00000000000E+00 0.  1.
         21    1    1    2  503  502  0.24827634868E+02  0.12865644968E+02 -0.91772567985E+02  0.95938211929E+02  0.00000000000E+00 0.  1.
         -2    1    1    2    0  503  0.86202286790E+01 -0.35560452792E+02 -0.12440895405E+03  0.12967822482E+03  0.00000000000E+00 0.  1.
<scales pt_clust_5="13000.00000" pt_clust_6="13000.00000" pt_clust_7="13000.00000" pt_clust_8="13000.00000" pt_clust_9="27.96312" pt_clust_10="13000.00000"></scales>
<clustering>
<clus scale="   27.963">  2  9  1 -1</clus>
<clus scale="   79.729">  5  6 -1 -1</clus>
<clus scale="   91.152">  7  8 -1 -1</clus>
<clus scale="   37.021">  7 10 -1 -1</clus>
<clus scale="   98.165">  1  5  2 -1</clus>
<clus scale="   27.963">  2  5  1 -1</clus>
</clustering>
</event>
<event>
10    4  0.7508634E-005  0.2434383E+03  0.7546771E-02  0.1135142E+00
          2   -1    0    0  502    0 -0.00000000000E+00  0.00000000000E+00  0.78296920490E+03  0.78296920490E+03  0.00000000000E+00 0. -1.
         21   -1    0    0  503  502  0.00000000000E+00 -0.00000000000E+00 -0.10822271400E+03  0.10822271400E+03  0.00000000000E+00 0. -1.
         24    2    1    2    0    0  0.10260483802E+03  0.47005028220E+02  0.41913161617E+02  0.14462877340E+03  0.80147011895E+02 0.  0.
         23    2    1    2    0    0  0.16754029936E+02 -0.18257261073E+02  0.20594947247E+03  0.22655292630E+03  0.91087969039E+02 0.  0.
        -11    1    3    3    0    0  0.72682763672E+02  0.80092284791E+01  0.57544803280E+02  0.93050181410E+02  0.00000000000E+00 0.  1.
         12    1    3    3    0    0  0.29922074349E+02  0.38995799741E+02 -0.15631641663E+02  0.51578591992E+02  0.00000000000E+00 0. -1.
        -11    1    4    4    0    0  0.15677385334E+02  0.33631469221E+02  0.50487577028E+02  0.62656616307E+02  0.00000000000E+00 0.  1.
         11    1    4    4    0    0  0.10766446021E+01 -0.51888730294E+02  0.15546189545E+03  0.16389631000E+03  0.00000000000E+00 0. -1.
         21    1    1    2  503  501  0.21876963463E+02  0.29124769478E+02 -0.24247172586E+02  0.43758189016E+02  0.00000000000E+00 0.  1.
          1    1    1    2  501    0 -0.14123583142E+03 -0.57872536625E+02  0.45113102939E+03  0.47625203018E+03  0.00000000000E+00 0. -1.
<scales pt_clust_5="13000.00000" pt_clust_6="13000.00000" pt_clust_7="13000.00000" pt_clust_8="13000.00000" pt_clust_9="36.42600" pt_clust_10="13000.00000"></scales>
<clustering>
<clus scale="   36.426">  2  9  1 -1</clus>
<clus scale="   80.147">  5  6 -1 -1</clus>
<clus scale="   91.088">  7  8 -1 -1</clus>
<clus scale="  147.372">  7 10 -1 -1</clus>
<clus scale="  157.471">  1  5  2 -1</clus>
<clus scale="   36.426">  2  5  1 -1</clus>
</clustering>
</event>
<event>
10    4  0.7508634E-005  0.2627463E+03  0.7546771E-02  0.1133662E+00
         21   -1    0    0  503  502  0.00000000000E+00  0.00000000000E+00  0.14861771476E+03  0.14861771476E+03  0.00000000000E+00 0. -1.
          2   -1    0    0  502    0 -0.00000000000E+00 -0.00000000000E+00 -0.37774236428E+03  0.37774236428E+03  0.00000000000E+00 0. -1.
         24    2    1    2    0    0  0.29141439404E+02  0.72193962489E+02 -0.26338650847E+02  0.11607488468E+03  0.81966228501E+02 0.  0.
         23    2    1    2    0    0  0.63898409450E+02 -0.38434128902E+02 -0.79131007307E+02  0.13990001069E+03  0.88034695882E+02 0.  0.
        -13    1    3    3    0    0  0.31736944015E+02  0.77237012656E+02 -0.46191532575E+02  0.95427707826E+02  0.00000000000E+00 0.  1.
         14    1    3    3    0    0 -0.25955046108E+01 -0.50430501664E+01  0.19852881727E+02  0.20647176854E+02  0.00000000000E+00 0. -1.
        -13    1    4    4    0    0  0.34138189776E+02  0.26973236184E+02 -0.30282263562E+02  0.53009310105E+02  0.00000000000E+00 0. -1.
         13    1    4    4    0    0  0.29760219674E+02 -0.65407365087E+02 -0.48848743746E+02  0.86890700585E+02  0.00000000000E+00 0.  1.
         21    1    1    2  503  501  0.48919755482E+02  0.51552514591E+02 -0.59796211615E+02  0.92878367560E+02  0.00000000000E+00 0. -1.
          1    1    1    2  501    0 -0.14195960434E+03 -0.85312348178E+02 -0.63858779750E+02  0.17750681611E+03  0.00000000000E+00 0. -1.
<scales pt_clust_5="13000.00000" pt_clust_6="13000.00000" pt_clust_7="13000.00000" pt_clust_8="13000.00000" pt_clust_9="71.06905" pt_clust_10="13000.00000"></scales>
<clustering>
<clus scale="   71.069">  1  9  2 -1</clus>
<clus scale="   81.966">  5  6 -1 -1</clus>
<clus scale="   88.035">  7  8 -1 -1</clus>
<clus scale="  129.845">  2  5  1 -1</clus>
<clus scale="  104.074">  7 10 -1 -1</clus>
<clus scale="   71.069">  1  5  2 -1</clus>
</clustering>
</event>
<event>
10    4  0.7508634E-005  0.4656114E+03  0.7546771E-02  0.1078897E+00
         21   -1    0    0  501  502  0.00000000000E+00  0.00000000000E+00  0.90753935390E+02  0.90753935390E+02  0.00000000000E+00 0.  1.
          2   -1    0    0  503    0 -0.00000000000E+00 -0.00000000000E+00 -0.15346719615E+04  0.15346719615E+04  0.00000000000E+00 0. -1.
         24    2    1    2    0    0 -0.45655447191E+00 -0.52423421854E+02 -0.15385418671E+03  0.18069775421E+03  0.78943929514E+02 0.  0.
         23    2    1    2    0    0 -0.14466393210E+03  0.27139295860E+02 -0.19730221693E+03  0.26233116425E+03  0.90693331054E+02 0.  0.
        -13    1    3    3    0    0  0.15751241801E+02 -0.18727229419E+02 -0.22765154724E+01  0.24576274385E+02  0.00000000000E+00 0.  1.
         14    1    3    3    0    0 -0.16207796272E+02 -0.33696192435E+02 -0.15157767124E+03  0.15612147982E+03  0.00000000000E+00 0. -1.
        -13    1    4    4    0    0 -0.39055391118E+02  0.57505808018E+01 -0.23058524166E+01  0.39543769551E+02  0.00000000000E+00 0. -1.
         13    1    4    4    0    0 -0.10560854098E+03  0.21388715058E+02 -0.19499636452E+03  0.22278739470E+03  0.00000000000E+00 0.  1.
         21    1    1    2  503  502 -0.39437262637E+02  0.13958336442E+01  0.26652526175E+02  0.47619357276E+02  0.00000000000E+00 0.  1.
          1    1    1    2  501    0  0.18455774921E+03  0.23888292350E+02 -0.11194141486E+04  0.11347776211E+04  0.00000000000E+00 0. -1.
<scales pt_clust_5="13000.00000" pt_clust_6="13000.00000" pt_clust_7="13000.00000" pt_clust_8="13000.00000" pt_clust_9="39.46196" pt_clust_10="13000.00000"></scales>
<clustering>
<clus scale="   39.462">  1  9  2 -1</clus>
<clus scale="   78.944">  5  6 -1 -1</clus>
<clus scale="   90.693">  7  8 -1 -1</clus>
<clus scale="   95.134">  2  5  1 -1</clus>
<clus scale="  171.646">  7 10 -1 -1</clus>
<clus scale="   39.462">  1  5  2 -1</clus>
</clustering>
</event>
<event>
10    4  0.7508634E-005  0.4036702E+03  0.7546771E-02  0.1049600E+00
          2   -1    0    0  503    0 -0.00000000000E+00  0.00000000000E+00  0.28639776106E+03  0.28639776106E+03  0.00000000000E+00 0. -1.
         21   -1    0    0  501  502  0.00000000000E+00 -0.00000000000E+00 -0.60981057755E+03  0.60981057755E+03  0.00000000000E+00 0. -1.
         24    2    1    2    0    0  0.22793252419E+03 -0.23005457199E+03  0.20406621176E+02  0.33496120302E+03  0.83091730390E+02 0.  0.
         23    2    1    2    0    0 -0.14750955482E+03  0.19781179518E+03 -0.28276975520E+03  0.38563218155E+03  0.88684101828E+02 0.  0.
        -11    1    3    3    0    0  0.32955756933E+02 -0.17477230115E+01  0.10246584092E+02  0.34556170742E+02  0.00000000000E+00 0.  1.
         12    1    3    3    0    0  0.19497676725E+03 -0.22830684898E+03  0.10160037084E+02  0.30040503227E+03  0.00000000000E+00 0. -1.
        -13    1    4    4    0    0 -0.33323137235E+02  0.12458108014E+02 -0.10632219026E+02  0.37130580549E+02  0.00000000000E+00 0.  1.
         13    1    4    4    0    0 -0.11418641759E+03  0.18535368716E+03 -0.27213753617E+03  0.34850160100E+03  0.00000000000E+00 0. -1.
         21    1    1    2  503  502 -0.24989100227E+00  0.24248853213E+02 -0.87512161201E+02  0.90809953671E+02  0.00000000000E+00 0. -1.
          1    1    1    2  501    0 -0.80173078362E+02  0.79939236064E+01  0.26462478733E+02  0.84805000379E+02  0.00000000000E+00 0. -1.
<scales pt_clust_5="13000.00000" pt_clust_6="13000.00000" pt_clust_7="13000.00000" pt_clust_8="13000.00000" pt_clust_9="24.25014" pt_clust_10="13000.00000"></scales>
<clustering>
<clus scale="   24.250">  2  9  1 -1</clus>
<clus scale="   83.092">  5  6 -1 -1</clus>
<clus scale="   88.684">  7  8 -1 -1</clus>
<clus scale="   80.731">  7 10 -1 -1</clus>
<clus scale="  329.289">  1  5  2 -1</clus>
<clus scale="   24.250">  2  5  1 -1</clus>
</clustering>
</event>
<event>
10    4  0.7508634E-005  0.2957004E+03  0.7546771E-02  0.1127765E+00
          2   -1    0    0  502    0 -0.00000000000E+00  0.00000000000E+00  0.44013150674E+03  0.44013150674E+03  0.00000000000E+00 0. -1.
         21   -1    0    0  503  502  0.00000000000E+00 -0.00000000000E+00 -0.12068241824E+03  0.12068241824E+03  0.00000000000E+00 0.  1.
         24    2    1    2    0    0  0.71519576357E+02  0.33951881869E+01  0.73469190897E+02  0.13098572731E+03  0.81442996274E+02 0.  0.
         23    2    1    2    0    0 -0.11612048842E+03  0.55081546906E+02  0.39363147093E+02  0.16228941501E+03  0.90942026782E+02 0.  0.
        -13    1    3    3    0    0  0.58180278319E+02  0.22629645537E+02  0.84541377748E+02  0.10509181792E+03  0.00000000000E+00 0.  1.
         14    1    3    3    0    0  0.13339298037E+02 -0.19234457350E+02 -0.11072186850E+02  0.25893909387E+02  0.00000000000E+00 0. -1.
        -13    1    4    4    0    0 -0.92924383153E+02 -0.36638516408E+01  0.13212300654E+02  0.93930451302E+02  0.00000000000E+00 0.  1.
         13    1    4    4    0    0 -0.23196105266E+02  0.58745398546E+02  0.26150846439E+02  0.68358963709E+02  0.00000000000E+00 0. -1.
         21    1    1    2  503  501 -0.16833756625E+02 -0.30572863609E+02 -0.13417461149E+02  0.37391223770E+02  0.00000000000E+00 0.  1.
          1    1    1    2  501    0  0.61434668688E+02 -0.27903871484E+02  0.22003421166E+03  0.23014755889E+03  0.00000000000E+00 0. -1.
<scales pt_clust_5="13000.00000" pt_clust_6="13000.00000" pt_clust_7="13000.00000" pt_clust_8="13000.00000" pt_clust_9="34.90094" pt_clust_10="13000.00000"></scales>
<clustering>
<clus scale="   34.901">  2  9  1 -1</clus>
<clus scale="   81.443">  5  6 -1 -1</clus>
<clus scale="   90.942">  7  8 -1 -1</clus>
<clus scale="   67.358">  7 10 -1 -1</clus>
<clus scale="  105.267">  1  5  2 -1</clus>
<clus scale="   34.901">  2  5  1 -1</clus>
</clustering>
</event>
<event>
10    4  0.7508634E-005  0.2927389E+03  0.7546771E-02  0.1122399E+00
         21   -1    0    0  503  502  0.00000000000E+00  0.00000000000E+00  0.10898919380E+03  0.10898919380E+03  0.00000000000E+00 0.  1.
         -3   -1    0    0    0  501 -0.00000000000E+00 -0.00000000000E+00 -0.56533733475E+03  0.56533733475E+03  0.00000000000E+00 0.  1.
         24    2    1    2    0    0 -0.70251428699E+02  0.94993338297E+02 -0.85103641694E+02  0.16561311772E+03  0.78905496494E+02 0.  0.
         23    2    1    2    0    0 -0.10418261989E+03 -0.49587409740E+02 -0.94797102959E+02  0.17577710389E+03  0.92726317890E+02 0.  0.
        -11    1    3    3    0    0 -0.31276757998E+02  0.96219932814E+02 -0.73076110131E+02  0.12480636576E+03  0.00000000000E+00 0.  1.
         12    1    3    3    0    0 -0.38974670701E+02 -0.12265945179E+01 -0.12027531563E+02  0.40806751965E+02  0.00000000000E+00 0. -1.
        -13    1    4    4    0    0  0.13492534897E+00 -0.38185071530E+02 -0.67151081427E+01  0.38771259587E+02  0.00000000000E+00 0. -1.
         13    1    4    4    0    0 -0.10431754524E+03 -0.11402338211E+02 -0.88081994816E+02  0.13700584430E+03  0.00000000000E+00 0.  1.
         21    1    1    2  503  501  0.56126315223E+02 -0.28142503484E+02 -0.67400083022E+02  0.92113706658E+02  0.00000000000E+00 0.  1.
         -4    1    1    2    0  502  0.11830773337E+03 -0.17263425072E+02 -0.20904731328E+03  0.24082260029E+03  0.00000000000E+00 0.  1.
<scales pt_clust_5="13000.00000" pt_clust_6="13000.00000" pt_clust_7="13000.00000" pt_clust_8="13000.00000" pt_clust_9="62.78668" pt_clust_10="13000.00000"></scales>
<clustering>
<clus scale="   62.787">  1  9  2 -1</clus>
<clus scale="   78.905">  5  6 -1 -1</clus>
<clus scale="   92.726">  7  8 -1 -1</clus>
<clus scale="  123.923">  2  5  1 -1</clus>
<clus scale="  102.498">  7 10 -1 -1</clus>
<clus scale="   62.787">  1  5  2 -1</clus>
</clustering>
</event>
<event>
10    4  0.7508634E-005  0.3192500E+03  0.7546771E-02  0.1125645E+00
         21   -1    0    0  501  502  0.00000000000E+00  0.00000000000E+00  0.37611774907E+03  0.37611774907E+03  0.00000000000E+00 0. -1.
          2   -1    0    0  503    0 -0.00000000000E+00 -0.00000000000E+00 -0.33608072991E+03  0.33608072991E+03  0.00000000000E+00 0. -1.
         24    2    1    2    0    0 -0.34188344781E+02 -0.21505810831E+01 -0.81984099686E+02  0.12037903315E+03  0.81217307899E+02 0.  0.
         23    2    1    2    0    0 -0.15354023979E+03 -0.10725364419E+02  0.29919948959E+02  0.17771504967E+03  0.83652835335E+02 0.  0.
        -13    1    3    3    0    0 -0.47117124633E+02 -0.29936501134E+02 -0.41281588749E+02  0.69429007652E+02  0.00000000000E+00 0.  1.
         14    1    3    3    0    0  0.12928779852E+02  0.27785920051E+02 -0.40702510937E+02  0.50950025496E+02  0.00000000000E+00 0. -1.
        -13    1    4    4    0    0 -0.16465666628E+02  0.23251701225E+02  0.22487751735E+02  0.36296814811E+02  0.00000000000E+00 0.  1.
         13    1    4    4    0    0 -0.13707457316E+03 -0.33977065644E+02  0.74321972238E+01  0.14141823486E+03  0.00000000000E+00 0. -1.
         21    1    1    2  503  502  0.23751274083E+03  0.13404662263E+03  0.61279308506E+02  0.27952808937E+03  0.00000000000E+00 0. -1.
          1    1    1    2  501    0 -0.49784156263E+02 -0.12117067713E+03  0.30821861377E+02  0.13457630679E+03  0.00000000000E+00 0. -1.
<scales pt_clust_5="13000.00000" pt_clust_6="13000.00000" pt_clust_7="13000.00000" pt_clust_8="13000.00000" pt_clust_9="258.49891" pt_clust_10="13000.00000"></scales>
<clustering>
<clus scale="   81.217">  5  6 -1 -1</clus>
<clus scale="   83.653">  7  8 -1 -1</clus>
<clus scale="   88.146">  2  5  1 -1</clus>
<clus scale="  134.480">  7 10 -1 -1</clus>
<clus scale="  258.499">  1  9  2 -1</clus>
<clus scale="  258.499">  1  5  2 -1</clus>
</clustering>
</event>
<event>
10    4  0.7508634E-005  0.1078994E+04  0.7546771E-02  0.9630725E-01
         21   -1    0    0  501  502  0.00000000000E+00  0.00000000000E+00  0.33945952033E+03  0.33945952033E+03  0.00000000000E+00 0. -1.
          2   -1    0    0  503    0 -0.00000000000E+00 -0.00000000000E+00 -0.18416352688E+04  0.18416352688E+04  0.00000000000E+00 0. -1.
         24    2    1    2    0    0 -0.17156267505E+03 -0.16132300865E+03  0.28879500954E+02  0.25100185343E+03  0.81908731268E+02 0.  0.
         23    2    1    2    0    0 -0.18157299669E+03 -0.22668501773E+03 -0.12163343656E+04  0.12539225259E+04  0.92182219031E+02 0.  0.
        -11    1    3    3    0    0  0.10518248551E+01 -0.35984955058E+02  0.32141758883E+01  0.36143522971E+02  0.00000000000E+00 0.  1.
         12    1    3    3    0    0 -0.17261449990E+03 -0.12533805359E+03  0.25665325065E+02  0.21485833046E+03  0.00000000000E+00 0. -1.
        -13    1    4    4    0    0 -0.82845844140E+02 -0.11363786918E+03 -0.40240988432E+03  0.42627539713E+03  0.00000000000E+00 0.  1.
         13    1    4    4    0    0 -0.98727152550E+02 -0.11304714855E+03 -0.81392448130E+03  0.82764712874E+03  0.00000000000E+00 0. -1.
         21    1    1    2  503  502  0.90914654645E+01 -0.30861357263E+02  0.21145503776E+02  0.38499486313E+02  0.00000000000E+00 0.  1.
          1    1    1    2  501    0  0.34404420628E+03  0.41886938364E+03 -0.33586638761E+03  0.63767092356E+03  0.00000000000E+00 0. -1.
<scales pt_clust_5="13000.00000" pt_clust_6="13000.00000" pt_clust_7="13000.00000" pt_clust_8="13000.00000" pt_clust_9="32.17263" pt_clust_10="13000.00000"></scales>
<clustering>
<clus scale="   32.173">  1  9  2 -1</clus>
<clus scale="   81.909">  5  6 -1 -1</clus>
<clus scale="   92.182">  7  8 -1 -1</clus>
<clus scale="  255.871">  2  5  1 -1</clus>
<clus scale="  466.570">  7 10 -1 -1</clus>
<clus scale="   32.173">  1  5  2 -1</clus>
</clustering>
</event>
<event>
10    4  0.7508634E-005  0.3028731E+03  0.7546771E-02  0.1107945E+00
         21   -1    0    0  501  502  0.00000000000E+00  0.00000000000E+00  0.35777551408E+02  0.35777551408E+02  0.00000000000E+00 0. -1.
          2   -1    0    0  503    0 -0.00000000000E+00 -0.00000000000E+00 -0.19043158415E+04  0.19043158415E+04  0.00000000000E+00 0. -1.
         24    2    1    2    0    0  0.10844121931E+03 -0.93325590070E+02 -0.69177735247E+03  0.71099379382E+03  0.80542570423E+02 0.  0.
         23    2    1    2    0    0 -0.20823276742E+02 -0.69715804744E+02 -0.28126458870E+03  0.30416793122E+03  0.90080293313E+02 0.  0.
        -13    1    3    3    0    0  0.33337753881E+02  0.45005078691E+00 -0.67788420759E+02  0.75543883727E+02  0.00000000000E+00 0.  1.
         14    1    3    3    0    0  0.75103465434E+02 -0.93775640857E+02 -0.62398893171E+03  0.63544991009E+03  0.00000000000E+00 0. -1.
        -13    1    4    4    0    0 -0.35666492059E+02 -0.85767338283E+02 -0.24220853502E+03  0.25940915444E+03  0.00000000000E+00 0.  1.
         13    1    4    4    0    0  0.14843215317E+02  0.16051533539E+02 -0.39056053674E+02  0.44758776776E+02  0.00000000000E+00 0. -1.
         21    1    1    2  503  502  0.92990051000E+01  0.28343974100E+02 -0.25478849398E+02  0.39230398039E+02  0.00000000000E+00 0. -1.
          1    1    1    2  501    0 -0.96916947673E+02  0.13469742071E+03 -0.87001749956E+03  0.88570126986E+03  0.00000000000E+00 0. -1.
<scales pt_clust_5="13000.00000" pt_clust_6="13000.00000" pt_clust_7="13000.00000" pt_clust_8="13000.00000" pt_clust_9="29.83039" pt_clust_10="13000.00000"></scales>
<clustering>
<clus scale="   29.830">  1  9  2 -1</clus>
<clus scale="   80.543">  5  6 -1 -1</clus>
<clus scale="   90.080">  7  8 -1 -1</clus>
<clus scale="  161.141">  2  5  1 -1</clus>
<clus scale="   78.156">  7 10 -1 -1</clus>
<clus scale="   29.830">  1  5  2 -1</clus>
</clustering>
</event>
<event>
10    4  0.7508634E-005  0.7933024E+03  0.7546771E-02  0.9921261E-01
          2   -1    0    0  503    0 -0.00000000000E+00  0.00000000000E+00  0.46887081838E+03  0.46887081838E+03  0.00000000000E+00 0. -1.
         21   -1    0    0  501  502  0.00000000000E+00 -0.00000000000E+00 -0.67438430555E+03  0.67438430555E+03  0.00000000000E+00 0. -1.
         24    2    1    2    0    0  0.23120748185E+03  0.40685142878E+02  0.10954901124E+03  0.27127879434E+03  0.80492346714E+02 0.  0.
         23    2    1    2    0    0  0.24379778895E+03 -0.17713688592E+03 -0.12094208407E+03  0.33737500246E+03  0.91542702266E+02 0.  0.
        -13    1    3    3    0    0  0.77308500546E+02  0.46891958912E+02  0.18291496750E+02  0.92249872198E+02  0.00000000000E+00 0.  1.
         14    1    3    3    0    0  0.15389898130E+03 -0.62068160342E+01  0.91257514489E+02  0.17902892214E+03  0.00000000000E+00 0. -1.
        -11    1    4    4    0    0  0.20096716583E+02  0.10757416472E+02 -0.96502048280E+01  0.24753312502E+02  0.00000000000E+00 0.  1.
         11    1    4    4    0    0  0.22370107236E+03 -0.18789430240E+03 -0.11129187924E+03  0.31262168996E+03  0.00000000000E+00 0. -1.
         21    1    1    2  503  502 -0.15381103263E+02  0.15096347529E+02 -0.16437551047E+02  0.27104817482E+02  0.00000000000E+00 0. -1.
          1    1    1    2  501    0 -0.45962416753E+03  0.12135539552E+03 -0.17768286328E+03  0.50749650965E+03  0.00000000000E+00 0. -1.
<scales pt_clust_5="13000.00000" pt_clust_6="13000.00000" pt_clust_7="13000.00000" pt_clust_8="13000.00000" pt_clust_9="21.55175" pt_clust_10="13000.00000"></scales>
<clustering>
<clus scale="   21.552">  2  9  1 -1</clus>
<clus scale="   80.492">  5  6 -1 -1</clus>
<clus scale="   91.543">  7  8 -1 -1</clus>
<clus scale="  246.717">  1  5  2 -1</clus>
<clus scale="  360.780">  7 10 -1 -1</clus>
<clus scale="   21.552">  2  5  1 -1</clus>
</clustering>
</event>
<event>
10    4  0.7508634E-005  0.1448978E+03  0.7546771E-02  0.1226663E+00
          2   -1    0    0  503    0 -0.00000000000E+00  0.00000000000E+00  0.79335453561E+03  0.79335453561E+03  0.00000000000E+00 0. -1.
         21   -1    0    0  501  502  0.00000000000E+00 -0.00000000000E+00 -0.56607066382E+02  0.56607066382E+02  0.00000000000E+00 0.  1.
         24    2    1    2    0    0  0.26007515035E+02 -0.50631556903E+02  0.58849385068E+03  0.59670965963E+03  0.80606824859E+02 0.  0.
         23    2    1    2    0    0 -0.13615322943E+02  0.35506444942E+02  0.84896381066E+02  0.12567775201E+03  0.84506906106E+02 0.  0.
        -11    1    3    3    0    0 -0.12335943127E+02 -0.30832931996E+02  0.83294440387E+02  0.89670558087E+02  0.00000000000E+00 0.  1.
         12    1    3    3    0    0  0.38343458162E+02 -0.19798624907E+02  0.50519941029E+03  0.50703910154E+03  0.00000000000E+00 0. -1.
        -11    1    4    4    0    0 -0.30956649684E+02  0.50723118910E+02  0.30939706947E+02  0.66995629840E+02  0.00000000000E+00 0. -1.
         11    1    4    4    0    0  0.17341326742E+02 -0.15216673968E+02  0.53956674119E+02  0.58682122165E+02  0.00000000000E+00 0.  1.
         21    1    1    2  503  502 -0.55421724875E+02  0.32504939809E+02  0.34509144581E+02  0.72931610155E+02  0.00000000000E+00 0.  1.
          1    1    1    2  501    0  0.43029532783E+02 -0.17379827848E+02  0.28848092907E+02  0.54642580209E+02  0.00000000000E+00 0. -1.
<scales pt_clust_5="13000.00000" pt_clust_6="13000.00000" pt_clust_7="13000.00000" pt_clust_8="13000.00000" pt_clust_9="64.25059" pt_clust_10="13000.00000"></scales>
<clustering>
<clus scale="   64.251">  2  9  1 -1</clus>
<clus scale="   80.607">  5  6 -1 -1</clus>
<clus scale="   84.507">  7  8 -1 -1</clus>
<clus scale="   24.698">  7 10 -1 -1</clus>
<clus scale="   95.441">  1  5  2 -1</clus>
<clus scale="   64.251">  2  5  1 -1</clus>
</clustering>
</event>
<event>
10    4  0.7508634E-005  0.4104231E+03  0.7546771E-02  0.1057552E+00
         21   -1    0    0  501  502  0.00000000000E+00  0.00000000000E+00  0.43975781919E+03  0.43975781919E+03  0.00000000000E+00 0. -1.
          2   -1    0    0  503    0 -0.00000000000E+00 -0.00000000000E+00 -0.97996740238E+03  0.97996740238E+03  0.00000000000E+00 0. -1.
         24    2    1    2    0    0  0.71810222731E+02  0.22223101550E+03 -0.22362716265E+03  0.33323769134E+03  0.80591058496E+02 0.  0.
         23    2    1    2    0    0 -0.10780144352E+03  0.51250216119E+02 -0.39720868573E+03  0.42612119161E+03  0.97758856585E+02 0.  0.
        -13    1    3    3    0    0  0.23545275708E+02  0.41372426283E+02 -0.89941177340E+01  0.48445348781E+02  0.00000000000E+00 0.  1.
         14    1    3    3    0    0  0.48264947023E+02  0.18085858922E+03 -0.21463304492E+03  0.28479234256E+03  0.00000000000E+00 0. -1.
        -11    1    4    4    0    0 -0.79016332872E+02  0.22802220345E+02 -0.36569401529E+03  0.37482747356E+03  0.00000000000E+00 0.  1.
         11    1    4    4    0    0 -0.28785110650E+02  0.28447995774E+02 -0.31514670439E+02  0.51293718052E+02  0.00000000000E+00 0. -1.
         21    1    1    2  503  502  0.13053324435E+03 -0.55174153394E+02  0.30313602079E+03  0.33462600345E+03  0.00000000000E+00 0. -1.
          1    1    1    2  501    0 -0.94542023554E+02 -0.21830707823E+03 -0.22250975560E+03  0.32574033518E+03  0.00000000000E+00 0. -1.
<scales pt_clust_5="13000.00000" pt_clust_6="13000.00000" pt_clust_7="13000.00000" pt_clust_8="13000.00000" pt_clust_9="141.71491" pt_clust_10="13000.00000"></scales>
<clustering>
<clus scale="   80.591">  5  6 -1 -1</clus>
<clus scale="   97.759">  7  8 -1 -1</clus>
<clus scale="  141.715">  1  9  2 -1</clus>
<clus scale="  244.960">  7 10 -1 -1</clus>
<clus scale="  250.096">  2  5  1 -1</clus>
<clus scale="  141.715">  1  5  2 -1</clus>
</clustering>
</event>
<event>
10    4  0.7508634E-005  0.3592071E+03  0.7546771E-02  0.1115375E+00
          2   -1    0    0  503    0 -0.00000000000E+00  0.00000000000E+00  0.81085271018E+03  0.81085271018E+03  0.00000000000E+00 0. -1.
         21   -1    0    0  501  502  0.00000000000E+00 -0.00000000000E+00 -0.30078834072E+03  0.30078834072E+03  0.00000000000E+00 0.  1.
         24    2    1    2    0    0  0.35405431619E+01 -0.20039286094E+01  0.18092851234E+03  0.19781973957E+03  0.79880984026E+02 0.  0.
         23    2    1    2    0    0  0.22751707560E+02 -0.13289004179E+03  0.31257749635E+03  0.35221397996E+03  0.90402395180E+02 0.  0.
        -13    1    3    3    0    0  0.39043910676E+02 -0.33228134936E+01  0.12960506940E+03  0.13539919521E+03  0.00000000000E+00 0.  1.
         14    1    3    3    0    0 -0.35503367514E+02  0.13188848842E+01  0.51323442941E+02  0.62420544354E+02  0.00000000000E+00 0. -1.
        -11    1    4    4    0    0  0.37419152901E+02 -0.11260534359E+03  0.30301068802E+03  0.32541609282E+03  0.00000000000E+00 0. -1.
         11    1    4    4    0    0 -0.14667445341E+02 -0.20284698197E+02  0.95668083228E+01  0.26797887142E+02  0.00000000000E+00 0.  1.
         21    1    1    2  503  502 -0.48760546853E+02  0.30904871074E+03 -0.12413475884E+03  0.33659788308E+03  0.00000000000E+00 0.  1.
          1    1    1    2  501    0  0.22468296132E+02 -0.17415474034E+03  0.14069311961E+03  0.22500944830E+03  0.00000000000E+00 0. -1.
<scales pt_clust_5="13000.00000" pt_clust_6="13000.00000" pt_clust_7="13000.00000" pt_clust_8="13000.00000" pt_clust_9="312.43950" pt_clust_10="13000.00000"></scales>
<clustering>
<clus scale="   79.881">  5  6 -1 -1</clus>
<clus scale="   79.985">  1  5  2 -1</clus>
<clus scale="   90.402">  7  8 -1 -1</clus>
<clus scale="  176.319">  7 10 -1 -1</clus>
<clus scale="  312.439">  2  9  1 -1</clus>
<clus scale="  312.439">  2  5  1 -1</clus>
</clustering>
</event>
<event>
10    4  0.7508634E-005  0.2620204E+03  0.7546771E-02  0.1119254E+00
         21   -1    0    0  501  502  0.00000000000E+00  0.00000000000E+00  0.35791643627E+03  0.35791643627E+03  0.00000000000E+00 0. -1.
          2   -1    0    0  503    0 -0.00000000000E+00 -0.00000000000E+00 -0.49835031816E+03  0.49835031816E+03  0.00000000000E+00 0. -1.
         24    2    1    2    0    0 -0.48466947110E+02 -0.18367914387E+03 -0.31219041953E+02  0.20949392912E+03  0.82619639940E+02 0.  0.
         23    2    1    2    0    0 -0.69954021500E+01  0.43634948973E+02 -0.54585060105E+02  0.11509196000E+03  0.91179416798E+02 0.  0.
        -11    1    3    3    0    0  0.22633991449E+02 -0.29039813163E+02 -0.84506922921E+01  0.37775951579E+02  0.00000000000E+00 0.  1.
         12    1    3    3    0    0 -0.71100938559E+02 -0.15463933070E+03 -0.22768349661E+02  0.17171797754E+03  0.00000000000E+00 0. -1.
        -13    1    4    4    0    0  0.14275112478E+02  0.65323755609E+02 -0.21642443584E+02  0.70280632093E+02  0.00000000000E+00 0. -1.
         13    1    4    4    0    0 -0.21270514628E+02 -0.21688806636E+02 -0.32942616521E+02  0.44811327910E+02  0.00000000000E+00 0.  1.
         21    1    1    2  503  502 -0.21312998853E+02  0.41967102689E+02  0.22272414396E+03  0.22764341838E+03  0.00000000000E+00 0. -1.
          1    1    1    2  501    0  0.76775348113E+02  0.98077092203E+02 -0.27735392379E+03  0.30403744693E+03  0.00000000000E+00 0. -1.
<scales pt_clust_5="13000.00000" pt_clust_6="13000.00000" pt_clust_7="13000.00000" pt_clust_8="13000.00000" pt_clust_9="47.06890" pt_clust_10="13000.00000"></scales>
<clustering>
<clus scale="   47.069">  1  9  2 -1</clus>
<clus scale="   82.620">  5  6 -1 -1</clus>
<clus scale="   91.179">  7  8 -1 -1</clus>
<clus scale="  126.627">  7 10 -1 -1</clus>
<clus scale="  186.939">  2  5  1 -1</clus>
<clus scale="   47.069">  1  5  2 -1</clus>
</clustering>
</event>
<event>
10    4  0.7508634E-005  0.4783673E+03  0.7546771E-02  0.1057514E+00
         21   -1    0    0  501  502  0.00000000000E+00  0.00000000000E+00  0.26633939859E+03  0.26633939859E+03  0.00000000000E+00 0.  1.
          4   -1    0    0  503    0 -0.00000000000E+00 -0.00000000000E+00 -0.11446226611E+04  0.11446226611E+04  0.00000000000E+00 0. -1.
         24    2    1    2    0    0 -0.26144530973E+02 -0.13567365257E+03 -0.15527125468E+03  0.22160906628E+03  0.76880031372E+02 0.  0.
         23    2    1    2    0    0 -0.28141165590E+03 -0.35806264133E+02 -0.64218954534E+03  0.70818338468E+03  0.92960666753E+02 0.  0.
        -11    1    3    3    0    0  0.16719165508E+02 -0.86785041494E+02 -0.62190366393E+02  0.10806856895E+03  0.00000000000E+00 0.  1.
         12    1    3    3    0    0 -0.42863696481E+02 -0.48888611079E+02 -0.93080888287E+02  0.11354049733E+03  0.00000000000E+00 0. -1.
        -11    1    4    4    0    0 -0.22767973488E+03 -0.61008758951E+02 -0.46520435905E+03  0.52151244091E+03  0.00000000000E+00 0.  1.
         11    1    4    4    0    0 -0.53731921016E+02  0.25202494818E+02 -0.17698518629E+03  0.18667094377E+03  0.00000000000E+00 0. -1.
         21    1    1    2  503  502  0.16987760649E+03  0.10436056861E+03  0.11685628619E+03  0.23109504774E+03  0.00000000000E+00 0.  1.
          3    1    1    2  501    0  0.13767858037E+03  0.67119348096E+02 -0.19767874869E+03  0.25007456101E+03  0.00000000000E+00 0. -1.
<scales pt_clust_5="13000.00000" pt_clust_6="13000.00000" pt_clust_7="13000.00000" pt_clust_8="13000.00000" pt_clust_9="193.89533" pt_clust_10="13000.00000"></scales>
<clustering>
<clus scale="   76.880">  5  6 -1 -1</clus>
<clus scale="   92.961">  7  8 -1 -1</clus>
<clus scale="  153.168">  7 10 -1 -1</clus>
<clus scale="  158.118">  2  5  1 -1</clus>
<clus scale="  193.895">  1  9  2 -1</clus>
<clus scale="  193.895">  1  5  2 -1</clus>
</clustering>
</event>
